G2.5-PAMAM in water
32424
    1aaa     C1    1   6.340   2.707   5.848 -0.4630 -0.2940  0.1954
    1aaa     H1    2   6.429   2.751   5.896 -0.5159 -0.9684  0.9424
    1aaa     H2    3   6.281   2.689   5.938  0.5022  1.1591  1.1710
    1aaa     C2    4   6.377   2.570   5.784  0.7367 -0.5399  0.4885
    1aaa     H3    5   6.297   2.560   5.710  0.9217  2.6667 -0.2952
    1aaa     H4    6   6.471   2.582   5.728  1.6393 -0.6981  1.9327
    1aaa     N1    7   6.399   2.455   5.870  0.1351  0.5489  0.3314
    1aaa     N2    8   6.284   2.799   5.747  0.1536 -0.4572 -0.0141
    1aaa     C3    9   6.396   2.889   5.708  0.3728  0.2482  0.2035
    1aaa     H5   10   6.487   2.829   5.695  0.6062  0.6203  0.1039
    1aaa     H6   11   6.424   2.964   5.783  1.2145  0.9441 -0.7954
    1aaa     C4   12   6.165   2.870   5.795  0.0910 -0.4779  0.5293
    1aaa     H7   13   6.190   2.916   5.892 -0.0871  0.2269  0.2439
    1aaa     H8   14   6.144   2.951   5.724  0.2504 -1.5959 -0.8302
    1aaa     C5   15   6.498   2.459   5.978 -0.1993  0.2573  0.4132
    1aaa     H9   16   6.458   2.529   6.052 -0.9079 -0.7388  0.9869
    1aaa    H10   17   6.509   2.363   6.030 -1.0107  0.1767  0.4357
    1aaa     C6   18   6.271   2.396   5.919 -0.1099 -0.4002  0.3921
    1aaa    H11   19   6.197   2.402   5.839  1.2065  0.8859 -0.7644
    1aaa    H12   20   6.229   2.468   5.990 -0.2354  1.0886 -1.1355
    1aaa     C7   21   6.634   2.498   5.923  0.1793 -0.0391  0.2424
    1aaa    H13   22   6.665   2.434   5.839 -0.8024 -1.0707  0.6534
    1aaa    H14   23   6.640   2.598   5.879  1.0528  0.3950  1.2997
    1aaa     C8   24   6.282   2.251   5.970 -0.1923 -0.7032  0.7010
    1aaa    H15   25   6.333   2.185   5.898  0.4462 -0.7689  1.2061
    1aaa    H16   26   6.334   2.245   6.067 -0.3898 -0.7605  0.8034
    1aaa     C9   27   6.044   2.771   5.808  0.3041  0.3342  0.3747
    1aaa    H17   28   6.022   2.708   5.721  0.0630  1.1984 -0.2013
    1aaa    H18   29   6.060   2.708   5.897  0.1988  1.9368  1.5732
    1aaa    C10   30   6.355   2.953   5.573  0.1445  0.0700  0.3885
    1aaa    H19   31   6.301   2.882   5.510  1.2381 -1.9223  1.6120
    1aaa    H20   32   6.289   3.040   5.586 -0.0362 -0.1352  0.8767
    1aaa    C11   33   5.923   2.850   5.836 -0.8637  0.1305  0.9803
    1aaa    C12   34   6.479   3.000   5.499 -0.8364 -0.5579 -0.1304
    1aaa    C13   35   6.729   2.487   6.036 -0.0011  0.7320 -0.4809
    1aaa    C14   36   6.144   2.198   5.987 -0.0378 -0.4109 -0.4216
    1aaa     O1   37   5.913   2.914   5.939 -0.1759  0.0951 -0.0283
    1aaa     O2   38   6.802   2.390   6.046 -0.7237 -0.4765  0.7683
    1aaa     O3   39   6.082   2.230   6.089  0.1481 -0.0365 -0.1708
    1aaa     O4   40   6.589   3.003   5.545 -0.2868 -0.2840 -0.4588
    2bbb     C1   41   5.791   3.061   5.626 -0.1498 -0.1855 -0.2213
    2bbb     H1   42   5.886   3.094   5.669  0.9394  0.5281 -3.0100
    2bbb     H2   43   5.721   3.146   5.632 -1.3901 -1.2088  0.1407
    2bbb     C2   44   5.730   2.952   5.715 -0.2093 -0.6685 -0.2201
    2bbb     H3   45   5.705   2.991   5.815 -0.0008 -2.5622  0.6259
    2bbb     H4   46   5.631   2.926   5.678 -0.0125 -0.1674 -1.1137
    2bbb     N1   47   5.801   3.017   5.487 -0.0934  0.3348 -0.2028
    2bbb     C3   48   5.672   2.978   5.418  1.0427  0.6123  0.8972
    2bbb     H5   49   5.631   2.889   5.468  0.2940  0.5361  0.1709
    2bbb     H6   50   5.694   2.935   5.320 -1.8546  0.9077  0.0096
    2bbb     C4   51   5.892   3.086   5.395 -0.2668  0.7293 -0.3385
    2bbb     H7   52   5.900   3.034   5.299  1.4022 -0.5840  0.4615
    2bbb     H8   53   5.861   3.191   5.384  1.2294  1.0569 -1.9389
    2bbb     C5   54   6.035   3.081   5.442 -0.1630  0.3036  0.2539
    2bbb     H9   55   6.035   3.134   5.538  0.5960  0.1663  0.3371
    2bbb    H10   56   6.064   2.975   5.445  1.3162  0.6850  0.3714
    2bbb     C6   57   5.573   3.087   5.401 -0.4205 -0.2569  0.2183
    2bbb    H11   58   5.542   3.120   5.501  1.3373  2.8616 -0.1199
    2bbb    H12   59   5.607   3.171   5.338  1.2377 -1.6631 -0.8457
    2bbb     C7   60   6.124   3.144   5.343  0.7486 -1.0186 -0.5084
    2bbb     C8   61   5.449   3.040   5.331 -0.1705 -0.6385 -0.3671
    2bbb     O1   62   6.189   3.070   5.275  0.1533 -0.2699  0.1817
    2bbb     O2   63   5.443   2.981   5.225 -0.3532  0.5467 -0.0329
    2bbb     N4   64   5.834   2.843   5.729  0.3566 -0.4018  0.1732
    2bbb    H21   65   5.853   2.784   5.649 -0.4304 -0.2612 -0.1297
    3bbb     C1   66   6.534   3.149   5.148 -1.1645  0.6156 -0.5119
    3bbb     H1   67   6.498   3.249   5.175 -2.8789 -0.0741 -0.1155
    3bbb     H2   68   6.451   3.100   5.096 -0.7644 -1.6152  0.8225
    3bbb     C2   69   6.573   3.068   5.278 -0.0945  0.1687  0.3543
    3bbb     H3   70   6.621   2.972   5.257 -0.4344 -0.7070  3.1600
    3bbb     H4   71   6.644   3.126   5.338 -0.5372 -1.4790  2.5742
    3bbb     N1   72   6.656   3.168   5.064  0.4210 -0.0469  0.8370
    3bbb     C3   73   6.640   3.294   4.982 -0.2333 -0.0256  0.0943
    3bbb     H5   74   6.532   3.305   4.963 -0.4258 -1.1867  0.4419
    3bbb     H6   75   6.693   3.288   4.887  0.3038 -1.2858  0.4640
    3bbb     C4   76   6.681   3.048   4.988  0.0711  0.3321  0.5228
    3bbb     H7   77   6.644   2.959   5.039  1.7244 -0.7779 -0.1348
    3bbb     H8   78   6.636   3.045   4.888  0.1411  1.4187  0.4454
    3bbb     C5   79   6.836   3.037   4.971  0.1216  0.9219 -0.4406
    3bbb     H9   80   6.872   3.132   4.928  3.5036  0.2724  0.6712
    3bbb    H10   81   6.880   3.024   5.070  0.0182 -0.2250 -0.5365
    3bbb     C6   82   6.696   3.411   5.059  0.1125  0.2074 -0.0809
    3bbb    H11   83   6.671   3.509   5.017  1.4853  0.9714  0.8171
    3bbb    H12   84   6.652   3.419   5.159 -0.3263  3.6832 -0.4323
    3bbb     C7   85   6.861   2.915   4.889 -0.3510  0.7229 -0.3975
    3bbb     C8   86   6.847   3.405   5.065 -0.0805  0.7694 -0.1466
    3bbb     O1   87   6.818   2.803   4.917  0.1981 -0.0302  0.2915
    3bbb     O2   88   6.903   3.387   4.957 -0.0849  0.0245 -0.5604
    3bbb     N4   89   6.461   3.044   5.370 -0.1191  0.1437 -0.1160
    3bbb    H21   90   6.365   3.034   5.338  0.2899 -1.0058 -1.1031
    4bbb     C1   91   6.898   2.641   6.309 -0.6202 -0.2409 -0.2514
    4bbb     H1   92   6.980   2.593   6.253  1.0598  2.0137  0.1246
    4bbb     H2   93   6.909   2.627   6.417 -0.3763  0.1641 -0.2186
    4bbb     C2   94   6.769   2.565   6.263 -1.5095  0.0340  0.0667
    4bbb     H3   95   6.791   2.458   6.267 -0.4626 -0.1110 -4.2324
    4bbb     H4   96   6.683   2.581   6.329 -2.1665  1.7245 -1.1005
    4bbb     N1   97   6.883   2.785   6.278  0.4536 -0.0516  0.2698
    4bbb     C3   98   7.001   2.859   6.323  0.5953 -0.5370 -0.2340
    4bbb     H5   99   7.030   2.826   6.423 -1.3357  1.3322  1.0154
    4bbb     H6  100   6.986   2.967   6.333  0.5734 -0.6540  1.1579
    4bbb     C4  101   6.759   2.839   6.339  0.0668 -0.0533 -0.3806
    4bbb     H7  102   6.673   2.771   6.334 -0.8860  1.1460 -0.7271
    4bbb     H8  103   6.771   2.865   6.445  0.2868  0.6535 -0.5693
    4bbb     C5  104   6.706   2.963   6.270 -0.6559  0.4960  0.1779
    4bbb     H9  105   6.607   3.001   6.300 -1.7100  0.1817 -2.5899
    4bbb    H10  106   6.780   3.044   6.272  0.4756 -0.5252  1.2203
    4bbb     C6  107   7.109   2.845   6.219 -0.2716  0.0966 -1.1123
    4bbb    H11  108   7.150   2.744   6.208  0.3119  0.1576  0.3605
    4bbb    H12  109   7.069   2.876   6.121  0.9137 -0.3569 -1.7631
    4bbb     C7  110   6.682   2.920   6.131 -0.3921 -0.1424  0.3017
    4bbb     C8  111   7.231   2.930   6.259  0.2152 -0.1986  0.3233
    4bbb     O1  112   6.584   2.858   6.105  0.1326  0.2415  0.5327
    4bbb     O2  113   7.324   2.887   6.323  0.0342  0.1923 -0.4094
    4bbb     N4  114   6.734   2.587   6.125 -0.6041 -0.6253  0.2831
    4bbb    H21  115   6.683   2.672   6.104  0.9794  0.1682 -0.6123
    5bbb     C1  116   5.888   2.174   5.761  0.6864 -0.1104  0.3657
    5bbb     H1  117   5.864   2.271   5.805  1.8415  0.7535 -0.8573
    5bbb     H2  118   5.795   2.124   5.731  1.5431 -0.0378 -2.7883
    5bbb     C2  119   5.958   2.083   5.858 -0.1546  0.5258 -0.0784
    5bbb     H3  120   5.898   2.086   5.950 -3.0484 -0.2872 -1.8156
    5bbb     H4  121   5.958   1.978   5.827 -1.0751 -0.1597  2.0614
    5bbb     N1  122   5.959   2.191   5.633  0.5368 -1.1201  0.1219
    5bbb     C3  123   5.904   2.296   5.549  0.1878 -0.0671  0.5118
    5bbb     H5  124   5.795   2.297   5.561 -0.0253 -0.5036 -1.0867
    5bbb     H6  125   5.919   2.280   5.441  0.2938  0.7012  0.4054
    5bbb     C4  126   5.979   2.068   5.549  0.1470 -0.1907  0.4200
    5bbb     H7  127   6.007   1.979   5.607 -1.0516 -0.8625  0.0056
    5bbb     H8  128   5.890   2.031   5.497  0.1910 -1.5550  1.2699
    5bbb     C5  129   6.102   2.089   5.462 -0.1138  0.5561  0.1691
    5bbb     H9  130   6.129   1.998   5.406 -0.0641  0.5834  0.1500
    5bbb    H10  131   6.086   2.172   5.393  0.7164  0.5691 -0.0121
    5bbb     C6  132   5.976   2.422   5.601  0.2211  0.1818  0.6739
    5bbb    H11  133   5.949   2.455   5.702  0.8299 -0.3773  1.0258
    5bbb    H12  134   6.085   2.420   5.595  0.2935  0.1837  1.8219
    5bbb     C7  135   6.218   2.123   5.548 -0.1679  0.0579 -0.7098
    5bbb     C8  136   5.926   2.533   5.513 -0.5318 -0.4599  0.4255
    5bbb     O1  137   6.249   2.076   5.654 -0.2745  0.5555 -0.2015
    5bbb     O2  138   5.835   2.601   5.551  0.5022  0.1316 -0.4968
    5bbb     N4  139   6.100   2.127   5.886 -0.6834  0.6104 -0.1555
    5bbb    H21  140   6.164   2.116   5.808 -1.7853 -2.6494 -0.7555
    6bbb     C1  141   6.232   3.496   5.256  0.4907  0.9301  0.0416
    6bbb     H1  142   6.319   3.530   5.198  2.3862 -1.6631  1.1589
    6bbb     H2  143   6.252   3.528   5.359  0.3320 -0.5877  0.5689
    6bbb     C2  144   6.252   3.345   5.264  0.2938  0.6521 -0.1289
    6bbb     H3  145   6.260   3.299   5.164 -2.0307  0.6066 -0.3475
    6bbb     H4  146   6.340   3.322   5.325 -1.3846 -1.4594  1.6829
    6bbb     N1  147   6.097   3.537   5.217 -0.6523 -0.4289  0.1554
    6bbb     C3  148   6.061   3.495   5.084  0.7063  0.3882 -0.0395
    6bbb     H5  149   6.099   3.393   5.064 -0.7545 -0.0979 -0.4840
    6bbb     H6  150   6.114   3.563   5.016 -0.6180  0.0132 -1.4931
    6bbb     C4  151   6.083   3.680   5.242 -0.2414  0.1550 -0.1324
    6bbb     H7  152   6.180   3.731   5.239  0.3102 -0.8128  0.6665
    6bbb     H8  153   6.012   3.731   5.176 -0.8822 -0.1368  0.3257
    6bbb     C5  154   6.021   3.688   5.377  0.3772 -0.5766 -0.3164
    6bbb     H9  155   5.921   3.645   5.362 -1.3289  2.4559  1.3689
    6bbb    H10  156   6.077   3.641   5.459  1.8774 -0.5913 -1.3156
    6bbb     C6  157   5.910   3.486   5.067 -0.0146  0.3393 -0.5771
    6bbb    H11  158   5.899   3.418   4.982 -0.2593 -0.8128  0.3459
    6bbb    H12  159   5.861   3.442   5.155  0.7691 -1.9198 -1.1923
    6bbb     C7  160   5.994   3.832   5.408  0.4168 -0.3669 -0.0142
    6bbb     C8  161   5.841   3.610   5.026  0.0808  0.3312 -0.4288
    6bbb     O1  162   6.079   3.918   5.404  0.6789  0.0384 -0.2450
    6bbb     O2  163   5.861   3.663   4.920  0.0379 -0.7526  0.2539
    6bbb     N4  164   6.139   3.277   5.332  0.0369  0.0233 -0.4390
    6bbb    H21  165   6.068   3.343   5.364  1.7290  1.2601  0.9395
    7bbb     C1  166   5.081   3.102   5.452 -0.5647  0.4107  0.8521
    7bbb     H1  167   4.987   3.060   5.414 -1.6258  1.0943  2.5752
    7bbb     H2  168   5.076   3.207   5.421 -1.1548  0.7860  2.1519
    7bbb     C2  169   5.202   3.041   5.367  0.0718  0.4781  0.4876
    7bbb     H3  170   5.191   2.932   5.371 -1.4827  0.5245 -1.1438
    7bbb     H4  171   5.189   3.059   5.259 -0.3700 -2.8478 -0.1473
    7bbb     N1  172   5.093   3.090   5.598 -0.0804 -0.5352  0.1924
    7bbb     C3  173   5.100   2.954   5.635  0.4366  0.1389 -0.3079
    7bbb     H5  174   5.184   2.910   5.580  1.5550  2.8442 -0.9463
    7bbb     H6  175   5.005   2.904   5.614 -0.3893  2.1710 -1.7326
    7bbb     C4  176   4.977   3.162   5.665  0.5398  0.2414  0.4473
    7bbb     H7  177   4.879   3.140   5.623  0.3568  0.7841  0.5811
    7bbb     H8  178   4.974   3.129   5.769  0.1417  0.4881  0.5162
    7bbb     C5  179   4.997   3.315   5.660 -0.6620  0.4732 -0.5166
    7bbb     H9  180   5.104   3.322   5.684 -0.9956 -1.1063  1.7067
    7bbb    H10  181   4.965   3.355   5.563 -1.3890 -2.5402 -1.6183
    7bbb     C6  182   5.146   2.932   5.783 -0.3523 -0.0058  0.8482
    7bbb    H11  183   5.095   2.993   5.859 -2.9778  0.5181 -1.1970
    7bbb    H12  184   5.129   2.829   5.817  1.3836 -1.1317 -1.4473
    7bbb     C7  185   4.927   3.385   5.778 -0.0138  0.6244  0.0814
    7bbb     C8  186   5.290   2.971   5.806 -0.1614  0.3494 -0.4522
    7bbb     O1  187   4.933   3.353   5.897 -0.1440  0.1659  0.3004
    7bbb     O2  188   5.380   2.906   5.760  0.1441  0.5154 -0.1759
    7bbb     N4  189   5.337   3.086   5.397 -0.2627 -0.7421 -0.1823
    7bbb    H21  190   5.349   3.161   5.465  0.0364 -1.4058  0.5062
    8bbb     C1  191   7.079   2.851   4.589  0.2500 -0.1561 -0.6859
    8bbb     H1  192   7.161   2.914   4.625  1.1103 -1.4548 -0.3043
    8bbb     H2  193   7.021   2.922   4.529  3.3802  1.5863 -1.8573
    8bbb     C2  194   7.006   2.812   4.714 -0.4464 -0.1635  0.0047
    8bbb     H3  195   6.945   2.723   4.693 -0.0592 -0.1184 -1.4484
    8bbb     H4  196   7.075   2.772   4.789 -0.7179 -1.1357 -0.2443
    8bbb     N1  197   7.128   2.737   4.510  0.4432 -0.2084  0.3924
    8bbb     C3  198   7.248   2.771   4.439  0.4402  0.2377 -0.0013
    8bbb     H5  199   7.236   2.866   4.387  2.1977 -0.3094 -1.5155
    8bbb     H6  200   7.275   2.696   4.364  0.4342 -0.2442  0.4664
    8bbb     C4  201   7.023   2.674   4.422 -0.7078 -0.3532 -0.2937
    8bbb     H7  202   6.923   2.673   4.467 -0.8655 -0.7349 -0.6493
    8bbb     H8  203   7.016   2.742   4.336 -1.7516  2.0752  1.5894
    8bbb     C5  204   7.056   2.526   4.394  0.4533 -0.5798 -0.4031
    8bbb     H9  205   7.002   2.501   4.302  2.4038  0.0495 -1.7831
    8bbb    H10  206   7.162   2.498   4.396  0.8977  0.9122  2.1421
    8bbb     C6  207   7.366   2.778   4.540 -0.0140  0.0532  0.0073
    8bbb    H11  208   7.357   2.861   4.611  1.0518  1.4797 -1.4650
    8bbb    H12  209   7.358   2.684   4.597  0.3103  0.3563  0.5599
    8bbb     C7  210   6.996   2.452   4.512  0.4985  0.2500 -0.1221
    8bbb     C8  211   7.505   2.790   4.470 -0.2066 -0.3550 -0.6815
    8bbb     O1  212   6.898   2.385   4.503  0.4340 -0.4278  0.2719
    8bbb     O2  213   7.517   2.828   4.352 -0.3540 -0.4556  0.3138
    8bbb     N4  214   6.944   2.928   4.779 -0.2089  0.2029 -0.0929
    8bbb    H21  215   6.982   3.021   4.771 -1.2134  0.7166  0.8460
    9bbb     C1  216   7.109   3.390   5.359  0.0939 -0.0484 -1.1203
    9bbb     H1  217   7.078   3.491   5.389  0.4752 -0.1137 -0.4801
    9bbb     H2  218   7.219   3.382   5.361  0.1244 -0.2940  2.5059
    9bbb     C2  219   7.055   3.376   5.212  0.1544  0.1171  0.2584
    9bbb     H3  220   7.113   3.448   5.154 -0.2115  1.8210  1.9096
    9bbb     H4  221   7.085   3.279   5.170 -3.0079 -0.2245 -1.4896
    9bbb     N1  222   7.052   3.289   5.450 -0.3681  0.0992 -0.2458
    9bbb     C3  223   7.055   3.304   5.596  0.5949 -0.8644  0.2752
    9bbb     H5  224   7.151   3.345   5.631 -1.3212  2.9196  1.6057
    9bbb     H6  225   7.046   3.208   5.648 -1.3318 -0.4485  0.7530
    9bbb     C4  226   7.090   3.150   5.415 -0.6575 -0.0301 -0.3042
    9bbb     H7  227   7.126   3.149   5.312  0.6459  1.6249  0.0989
    9bbb     H8  228   7.158   3.109   5.490  0.9509  2.2566 -0.4349
    9bbb     C5  229   6.961   3.072   5.431  0.0866  0.3642 -0.0566
    9bbb     H9  230   6.918   3.085   5.531 -0.0287 -0.0835 -0.0447
    9bbb    H10  231   6.891   3.109   5.355 -1.1024  1.7640  1.6292
    9bbb     C6  232   6.939   3.394   5.636  0.0077 -0.5672 -0.3442
    9bbb    H11  233   6.949   3.496   5.598  1.4087 -0.5094  0.1213
    9bbb    H12  234   6.845   3.350   5.602  0.8706 -2.7748 -0.0429
    9bbb     C7  235   6.977   2.927   5.409  0.2605 -1.0807  0.4949
    9bbb     C8  236   6.924   3.401   5.789  0.2261 -0.7048 -0.5241
    9bbb     O1  237   7.085   2.872   5.405 -0.1979 -0.2070 -0.0072
    9bbb     O2  238   7.003   3.352   5.866  0.3931 -0.7714 -0.1150
    9bbb     N4  239   6.907   3.406   5.192 -1.0518  0.4971 -0.2002
    9bbb    H21  240   6.851   3.432   5.273 -0.9396  0.3931 -0.0901
   10bbb     C1  241   6.871   2.967   5.800 -0.0326  0.2160  0.5719
   10bbb     H1  242   6.910   3.068   5.819  1.0322 -0.3849  1.7996
   10bbb     H2  243   6.834   2.944   5.700  0.0998 -1.9120  0.9800
   10bbb     C2  244   6.742   2.956   5.888 -0.0085 -0.0740  0.2720
   10bbb     H3  245   6.667   3.026   5.849  0.6529 -0.6931 -2.3169
   10bbb     H4  246   6.699   2.858   5.867  1.1673 -0.3453 -0.9966
   10bbb     N1  247   6.979   2.866   5.827 -0.1976 -0.3773  0.0404
   10bbb     C3  248   7.101   2.902   5.750 -0.0952 -0.1640  0.0075
   10bbb     H5  249   7.075   2.990   5.689  0.8314  0.7846  0.9474
   10bbb     H6  250   7.125   2.823   5.679 -3.8541  0.7518 -2.6415
   10bbb     C4  251   6.937   2.727   5.810 -0.3587  0.1587  0.1157
   10bbb     H7  252   6.853   2.711   5.879  1.5616  0.6627  2.7408
   10bbb     H8  253   6.917   2.700   5.706 -2.4643 -2.8475  1.1704
   10bbb     C5  254   7.038   2.625   5.869 -0.6637  0.4740  0.0715
   10bbb     H9  255   7.140   2.663   5.876 -0.2956 -0.7140  1.7429
   10bbb    H10  256   7.015   2.601   5.974 -2.6993  0.1195 -0.4123
   10bbb     C6  257   7.216   2.943   5.838  0.8070  0.5352 -0.1409
   10bbb    H11  258   7.178   3.013   5.913 -0.6153 -0.4609  0.0936
   10bbb    H12  259   7.250   2.847   5.879  2.1332  0.0006 -2.3138
   10bbb     C7  260   7.042   2.495   5.798  0.3652  0.0784  0.5342
   10bbb     C8  261   7.329   2.985   5.753  0.3469  0.6798  0.1691
   10bbb     O1  262   6.946   2.443   5.745  0.4990 -0.1920  0.2849
   10bbb     O2  263   7.409   2.906   5.703 -0.4991  0.2245  0.1867
   10bbb     N4  264   6.766   2.966   6.031  0.3001 -0.0660  0.1569
   10bbb    H21  265   6.840   3.024   6.069 -0.0865 -0.6757  1.9291
   11bbb     C1  266   7.427   3.203   6.265  0.7067  0.0040 -0.1442
   11bbb     H1  267   7.488   3.115   6.284  1.1109  0.6910  1.9311
   11bbb     H2  268   7.453   3.280   6.338  0.7893 -0.9520  0.8433
   11bbb     C2  269   7.276   3.165   6.300  0.4057 -0.4095 -0.2129
   11bbb     H3  270   7.286   3.138   6.405  0.7420 -1.8091 -0.5770
   11bbb     H4  271   7.213   3.254   6.285 -1.9084 -1.6615  1.4238
   11bbb     N1  272   7.434   3.253   6.125 -0.1769  0.8366  0.0041
   11bbb     C3  273   7.568   3.233   6.062  0.0237 -0.3524 -0.0741
   11bbb     H5  274   7.654   3.263   6.123  0.4746 -0.7783 -0.4890
   11bbb     H6  275   7.583   3.290   5.970  0.4845 -0.2933  0.0348
   11bbb     C4  276   7.398   3.393   6.114 -0.4002 -0.5271 -0.0724
   11bbb     H7  277   7.316   3.413   6.185 -0.5744 -1.9590  0.1546
   11bbb     H8  278   7.477   3.466   6.133  0.9827 -0.6508 -4.3504
   11bbb     C5  279   7.335   3.408   5.970 -0.2142  0.4286 -0.1848
   11bbb     H9  280   7.392   3.364   5.887 -0.2304  1.5265 -0.8041
   11bbb    H10  281   7.239   3.355   5.974 -0.8779  1.6196  3.5637
   11bbb     C6  282   7.587   3.080   6.028  0.5725  0.3477 -0.5788
   11bbb    H11  283   7.571   3.020   6.118  0.0148  1.7338  0.2761
   11bbb    H12  284   7.505   3.052   5.962 -2.6995 -0.6595  3.4875
   11bbb     C7  285   7.321   3.548   5.927 -0.6735  0.3734 -0.1564
   11bbb     C8  286   7.714   3.041   5.952  0.0761  0.2997  0.5749
   11bbb     O1  287   7.404   3.631   5.959 -0.1626 -0.0180 -0.5784
   11bbb     O2  288   7.797   3.116   5.907  0.0456 -0.3923  0.6860
   11bbb     N4  289   7.215   3.060   6.217 -0.3626  0.2554 -0.6126
   11bbb    H21  290   7.136   3.074   6.154  0.3609  0.3485 -1.5144
   12bbb     C1  291   6.551   2.243   5.429 -0.5561  0.2961 -0.2120
   12bbb     H1  292   6.641   2.294   5.466 -1.4014  0.9709  0.9837
   12bbb     H2  293   6.519   2.308   5.346 -0.6840  0.8994  0.3069
   12bbb     C2  294   6.446   2.241   5.542 -0.5266  0.1261 -0.6114
   12bbb     H3  295   6.472   2.179   5.628 -1.8548  0.4066  0.0210
   12bbb     H4  296   6.438   2.341   5.586 -1.4851  0.1140 -0.7302
   12bbb     N1  297   6.596   2.111   5.385  0.3627  0.1088  0.1971
   12bbb     C3  298   6.685   2.059   5.489  0.3766  0.5865  0.6962
   12bbb     H5  299   6.644   2.061   5.590 -2.2750 -0.1860 -0.2658
   12bbb     H6  300   6.776   2.119   5.495  0.7097  0.6338 -2.6671
   12bbb     C4  301   6.652   2.114   5.246  0.3953  0.1480 -0.5334
   12bbb     H7  302   6.728   2.193   5.239  0.0707  0.5179 -0.0099
   12bbb     H8  303   6.696   2.018   5.217  0.9757  0.4587 -0.7034
   12bbb     C5  304   6.537   2.136   5.148 -0.1426 -0.0592  0.5347
   12bbb     H9  305   6.448   2.075   5.167  0.7172 -1.8063 -0.7671
   12bbb    H10  306   6.499   2.239   5.153  0.0338  0.0170  0.3439
   12bbb     C6  307   6.711   1.915   5.471  0.0475  0.6901 -0.5511
   12bbb    H11  308   6.722   1.875   5.370  2.2882 -1.1175  0.3112
   12bbb    H12  309   6.807   1.884   5.513 -0.5613 -0.0215  0.3783
   12bbb     C7  310   6.574   2.104   5.007 -0.4985  0.5279 -0.3411
   12bbb     C8  311   6.609   1.825   5.535  0.4584  0.5534 -0.0446
   12bbb     O1  312   6.611   2.183   4.927 -0.1000  0.8243  0.2819
   12bbb     O2  313   6.619   1.746   5.629 -0.1839 -0.1728  0.4513
   12bbb     N4  314   6.306   2.216   5.498 -0.2871  0.7048  0.0781
   12bbb    H21  315   6.270   2.255   5.412 -0.7519 -0.0415 -0.0717
   13bbb     C1  316   5.997   2.625   5.144  0.4936 -0.6822 -0.5960
   13bbb     H1  317   6.033   2.521   5.134 -1.5319 -1.5085  0.2000
   13bbb     H2  318   6.090   2.682   5.141 -0.4213  1.1439  1.9491
   13bbb     C2  319   5.947   2.651   5.289  0.6701 -0.7095 -0.1002
   13bbb     H3  320   5.991   2.742   5.334  2.0977 -1.9196  1.0577
   13bbb     H4  321   5.838   2.665   5.291  0.8564  2.3458 -2.6837
   13bbb     N1  322   5.897   2.676   5.054 -0.8426  0.5244  0.1132
   13bbb     C3  323   5.912   2.608   4.924  0.8833 -0.1523  0.0620
   13bbb     H5  324   6.020   2.601   4.907  0.8565 -2.4488  0.5595
   13bbb     H6  325   5.875   2.674   4.845  3.2807  0.9931 -0.2033
   13bbb     C4  326   5.921   2.821   5.041  0.0229  0.5805 -0.5643
   13bbb     H7  327   5.935   2.870   5.138 -0.8735 -0.9893  0.4069
   13bbb     H8  328   6.010   2.838   4.979  0.9372  2.5854  1.1990
   13bbb     C5  329   5.804   2.886   4.959 -0.6290 -0.6641 -0.6302
   13bbb     H9  330   5.825   2.878   4.852 -0.0185  1.5793 -0.7308
   13bbb    H10  331   5.709   2.839   4.987 -0.6806 -1.1135 -1.5326
   13bbb     C6  332   5.847   2.469   4.926 -0.2985 -0.2121 -0.0051
   13bbb    H11  333   5.907   2.395   4.980 -1.2877  0.5511  2.2874
   13bbb    H12  334   5.746   2.467   4.970 -0.9040 -0.0168 -1.3479
   13bbb     C7  335   5.794   3.035   4.988  0.9291  0.1402 -0.6532
   13bbb     C8  336   5.837   2.412   4.792  0.5849  0.3443 -0.3497
   13bbb     O1  337   5.890   3.105   5.003 -0.5811  0.1501  0.0992
   13bbb     O2  338   5.868   2.462   4.688  0.6074  0.1451 -0.3035
   13bbb     N4  339   5.989   2.551   5.387 -0.2683  0.7100  0.1603
   13bbb    H21  340   6.060   2.483   5.365 -1.7146 -0.8774  0.1706
   14ccc     N1  341   5.865   3.846   5.456  0.2615 -0.6059 -0.3887
   14ccc     H4  342   5.798   3.771   5.468  0.8600 -1.3003 -1.2572
   14ccc     C3  343   5.822   3.973   5.516 -0.1401  0.0201 -0.4518
   14ccc     H5  344   5.892   3.990   5.599  2.0266  1.4842 -2.4421
   14ccc     C4  345   5.682   3.974   5.575  0.3642  0.1265 -0.8807
   14ccc     H6  346   5.837   4.058   5.448 -2.2733 -0.6126 -1.7897
   14ccc     H7  347   5.630   3.998   5.482 -1.0993  0.3512 -0.0349
   14ccc     H8  348   5.666   4.061   5.641  0.9396  0.3414 -1.0156
   14ccc     N2  349   5.646   3.842   5.640 -0.0092  0.1329 -0.6275
   14ccc     C5  350   5.501   3.837   5.677 -0.5131 -0.2726 -0.2959
   14ccc     C6  351   5.730   3.780   5.741 -0.5373 -1.0006  0.3869
   14ccc     H9  352   5.700   3.677   5.764 -0.1786 -1.1983 -0.0178
   14ccc     C7  353   5.736   3.867   5.871  0.4603 -0.2077  0.1460
   14ccc    H10  354   5.825   3.757   5.692 -1.0274  0.8939 -1.6290
   14ccc    H11  355   5.640   3.866   5.924  0.3090 -0.5358 -0.1323
   14ccc    H12  356   5.750   3.974   5.850 -1.8967  0.0662 -0.3504
   14ccc     C8  357   5.843   3.811   5.955  0.4069 -0.3188  0.5032
   14ccc     O2  358   5.826   3.767   6.069 -0.1945 -0.0747 -0.5258
   14ccc     O3  359   5.957   3.793   5.913 -0.1468 -0.8098 -0.3461
   14ccc    H13  360   5.485   3.915   5.752  1.4230 -0.0001 -0.1131
   14ccc    H14  361   5.484   3.740   5.726  1.9715 -1.1054 -0.9271
   14ccc     C9  362   5.407   3.857   5.564 -0.1350  0.4482  0.3209
   14ccc    H15  363   5.440   3.790   5.484  1.6334  1.2631  0.3288
   14ccc    H16  364   5.414   3.960   5.525 -0.1902  0.4336  0.2724
   14ccc    C10  365   5.261   3.827   5.600 -0.6345 -0.4905  0.3830
   14ccc     O4  366   5.206   3.727   5.552  0.0426 -0.4346 -0.3508
   14ccc     O5  367   5.209   3.889   5.689 -0.5373  0.6382 -0.2921
   15ccc     N1  368   5.746   3.650   5.108 -0.5231  0.6479 -0.5050
   15ccc     H4  369   5.735   3.596   5.193 -2.3921  1.1821 -0.3425
   15ccc     C3  370   5.649   3.757   5.070  0.0425  0.4436 -0.5431
   15ccc     H5  371   5.687   3.803   4.978  2.6065 -0.8776 -0.2694
   15ccc     C4  372   5.620   3.846   5.190 -0.5939  0.3844  0.2888
   15ccc     H6  373   5.553   3.713   5.040 -1.1955  1.2555  1.9040
   15ccc     H7  374   5.712   3.900   5.215  0.0185 -0.5208  0.0106
   15ccc     H8  375   5.604   3.781   5.277  1.0523 -0.0995  0.2527
   15ccc     N2  376   5.517   3.944   5.173 -0.9519  0.5565 -0.1933
   15ccc     C5  377   5.384   3.883   5.149 -0.1877 -0.9517  0.0998
   15ccc     C6  378   5.559   4.045   5.071 -0.5019 -0.2825 -0.0413
   15ccc     H9  379   5.569   3.983   4.981  0.6344 -0.2796  0.0678
   15ccc     C7  380   5.695   4.117   5.092 -0.6236  0.7462  0.1072
   15ccc    H10  381   5.481   4.119   5.049 -1.2452 -1.3066 -0.9471
   15ccc    H11  382   5.772   4.042   5.069 -1.2283  0.6996 -1.8802
   15ccc    H12  383   5.697   4.161   5.193  2.0408 -0.5381  0.7197
   15ccc     C8  384   5.707   4.230   4.992 -0.0364 -0.4339  0.4106
   15ccc     O2  385   5.605   4.285   4.947 -0.0870 -0.0812  0.5636
   15ccc     O3  386   5.810   4.254   4.936  0.1625 -0.1605  0.0699
   15ccc    H13  387   5.369   3.807   5.227  0.1115 -0.1196  0.9904
   15ccc    H14  388   5.383   3.838   5.049  1.2403 -1.2063  0.1785
   15ccc     C9  389   5.263   3.982   5.151  0.1163 -0.1886 -0.3687
   15ccc    H15  390   5.258   4.041   5.059 -1.2228 -0.0112 -0.2110
   15ccc    H16  391   5.271   4.047   5.240  2.9846  0.8807 -1.3139
   15ccc    C10  392   5.139   3.893   5.166 -0.0676 -0.1257  0.2346
   15ccc     O4  393   5.081   3.856   5.061 -0.4593 -0.5619 -0.4717
   15ccc     O5  394   5.114   3.848   5.274  0.8475  0.6933  0.6702
   16ccc     N1  395   4.846   3.483   5.736 -0.3412 -0.5489 -0.2648
   16ccc     H4  396   4.865   3.521   5.644  0.3588  0.9079  0.4445
   16ccc     C3  397   4.759   3.562   5.822  0.4181  0.0713  0.2844
   16ccc     H5  398   4.724   3.504   5.908  1.1657 -0.0758  0.4958
   16ccc     C4  399   4.639   3.628   5.749 -0.3691 -0.3139 -0.1763
   16ccc     H6  400   4.829   3.638   5.859  1.4969 -1.6413  1.9028
   16ccc     H7  401   4.580   3.670   5.831  1.6510  0.4473  0.9843
   16ccc     H8  402   4.585   3.545   5.704 -0.8019 -0.3092  0.3202
   16ccc     N2  403   4.680   3.732   5.654 -0.4173  0.1911 -0.3450
   16ccc     C5  404   4.640   3.703   5.512 -0.7047 -0.1905  0.0265
   16ccc     C6  405   4.627   3.864   5.696  0.1550 -0.0064  0.7905
   16ccc     H9  406   4.635   3.927   5.606 -2.0082  0.4090  0.8508
   16ccc     C7  407   4.706   3.926   5.810 -0.4874 -0.4884 -0.0614
   16ccc    H10  408   4.521   3.868   5.721  0.4758  2.8589  2.0406
   16ccc    H11  409   4.721   3.872   5.904  0.1817  1.3977  0.9898
   16ccc    H12  410   4.655   4.014   5.852  2.1951  1.1521  0.0320
   16ccc     C8  411   4.846   3.978   5.773  0.0677 -0.4704 -0.3297
   16ccc     O2  412   4.872   4.098   5.743 -0.2165 -0.2262 -0.2381
   16ccc     O3  413   4.943   3.895   5.768  0.0347  0.3716  0.1738
   16ccc    H13  414   4.664   3.790   5.450 -0.1079 -0.4916 -0.1701
   16ccc    H14  415   4.533   3.679   5.507 -1.2369  1.9031  0.5042
   16ccc     C9  416   4.722   3.596   5.441  0.4758 -0.4693  0.6351
   16ccc    H15  417   4.674   3.573   5.345 -1.0930  0.2196  1.2285
   16ccc    H16  418   4.722   3.506   5.503  0.7976 -0.4662  0.6458
   16ccc    C10  419   4.870   3.640   5.415  0.2766 -0.4770  0.7389
   16ccc     O4  420   4.908   3.664   5.304  0.5085  0.6612 -0.5851
   16ccc     O5  421   4.952   3.636   5.501  0.0129 -0.2236 -0.1370
   17ccc     N1  422   5.315   3.082   5.877 -0.0532  0.2006 -0.3779
   17ccc     H4  423   5.237   3.120   5.929 -0.2137 -0.8560  0.2035
   17ccc     C3  424   5.445   3.125   5.936 -0.1042  0.2718  0.0304
   17ccc     H5  425   5.459   3.060   6.023  2.6686 -1.1877 -1.3780
   17ccc     C4  426   5.436   3.274   5.987  0.2892  0.2897  0.2487
   17ccc     H6  427   5.532   3.106   5.872 -0.2714  1.9532 -0.7472
   17ccc     H7  428   5.499   3.293   6.074  1.1396  0.5705 -0.4221
   17ccc     H8  429   5.333   3.280   6.025 -0.1870 -0.7534 -0.8224
   17ccc     N2  430   5.465   3.370   5.882  0.3805  0.3365 -0.0311
   17ccc     C5  431   5.398   3.500   5.899 -0.1502  0.1529 -0.2043
   17ccc     C6  432   5.610   3.386   5.842 -0.1723 -0.4792 -0.3104
   17ccc     H9  433   5.671   3.299   5.812  0.4231  0.6449 -2.5742
   17ccc     C7  434   5.695   3.467   5.947 -0.0423 -0.0718  0.4073
   17ccc    H10  435   5.617   3.456   5.757  0.1764  0.4997  0.5040
   17ccc    H11  436   5.667   3.430   6.046  0.0862 -1.3452 -0.0140
   17ccc    H12  437   5.654   3.569   5.945 -0.8483 -0.3885 -0.9331
   17ccc     C8  438   5.846   3.477   5.937 -0.3597  0.3238 -0.1809
   17ccc     O2  439   5.894   3.490   5.825 -0.7272 -0.2571  0.1951
   17ccc     O3  440   5.919   3.467   6.036 -0.3323 -0.3087 -0.0267
   17ccc    H13  441   5.419   3.557   5.808 -1.0776 -0.5992 -0.9051
   17ccc    H14  442   5.446   3.554   5.982  0.7692 -1.2190  0.2050
   17ccc     C9  443   5.243   3.496   5.914 -0.0654 -0.0544  0.3368
   17ccc    H15  444   5.216   3.455   6.012 -0.8584 -0.3060  0.0242
   17ccc    H16  445   5.198   3.436   5.834 -1.7779 -0.6767  1.6901
   17ccc    C10  446   5.177   3.637   5.921  0.2701  0.3278  0.4447
   17ccc     O4  447   5.232   3.728   5.983  0.0206  0.3421 -0.4175
   17ccc     O5  448   5.083   3.664   5.852  0.2155  0.1827 -0.0481
   18ccc     N1  449   7.072   2.456   4.629  0.0516 -0.6324 -0.2490
   18ccc     H4  450   7.149   2.523   4.626 -0.6334  0.2807  1.3688
   18ccc     C3  451   7.101   2.339   4.703 -0.5665  0.4718 -0.2596
   18ccc     H5  452   7.014   2.327   4.769 -0.4361  1.5352  0.1143
   18ccc     C4  453   7.224   2.358   4.789 -0.3644 -0.4652 -0.7159
   18ccc     H6  454   7.108   2.247   4.643  0.4761 -0.5126  1.2868
   18ccc     H7  455   7.257   2.269   4.845  0.0763 -0.1250 -0.4203
   18ccc     H8  456   7.184   2.424   4.867  0.3489 -1.8128  0.8510
   18ccc     N2  457   7.339   2.415   4.722  0.4733 -0.1970 -0.2676
   18ccc     C5  458   7.408   2.330   4.622  0.2552 -0.2607 -0.8902
   18ccc     C6  459   7.434   2.473   4.822 -0.0928  0.2846 -0.0510
   18ccc     H9  460   7.453   2.399   4.900 -1.9635  0.8969  1.0706
   18ccc     C7  461   7.378   2.604   4.895  0.0320  0.2529  1.1220
   18ccc    H10  462   7.533   2.498   4.781  1.7302 -1.6472  2.8257
   18ccc    H11  463   7.304   2.577   4.971 -1.9228 -1.0455 -1.1181
   18ccc    H12  464   7.327   2.671   4.824  1.4677  0.7053  0.4618
   18ccc     C8  465   7.495   2.678   4.964  0.1123 -0.2237 -0.0499
   18ccc     O2  466   7.558   2.770   4.911  0.1339 -0.1107 -0.2500
   18ccc     O3  467   7.524   2.654   5.081  0.5427  0.7077 -0.0081
   18ccc    H13  468   7.349   2.263   4.559 -0.2164 -0.0509 -0.6797
   18ccc    H14  469   7.474   2.263   4.677 -1.9191 -0.2821  1.9723
   18ccc     C9  470   7.498   2.416   4.523  0.3191 -0.6097  0.7909
   18ccc    H15  471   7.573   2.466   4.585 -1.6209  0.8064  2.1051
   18ccc    H16  472   7.436   2.500   4.488 -1.4703 -2.3043 -0.3366
   18ccc    C10  473   7.554   2.334   4.405  0.2375 -0.3472 -0.6949
   18ccc     O4  474   7.598   2.220   4.431 -0.0774 -0.3739 -0.4372
   18ccc     O5  475   7.539   2.376   4.292 -0.0256  0.4023 -0.1430
   19ccc     N1  476   7.609   2.750   4.553 -0.1712  0.1042  0.5344
   19ccc     H4  477   7.593   2.712   4.645  0.8999  0.6326  0.9670
   19ccc     C3  478   7.750   2.773   4.515  0.2969  0.4826 -0.3717
   19ccc     H5  479   7.766   2.828   4.422  1.2054  2.1453  0.7291
   19ccc     C4  480   7.824   2.638   4.496 -0.0480  0.2937 -0.3276
   19ccc     H6  481   7.805   2.824   4.594 -0.3926 -0.8437  1.0326
   19ccc     H7  482   7.900   2.650   4.418 -0.2390 -0.7804 -0.6973
   19ccc     H8  483   7.756   2.561   4.458  1.5175 -0.5964 -1.4202
   19ccc     N2  484   7.899   2.584   4.614  0.4572  0.1953 -0.0812
   19ccc     C5  485   7.816   2.583   4.735 -0.1532  0.4537 -0.1915
   19ccc     C6  486   7.996   2.471   4.589 -0.0898 -0.4320 -0.3049
   19ccc     H9  487   8.050   2.483   4.494  0.2379 -4.0402 -0.7234
   19ccc     C7  488   7.902   2.347   4.570 -0.1911 -0.3243  0.9014
   19ccc    H10  489   8.072   2.459   4.666 -2.2610 -0.1099  2.0113
   19ccc    H11  490   7.811   2.383   4.521  1.7614  1.7898 -1.4181
   19ccc    H12  491   7.869   2.304   4.666  0.4641 -0.6463  0.9957
   19ccc     C8  492   7.973   2.255   4.475  0.1373 -0.7788  0.5764
   19ccc     O2  493   8.077   2.203   4.507 -0.1332 -0.0899  0.4844
   19ccc     O3  494   7.931   2.260   4.364 -0.3155 -0.3882 -0.2711
   19ccc    H13  495   7.737   2.508   4.741  1.0382 -1.0659 -2.3427
   19ccc    H14  496   7.775   2.682   4.758  1.0668  0.8156  0.5504
   19ccc     C9  497   7.900   2.554   4.866  0.0567  0.2026  0.6186
   19ccc    H15  498   7.988   2.619   4.874  0.0961  0.8317 -3.0948
   19ccc    H16  499   7.941   2.452   4.867 -0.0317  0.0879 -1.8027
   19ccc    C10  500   7.820   2.560   4.994 -0.5456  0.0698  0.1693
   19ccc     O4  501   7.748   2.461   5.026 -0.3704 -0.4669 -0.1255
   19ccc     O5  502   7.817   2.653   5.072  0.6419 -0.1519 -0.4034
   20ccc     N1  503   6.855   2.857   5.416 -0.3612 -0.0100  0.0266
   20ccc     H4  504   6.779   2.921   5.437  2.3452  2.4222  3.4389
   20ccc     C3  505   6.853   2.716   5.386  0.0572 -0.1340  0.1488
   20ccc     H5  506   6.869   2.702   5.279 -0.2424 -2.6160  0.3464
   20ccc     C4  507   6.722   2.654   5.437  0.2979  0.7867 -0.0137
   20ccc     H6  508   6.935   2.669   5.442 -0.4206  0.5086  1.4327
   20ccc     H7  509   6.691   2.690   5.536 -2.1959 -1.7921  0.2712
   20ccc     H8  510   6.746   2.548   5.453  0.7405  1.0388  1.1377
   20ccc     N2  511   6.604   2.680   5.356  0.1969  0.8307 -0.6432
   20ccc     C5  512   6.481   2.626   5.417  0.2005  0.5357 -0.3310
   20ccc     C6  513   6.625   2.655   5.203 -0.1665 -0.0839  0.1755
   20ccc     H9  514   6.536   2.682   5.145  0.9931 -1.2865 -2.3188
   20ccc     C7  515   6.671   2.514   5.167  0.0040  0.0757 -0.4027
   20ccc    H10  516   6.701   2.727   5.170 -0.8626  0.0183 -1.2723
   20ccc    H11  517   6.604   2.448   5.223  0.1313  1.2087  1.1646
   20ccc    H12  518   6.775   2.496   5.196 -0.7285 -2.6085  0.8205
   20ccc     C8  519   6.657   2.495   5.014  0.9797 -0.1312 -0.0433
   20ccc     O2  520   6.738   2.435   4.949 -0.3384 -0.2184  0.5307
   20ccc     O3  521   6.557   2.526   4.952  0.8245 -0.2484 -0.3526
   20ccc    H13  522   6.470   2.680   5.512 -0.3846 -2.5396  1.4904
   20ccc    H14  523   6.491   2.520   5.442 -0.9474  0.3752 -0.5373
   20ccc     C9  524   6.347   2.637   5.343  0.5301 -0.4843 -0.5282
   20ccc    H15  525   6.340   2.731   5.288  0.4638  0.0880  0.4414
   20ccc    H16  526   6.261   2.640   5.411  0.0213 -0.4567 -1.1580
   20ccc    C10  527   6.321   2.506   5.258  0.4140 -0.4357  0.1578
   20ccc     O4  528   6.266   2.410   5.305  0.3114 -0.4882 -0.5302
   20ccc     O5  529   6.319   2.512   5.136 -0.1335  0.0201  0.1765
   21ccc     N1  530   6.810   3.469   5.822 -0.3494 -0.4104 -0.1386
   21ccc     H4  531   6.759   3.518   5.749 -0.8666  1.0788  1.1519
   21ccc     C3  532   6.771   3.502   5.955 -0.4483  0.5162 -0.2173
   21ccc     H5  533   6.865   3.520   6.009  1.1291  1.7844 -3.2019
   21ccc     C4  534   6.688   3.397   6.041 -0.4887  0.1082  0.0510
   21ccc     H6  535   6.720   3.599   5.964  0.0190  0.8892 -1.4349
   21ccc     H7  536   6.674   3.439   6.142  3.6723  2.5510 -0.1149
   21ccc     H8  537   6.754   3.311   6.059 -0.8522 -0.4078 -1.0033
   21ccc     N2  538   6.566   3.344   5.975  0.4832  0.5651  0.5867
   21ccc     C5  539   6.501   3.236   6.052 -0.1889 -0.1396  0.7979
   21ccc     C6  540   6.482   3.455   5.924  1.1609 -0.2856  0.1370
   21ccc     H9  541   6.538   3.528   5.865  1.8112 -0.4409  0.5537
   21ccc     C7  542   6.397   3.532   6.030  0.1755 -0.0663 -0.1216
   21ccc    H10  543   6.405   3.409   5.861  0.8307 -0.4122  0.6228
   21ccc    H11  544   6.468   3.586   6.094 -2.0436  2.2167  0.5693
   21ccc    H12  545   6.345   3.464   6.098 -2.5678  1.8447 -0.1851
   21ccc     C8  546   6.305   3.626   5.949 -0.4338  0.0546  0.8844
   21ccc     O2  547   6.184   3.607   5.951 -0.4142 -0.5161 -0.6767
   21ccc     O3  548   6.338   3.743   5.919  0.1885  0.6424  0.3804
   21ccc    H13  549   6.481   3.269   6.155  0.0964  0.3390  0.7031
   21ccc    H14  550   6.584   3.166   6.068  0.9448  1.2314  1.1441
   21ccc     C9  551   6.377   3.177   5.988 -0.3962 -0.2252  1.0596
   21ccc    H15  552   6.355   3.071   6.008 -1.9755  0.1249  1.3239
   21ccc    H16  553   6.375   3.176   5.878 -0.0136 -4.1594  0.9241
   21ccc    C10  554   6.250   3.241   6.041  0.0885 -0.4090 -0.9338
   21ccc     O4  555   6.191   3.211   6.146 -0.3511  0.1159 -0.1227
   21ccc     O5  556   6.173   3.294   5.961  0.5558 -0.3232  0.2510
   22ccc     N1  557   7.164   2.436   5.798 -0.9003  0.0544 -0.5528
   22ccc     H4  558   7.234   2.498   5.837 -0.8855  0.0966 -0.6463
   22ccc     C3  559   7.199   2.331   5.699  0.0574 -0.5398 -0.2661
   22ccc     H5  560   7.119   2.257   5.697 -0.2169 -0.2217 -1.9045
   22ccc     C4  561   7.336   2.262   5.735  0.3168 -0.1150 -0.1460
   22ccc     H6  562   7.206   2.374   5.599  1.2194 -0.5861 -0.2210
   22ccc     H7  563   7.336   2.216   5.835 -0.4590 -2.7451 -1.2514
   22ccc     H8  564   7.407   2.341   5.762 -0.0808 -0.5269  2.3691
   22ccc     N2  565   7.386   2.161   5.636  0.2661 -0.0694  0.0503
   22ccc     C5  566   7.501   2.091   5.691  0.1696  0.3556 -0.0910
   22ccc     C6  567   7.425   2.219   5.503 -0.0948 -0.7336 -0.0107
   22ccc     H9  568   7.448   2.139   5.432  1.8640 -1.1840  1.0271
   22ccc     C7  569   7.545   2.312   5.497  0.1304  0.6162 -0.2496
   22ccc    H10  570   7.336   2.267   5.460 -0.9008  0.0981  2.3849
   22ccc    H11  571   7.622   2.284   5.570 -0.6352  1.0755  0.7402
   22ccc    H12  572   7.517   2.413   5.528  0.3096  0.2008  1.3649
   22ccc     C8  573   7.610   2.316   5.355  0.8444 -0.2670 -0.4433
   22ccc     O2  574   7.710   2.260   5.322  0.3431 -0.0413  0.3647
   22ccc     O3  575   7.552   2.383   5.266 -0.1208 -0.1774 -0.3672
   22ccc    H13  576   7.570   2.151   5.752 -0.8822 -0.1183  1.6428
   22ccc    H14  577   7.554   2.059   5.601 -1.0877 -0.7594 -0.4673
   22ccc     C9  578   7.466   1.959   5.758 -0.5827 -0.4954 -0.4851
   22ccc    H15  579   7.380   1.916   5.705 -1.5181  1.2256 -0.4299
   22ccc    H16  580   7.432   1.981   5.860  0.4399 -1.5585  0.1099
   22ccc    C10  581   7.593   1.873   5.770 -0.4605 -0.5505 -0.1482
   22ccc     O4  582   7.710   1.906   5.802  0.6709  0.1378 -0.2168
   22ccc     O5  583   7.596   1.765   5.714  0.2941 -0.4569  0.2048
   23ccc     N1  584   7.343   3.120   5.726  0.4288  0.5392 -0.1407
   23ccc     H4  585   7.272   3.174   5.774 -1.2918 -2.3635  0.8406
   23ccc     C3  586   7.406   3.167   5.602 -0.1303 -0.1411 -0.1187
   23ccc     H5  587   7.380   3.102   5.517 -1.5033  0.0956  0.0927
   23ccc     C4  588   7.553   3.193   5.601 -0.0964  0.0822  0.9632
   23ccc     H6  589   7.355   3.259   5.573 -0.5946 -0.6379 -0.9317
   23ccc     H7  590   7.601   3.097   5.624 -0.6748 -0.7462 -1.0466
   23ccc     H8  591   7.579   3.251   5.690 -0.9578  2.2437 -0.1084
   23ccc     N2  592   7.610   3.246   5.474 -0.4065 -0.2128  0.1668
   23ccc     C5  593   7.603   3.150   5.357  0.5633 -0.5185  0.8504
   23ccc     C6  594   7.577   3.388   5.438  0.1321 -0.1385  0.7693
   23ccc     H9  595   7.630   3.420   5.348 -1.1146  0.1120  0.1112
   23ccc     C7  596   7.603   3.492   5.554  0.1295 -0.1541 -0.3774
   23ccc    H10  597   7.470   3.388   5.419  0.3773 -1.1378 -0.7343
   23ccc    H11  598   7.710   3.487   5.577  0.7809 -1.5222 -3.2761
   23ccc    H12  599   7.545   3.476   5.646  0.6942 -1.3799 -0.2249
   23ccc     C8  600   7.595   3.634   5.500 -0.1472 -0.5423 -0.9976
   23ccc     O2  601   7.588   3.733   5.578 -0.0274  0.1910  0.4662
   23ccc     O3  602   7.606   3.671   5.382  0.3513  0.1489 -0.2757
   23ccc    H13  603   7.644   3.202   5.270 -0.9751 -1.8973 -0.7921
   23ccc    H14  604   7.502   3.123   5.323  0.4022  1.3807 -0.3304
   23ccc     C9  605   7.680   3.020   5.380 -0.2363 -0.2924  0.2792
   23ccc    H15  606   7.648   2.968   5.471 -1.1591  2.4635  1.6398
   23ccc    H16  607   7.784   3.056   5.387 -0.0086 -0.9708  0.4208
   23ccc    C10  608   7.682   2.927   5.255  0.3048 -0.7215  0.3081
   23ccc     O4  609   7.573   2.910   5.198 -0.2336 -0.5668 -0.2158
   23ccc     O5  610   7.790   2.890   5.205 -0.4235 -0.3543 -0.0882
   24ccc     N1  611   7.226   3.581   5.831  0.1912 -0.2932 -0.8359
   24ccc     H4  612   7.148   3.517   5.825 -0.1018 -0.2864  1.5835
   24ccc     C3  613   7.224   3.711   5.757 -0.4802  0.2938 -0.1652
   24ccc     H5  614   7.215   3.793   5.828  0.2448 -2.5284  3.4630
   24ccc     C4  615   7.101   3.720   5.662  0.0736  0.2572 -0.9086
   24ccc     H6  616   7.317   3.726   5.701 -0.4274  2.5010  0.4323
   24ccc     H7  617   7.007   3.698   5.715  0.3463 -0.9593 -0.9047
   24ccc     H8  618   7.114   3.639   5.589  0.0984  0.4563 -1.1227
   24ccc     N2  619   7.082   3.852   5.597 -0.2832 -0.3806  1.1544
   24ccc     C5  620   7.023   3.964   5.674  0.0423  0.2060 -0.4779
   24ccc     C6  621   7.187   3.897   5.502  0.2649 -0.7716 -0.0980
   24ccc     H9  622   7.141   3.972   5.438  0.1125  0.5871  1.5231
   24ccc     C7  623   7.236   3.792   5.402  0.6447 -0.9963 -0.1330
   24ccc    H10  624   7.272   3.948   5.551  0.4478  1.6770 -2.6857
   24ccc    H11  625   7.151   3.743   5.354  0.0277 -0.2099  0.1325
   24ccc    H12  626   7.310   3.720   5.438  1.0303 -1.7808 -2.3674
   24ccc     C8  627   7.321   3.857   5.292 -0.4515 -0.1732  0.6960
   24ccc     O2  628   7.425   3.920   5.318  0.2075 -0.0777 -0.2022
   24ccc     O3  629   7.286   3.838   5.173 -0.2394  0.3804 -0.2953
   24ccc    H13  630   7.057   4.059   5.633 -0.5374  0.5142 -0.2522
   24ccc    H14  631   7.062   3.952   5.776 -2.5239 -2.6971  0.3019
   24ccc     C9  632   6.870   3.941   5.692  0.4805  0.3810 -0.2327
   24ccc    H15  633   6.837   3.865   5.763  1.1934 -1.0467 -1.3742
   24ccc    H16  634   6.816   3.918   5.599  0.5381  0.6819 -0.3430
   24ccc    C10  635   6.812   4.078   5.740  0.3803  0.2813 -0.2161
   24ccc     O4  636   6.828   4.112   5.854 -0.4318  0.4466 -0.3901
   24ccc     O5  637   6.751   4.156   5.665 -0.1188  0.2996  0.4595
   25ccc     N1  638   7.725   2.907   5.933  0.2116  0.4577  0.1252
   25ccc     H4  639   7.656   2.846   5.975 -0.2440  1.6252  1.1117
   25ccc     C3  640   7.833   2.849   5.854  0.3852  0.1246  0.6270
   25ccc     H5  641   7.840   2.878   5.748 -0.3902 -1.1360  0.2017
   25ccc     C4  642   7.829   2.693   5.856  0.4398  0.3904  0.8077
   25ccc     H6  643   7.924   2.889   5.899  0.4741 -1.8524  2.3478
   25ccc     H7  644   7.724   2.666   5.844  0.8123 -1.0210  0.5492
   25ccc     H8  645   7.851   2.663   5.959 -0.0965 -0.5301  0.6659
   25ccc     N2  646   7.914   2.624   5.760  0.2743 -0.4595 -0.0918
   25ccc     C5  647   7.893   2.641   5.613  0.1128  0.4824  0.1796
   25ccc     C6  648   7.936   2.481   5.802  0.8278 -0.4595 -0.4270
   25ccc     H9  649   8.030   2.447   5.756  0.8272  0.0799 -0.8419
   25ccc     C7  650   7.816   2.389   5.769 -0.1438  0.4416 -0.1921
   25ccc    H10  651   7.945   2.488   5.911  4.1910 -2.0179 -0.4855
   25ccc    H11  652   7.805   2.371   5.661  1.6312 -0.0004 -0.3313
   25ccc    H12  653   7.719   2.427   5.804 -0.8855  0.7144 -2.3401
   25ccc     C8  654   7.835   2.251   5.832 -0.3907  0.3768  0.5723
   25ccc     O2  655   7.932   2.181   5.805 -0.2910 -0.4013 -0.0418
   25ccc     O3  656   7.755   2.204   5.911  0.5131  0.2371 -0.2078
   25ccc    H13  657   7.952   2.568   5.557 -0.9015  0.1782 -0.5166
   25ccc    H14  658   7.939   2.738   5.591  0.2522  0.1271 -1.1662
   25ccc     C9  659   7.741   2.651   5.580  0.1886  0.1515  0.0258
   25ccc    H15  660   7.698   2.746   5.612 -0.9076 -0.7226  1.2927
   25ccc    H16  661   7.688   2.567   5.627  3.0204 -1.5760  0.4142
   25ccc    C10  662   7.726   2.637   5.426 -0.7517  0.4257 -0.5962
   25ccc     O4  663   7.617   2.654   5.370 -0.1674 -0.6125 -0.1332
   25ccc     O5  664   7.816   2.612   5.351 -0.4605 -0.1400  0.2847
   26ccc     N1  665   6.563   1.968   4.976 -0.7331  0.0611  0.0057
   26ccc     H4  666   6.552   1.906   5.055  1.5146  1.3762  1.4605
   26ccc     C3  667   6.541   1.916   4.839  0.4498  0.5116 -0.3165
   26ccc     H5  668   6.571   1.983   4.757  0.0932 -1.7908 -2.4531
   26ccc     C4  669   6.396   1.868   4.821 -0.0950  0.5576 -0.4303
   26ccc     H6  670   6.608   1.829   4.834  0.8623  0.2103  4.7378
   26ccc     H7  671   6.378   1.786   4.892 -0.4545  0.7832 -0.2587
   26ccc     H8  672   6.386   1.810   4.729 -0.5013 -1.1824  0.6814
   26ccc     N2  673   6.293   1.979   4.841 -0.2062  0.4764  0.3590
   26ccc     C5  674   6.171   1.934   4.913  0.1070 -0.4084  0.3485
   26ccc     C6  675   6.272   2.064   4.717  0.4116  0.2395  0.5181
   26ccc     H9  676   6.373   2.092   4.687  0.8486 -0.1838  1.5533
   26ccc     C7  677   6.200   2.196   4.737  0.4677  0.4121  0.0559
   26ccc    H10  678   6.226   2.004   4.637  1.5120 -0.3534  0.3110
   26ccc    H11  679   6.103   2.182   4.787 -0.4219 -1.8476 -2.1186
   26ccc    H12  680   6.171   2.248   4.645 -0.1119 -0.2727 -0.1529
   26ccc     C8  681   6.285   2.290   4.825  0.8255 -0.3983 -0.1568
   26ccc     O2  682   6.392   2.331   4.788  0.0981 -0.4276  0.6573
   26ccc     O3  683   6.236   2.337   4.928 -1.1845  0.0619 -0.1169
   26ccc    H13  684   6.134   1.846   4.859  1.9944 -1.3708  0.5250
   26ccc    H14  685   6.097   2.014   4.909 -0.6983 -1.1825 -2.0766
   26ccc     C9  686   6.194   1.893   5.063  0.4084  0.4897 -0.3774
   26ccc    H15  687   6.252   1.975   5.107 -0.0931  0.7211 -0.1322
   26ccc    H16  688   6.255   1.802   5.074  1.2722  1.0370 -0.5468
   26ccc    C10  689   6.066   1.868   5.144  0.0113 -0.1443 -0.0440
   26ccc     O4  690   6.016   1.967   5.187 -0.1460 -0.2030 -0.3608
   26ccc     O5  691   6.001   1.766   5.137 -0.5244  0.2883 -0.2852
   27ccc     N1  692   6.487   1.828   5.468 -0.2637 -0.5203 -0.0697
   27ccc     H4  693   6.490   1.898   5.395  0.7329 -0.7231 -0.2381
   27ccc     C3  694   6.401   1.712   5.460 -0.1141 -0.1022  0.1438
   27ccc     H5  695   6.416   1.634   5.536 -0.9881 -0.1252  0.2982
   27ccc     C4  696   6.399   1.654   5.321  0.3869  0.1458  0.2251
   27ccc     H6  697   6.305   1.759   5.483 -0.5123 -1.2677  0.9498
   27ccc     H7  698   6.506   1.636   5.305  0.3713  0.8660 -0.7645
   27ccc     H8  699   6.360   1.736   5.259 -0.4835  0.3705  1.0545
   27ccc     N2  700   6.306   1.540   5.325 -1.0077  0.3453 -0.0451
   27ccc     C5  701   6.161   1.565   5.339 -0.2919 -0.3523 -0.0457
   27ccc     C6  702   6.349   1.424   5.235  0.6176 -1.0158  0.0235
   27ccc     H9  703   6.456   1.401   5.241  0.9792  0.5660 -0.0744
   27ccc     C7  704   6.317   1.444   5.084 -0.2823 -0.0799  0.8158
   27ccc    H10  705   6.292   1.335   5.267 -2.0238  1.2774  2.2013
   27ccc    H11  706   6.390   1.388   5.024 -0.3626  2.1909 -1.5555
   27ccc    H12  707   6.327   1.550   5.058  0.5430 -0.5067 -0.6683
   27ccc     C8  708   6.186   1.389   5.032 -0.6916 -0.3244 -0.4481
   27ccc     O2  709   6.169   1.271   5.008  0.1719 -0.0725  0.2688
   27ccc     O3  710   6.092   1.460   5.007  0.0371  0.4557 -0.0262
   27ccc    H13  711   6.110   1.580   5.243 -0.2182 -1.1408 -0.2137
   27ccc    H14  712   6.139   1.661   5.386 -0.8791 -0.9566  0.9463
   27ccc     C9  713   6.079   1.456   5.417  0.4255 -0.6248 -0.3607
   27ccc    H15  714   6.091   1.472   5.525 -1.5199 -2.6919  0.2360
   27ccc    H16  715   6.114   1.354   5.397  2.1181 -0.1228 -0.1054
   27ccc    C10  716   5.927   1.461   5.380 -0.0157  0.6213 -1.3100
   27ccc     O4  717   5.892   1.450   5.263  0.2016 -0.0755 -0.3278
   27ccc     O5  718   5.848   1.519   5.460  0.0819  0.2743 -0.2041
   28ccc     N1  719   5.671   3.093   4.978 -0.1935 -0.5067  0.1950
   28ccc     H4  720   5.595   3.028   4.967 -1.1098  0.7658 -1.4703
   28ccc     C3  721   5.640   3.234   5.005  0.3897  0.5802 -0.2950
   28ccc     H5  722   5.640   3.244   5.115  0.8837  0.2761 -0.2619
   28ccc     C4  723   5.502   3.269   4.941  0.6822  0.2350 -0.7644
   28ccc     H6  724   5.714   3.301   4.961  0.3717  1.8662  1.5456
   28ccc     H7  725   5.428   3.198   4.980  0.4404  0.2941 -1.1105
   28ccc     H8  726   5.509   3.258   4.832 -0.3724  0.3394 -0.8550
   28ccc     N2  727   5.465   3.410   4.968 -0.3505  0.1870 -0.2921
   28ccc     C5  728   5.453   3.438   5.114 -0.5983  0.0156  0.2262
   28ccc     C6  729   5.360   3.460   4.879 -0.0903  0.2252  0.0176
   28ccc     H9  730   5.402   3.449   4.779  0.8360  0.5144  0.3598
   28ccc     C7  731   5.304   3.604   4.897 -0.0390  0.0314 -0.2300
   28ccc    H10  732   5.276   3.394   4.901 -0.3766  1.2254  2.1905
   28ccc    H11  733   5.386   3.671   4.868  0.0153  0.3332  0.5890
   28ccc    H12  734   5.274   3.623   5.001  2.2028  1.4253  0.2493
   28ccc     C8  735   5.181   3.626   4.806 -0.7555  0.2581  0.7340
   28ccc     O2  736   5.193   3.607   4.681 -0.2723 -0.6780  0.4716
   28ccc     O3  737   5.087   3.690   4.838 -0.0583 -0.0776  0.4077
   28ccc    H13  738   5.448   3.546   5.136 -1.1454  0.8800 -3.4499
   28ccc    H14  739   5.546   3.400   5.157 -0.4227 -0.5981 -0.6635
   28ccc     C9  740   5.333   3.373   5.185 -0.1443  0.5303  0.4788
   28ccc    H15  741   5.352   3.361   5.292 -1.0710  1.4368  0.7602
   28ccc    H16  742   5.329   3.271   5.145  2.8629  0.4849  0.0607
   28ccc    C10  743   5.190   3.432   5.172  0.1002  0.1441 -0.2355
   28ccc     O4  744   5.153   3.521   5.244 -0.0597 -0.4763 -0.5658
   28ccc     O5  745   5.111   3.381   5.102 -0.1651 -0.1373  0.2786
   29ccc     N1  746   5.797   2.282   4.797  0.4588 -0.3028 -0.5530
   29ccc     H4  747   5.763   2.241   4.883  0.6263 -1.3372 -0.9615
   29ccc     C3  748   5.780   2.191   4.682  0.0615 -0.2951 -0.2966
   29ccc     H5  749   5.686   2.199   4.626  0.6391  1.2910 -1.1038
   29ccc     C4  750   5.801   2.049   4.718  0.2509 -0.1279 -0.4477
   29ccc     H6  751   5.857   2.206   4.605 -1.4658 -0.6896 -1.9759
   29ccc     H7  752   5.899   2.040   4.765 -0.6665 -1.0737  1.3638
   29ccc     H8  753   5.822   1.999   4.622 -2.4105 -2.2008 -0.0745
   29ccc     N2  754   5.693   1.988   4.802  0.2436  0.5026 -0.2764
   29ccc     C5  755   5.754   1.867   4.870  0.2870  0.1449 -0.2291
   29ccc     C6  756   5.563   1.966   4.735  0.3833  0.2206 -0.8236
   29ccc     H9  757   5.492   1.921   4.806  1.8925 -0.7320  0.1241
   29ccc     C7  758   5.574   1.877   4.607 -0.3788 -0.0690  0.7668
   29ccc    H10  759   5.518   2.063   4.711  1.9206  1.0006 -0.6794
   29ccc    H11  760   5.531   1.779   4.627  0.5804 -0.9779 -1.2960
   29ccc    H12  761   5.680   1.867   4.580 -1.3127 -1.2494 -3.1991
   29ccc     C8  762   5.487   1.933   4.495  0.2069 -0.4613  0.3406
   29ccc     O2  763   5.548   2.001   4.412 -0.1656  0.4492  0.2000
   29ccc     O3  764   5.372   1.896   4.479 -0.2030  0.3415  0.3393
   29ccc    H13  765   5.851   1.885   4.919  0.4910  0.3857 -0.7112
   29ccc    H14  766   5.779   1.795   4.790  1.7311 -0.9957  1.1632
   29ccc     C9  767   5.661   1.790   4.972  0.5308 -0.0838 -0.0251
   29ccc    H15  768   5.575   1.748   4.920  1.2836 -0.1430 -1.2644
   29ccc    H16  769   5.616   1.860   5.044 -2.3695 -0.7666 -1.0617
   29ccc    C10  770   5.740   1.686   5.047  0.1284  0.4169 -0.6547
   29ccc     O4  771   5.793   1.587   4.994 -0.1661 -0.3383  0.5031
   29ccc     O5  772   5.743   1.689   5.173 -0.5266 -0.1827 -0.2654
   30SOL     OW  773   4.845   1.712   0.988  0.3085 -0.2920  0.3681
   30SOL    HW1  774   4.832   1.769   1.064 -0.8684 -0.8632  0.6238
   30SOL    HW2  775   4.938   1.691   0.988  0.7920  1.6450  0.2508
   31SOL     OW  776   4.475   1.022   3.940  0.1944  0.6049  0.6186
   31SOL    HW1  777   4.541   1.012   3.871 -1.9562 -0.5612 -1.4242
   31SOL    HW2  778   4.423   1.097   3.913 -1.9301 -1.0747 -0.2511
   32SOL     OW  779   1.377   2.342   0.523 -0.2464  0.1593  0.1318
   32SOL    HW1  780   1.309   2.392   0.478  0.3336  0.6208 -0.2414
   32SOL    HW2  781   1.345   2.252   0.523 -1.3249  0.5196  0.8497
   33SOL     OW  782   0.267   0.803   4.041 -0.0155 -0.2038  0.0222
   33SOL    HW1  783   0.292   0.880   3.991  0.5406 -0.7247 -0.5147
   33SOL    HW2  784   0.171   0.808   4.046  0.0406  0.7417  0.3690
   34SOL     OW  785   3.591   6.040   6.168 -0.1655  0.0027 -0.1117
   34SOL    HW1  786   3.615   5.961   6.216 -0.2782 -0.8070 -1.3544
   34SOL    HW2  787   3.502   6.025   6.139 -0.9403  1.4568  1.3324
   35SOL     OW  788   4.662   4.962   2.943  0.3218 -0.1611  0.7605
   35SOL    HW1  789   4.604   5.037   2.954  0.6026  0.6750 -2.5068
   35SOL    HW2  790   4.611   4.888   2.975 -2.8325  0.4719 -2.1232
   36SOL     OW  791   0.644   2.298   6.010 -0.0411 -0.1340  0.0073
   36SOL    HW1  792   0.720   2.250   5.979 -0.8139 -0.1113 -2.0387
   36SOL    HW2  793   0.590   2.231   6.053 -0.6974 -1.0087 -2.0451
   37SOL     OW  794   1.293   0.906   6.036  0.1760  0.4472  0.5174
   37SOL    HW1  795   1.238   0.833   6.065 -1.6878  0.9204 -1.5853
   37SOL    HW2  796   1.328   0.943   6.117 -1.7214 -0.5573  1.8764
   38SOL     OW  797   2.689   5.796   2.406  0.3572  0.4350 -0.2613
   38SOL    HW1  798   2.596   5.814   2.411  0.0077 -0.9845 -1.1662
   38SOL    HW2  799   2.729   5.880   2.383 -0.4409  1.5358  2.0360
   39SOL     OW  800   3.969   5.475   5.356  0.2986 -0.1646  0.2126
   39SOL    HW1  801   3.967   5.568   5.377  0.9784 -0.3233  1.0809
   39SOL    HW2  802   3.984   5.432   5.441  0.1466 -1.0497 -0.1967
   40SOL     OW  803   6.249   4.136   1.400  0.0843  0.3600 -0.0164
   40SOL    HW1  804   6.187   4.149   1.471 -1.6659  2.4146 -1.8174
   40SOL    HW2  805   6.333   4.165   1.436 -0.8653  1.9017  1.0566
   41SOL     OW  806   5.428   6.738   4.094 -0.5404  0.8445  0.2518
   41SOL    HW1  807   5.499   6.802   4.088 -0.4685  0.6933 -0.6464
   41SOL    HW2  808   5.444   6.693   4.178  1.1683 -0.0385 -0.4839
   42SOL     OW  809   1.035   3.894   4.489 -0.1177 -0.1369  0.1720
   42SOL    HW1  810   1.040   3.953   4.413  2.5082 -2.1945 -1.4215
   42SOL    HW2  811   1.070   3.946   4.562  0.0267  0.9886 -0.6779
   43SOL     OW  812   4.214   1.898   6.347 -0.2213 -0.5743  0.2710
   43SOL    HW1  813   4.303   1.887   6.379  0.5486 -1.3762 -1.9881
   43SOL    HW2  814   4.160   1.852   6.412  1.0180 -0.4451  1.4400
   44SOL     OW  815   3.153   6.293   2.032 -0.3576 -0.0601 -0.1547
   44SOL    HW1  816   3.121   6.304   1.943 -0.2524 -1.6804 -0.4128
   44SOL    HW2  817   3.151   6.382   2.069 -0.9914  0.5357 -1.5484
   45SOL     OW  818   4.715   4.334   1.978 -0.7822 -0.1501 -0.2340
   45SOL    HW1  819   4.637   4.285   1.952 -0.6332 -0.6198  0.2044
   45SOL    HW2  820   4.721   4.404   1.913 -0.2213 -1.4913 -1.6715
   46SOL     OW  821   3.615   1.922   3.091  0.0059 -0.3313  0.3659
   46SOL    HW1  822   3.600   1.857   3.160 -0.3335 -0.5602  0.0881
   46SOL    HW2  823   3.666   1.875   3.025  2.6546  0.6286  1.5872
   47SOL     OW  824   2.364   0.295   0.645 -0.1074 -0.1144 -0.0474
   47SOL    HW1  825   2.296   0.250   0.594  0.6549 -1.6434  0.2473
   47SOL    HW2  826   2.368   0.248   0.728  1.0633  0.1939  0.0863
   48SOL     OW  827   0.459   2.867   6.604  0.3437 -0.0524 -0.3064
   48SOL    HW1  828   0.491   2.956   6.618 -1.1410  0.6042 -0.8093
   48SOL    HW2  829   0.455   2.859   6.508 -0.6943 -0.2010 -0.2564
   49SOL     OW  830   0.549   4.014   4.536  0.4852 -0.0998 -0.0549
   49SOL    HW1  831   0.501   4.048   4.611  0.8933 -0.7276  0.5089
   49SOL    HW2  832   0.594   4.090   4.499 -1.3583  0.6257 -0.9568
   50SOL     OW  833   2.134   3.097   1.180 -0.0144  0.0561 -0.5680
   50SOL    HW1  834   2.093   3.145   1.109  0.0724  0.7150 -0.1803
   50SOL    HW2  835   2.200   3.157   1.215 -0.9502  0.2653  0.9141
   51SOL     OW  836   0.760   0.388   5.270 -0.3837  0.2619 -0.3607
   51SOL    HW1  837   0.727   0.419   5.186  0.8751 -0.3021 -1.0981
   51SOL    HW2  838   0.701   0.426   5.335  0.6640  3.7662 -1.2206
   52SOL     OW  839   2.979   3.457   5.874 -0.6197  0.1889  0.5093
   52SOL    HW1  840   2.985   3.461   5.779  1.0949  0.6424  0.6128
   52SOL    HW2  841   3.065   3.428   5.903 -0.9034  0.6936  1.9596
   53SOL     OW  842   3.956   5.060   6.839 -0.0126  0.2745  0.6829
   53SOL    HW1  843   4.051   5.050   6.825 -0.2206  0.6164 -1.3755
   53SOL    HW2  844   3.948   5.096   6.927  1.7283 -0.4182  1.1700
   54SOL     OW  845   0.037   1.620   6.139 -0.1034 -0.5133 -0.1211
   54SOL    HW1  846  -0.029   1.616   6.207 -0.0828  1.5580  0.0912
   54SOL    HW2  847  -0.007   1.586   6.061 -0.1357 -2.8794  0.8402
   55SOL     OW  848   4.781   0.616   6.484  0.2430  0.0890 -0.6272
   55SOL    HW1  849   4.805   0.533   6.443  1.0570  0.2539 -0.5127
   55SOL    HW2  850   4.863   0.648   6.522 -0.1677  0.7025 -0.2421
   56SOL     OW  851   1.941   0.700   5.183 -0.1604 -0.4869 -0.1310
   56SOL    HW1  852   2.029   0.736   5.193 -0.7315  1.3498 -1.0313
   56SOL    HW2  853   1.886   0.757   5.237 -0.9547 -0.7444 -0.6504
   57SOL     OW  854   4.526   0.673   5.002  0.3288 -0.4574 -0.1851
   57SOL    HW1  855   4.440   0.663   5.043  1.0888  0.5952  1.8426
   57SOL    HW2  856   4.510   0.663   4.908 -2.1385  0.5091  0.0609
   58SOL     OW  857   4.049   5.430   2.713  0.2313 -0.4774  0.1059
   58SOL    HW1  858   3.980   5.367   2.733  0.9618 -2.3918 -2.7708
   58SOL    HW2  859   4.005   5.501   2.667 -0.0170 -1.0469 -0.5458
   59SOL     OW  860   1.767   4.270   5.993 -0.0775 -0.1621 -0.3838
   59SOL    HW1  861   1.834   4.311   6.048  1.4699 -3.8154  0.7910
   59SOL    HW2  862   1.706   4.230   6.056 -0.4415 -1.2167 -1.3697
   60SOL     OW  863   4.699   1.200   2.383 -0.6830  0.2635  0.5720
   60SOL    HW1  864   4.630   1.199   2.317  0.1410  0.4157 -0.3078
   60SOL    HW2  865   4.669   1.138   2.450 -1.4210 -0.0650 -0.0465
   61SOL     OW  866   5.392   3.503   5.501  0.0526  0.5801  0.2651
   61SOL    HW1  867   5.360   3.414   5.517  1.9698 -0.0453  0.8145
   61SOL    HW2  868   5.316   3.558   5.518 -1.0457 -0.9110  0.4234
   62SOL     OW  869   3.109   4.723   5.340  0.2813  0.5093  0.1762
   62SOL    HW1  870   3.071   4.739   5.427  0.6962  3.9378 -0.1450
   62SOL    HW2  871   3.044   4.668   5.296 -1.4597  1.2464  1.6597
   63SOL     OW  872   2.431   1.129   6.708 -0.2354 -0.2408  0.0222
   63SOL    HW1  873   2.420   1.224   6.709 -0.3888 -0.2624  0.6190
   63SOL    HW2  874   2.433   1.107   6.615 -0.2214  0.3420 -0.1244
   64SOL     OW  875   0.719   4.897   0.120 -0.3066 -0.0363 -0.0982
   64SOL    HW1  876   0.714   4.829   0.186 -1.1602  0.6365  0.5475
   64SOL    HW2  877   0.729   4.850   0.037  1.0281 -0.8796  0.5090
   65SOL     OW  878   6.472   2.719   6.430  0.3773  0.7799 -0.0826
   65SOL    HW1  879   6.418   2.789   6.467 -1.6153 -1.2242  1.0294
   65SOL    HW2  880   6.437   2.706   6.342 -2.1035 -1.4488  1.1034
   66SOL     OW  881   4.654   2.402   2.892 -0.2782  0.8296 -0.2181
   66SOL    HW1  882   4.724   2.337   2.887 -1.2519 -0.1719 -1.3658
   66SOL    HW2  883   4.587   2.360   2.946 -1.9007 -0.1646 -2.8346
   67SOL     OW  884   5.916   0.452   3.126 -0.0518 -0.4650 -0.2253
   67SOL    HW1  885   5.838   0.399   3.141 -0.5655  0.1907 -0.5684
   67SOL    HW2  886   5.962   0.406   3.055  0.3358 -1.3344  0.5604
   68SOL     OW  887   1.685   1.781   2.036 -0.6387 -0.2040  0.2716
   68SOL    HW1  888   1.734   1.856   2.070  0.3943 -0.7276 -0.0177
   68SOL    HW2  889   1.740   1.747   1.965 -1.5293 -0.6851 -0.2088
   69SOL     OW  890   1.014   1.832   5.539  0.4256  0.1877 -0.4038
   69SOL    HW1  891   0.976   1.745   5.521  2.0027 -0.4094 -1.1036
   69SOL    HW2  892   0.959   1.892   5.489  1.2124 -0.8203 -2.6516
   70SOL     OW  893   5.876   1.880   1.089  0.4380  0.2823 -0.1594
   70SOL    HW1  894   5.868   1.956   1.146  0.6603  0.2481 -0.0834
   70SOL    HW2  895   5.970   1.866   1.080  0.3984  0.0612 -0.2311
   71SOL     OW  896   2.275   3.239   3.605 -0.3185  0.1459  0.0168
   71SOL    HW1  897   2.198   3.292   3.581  1.2235  1.8375 -1.5279
   71SOL    HW2  898   2.329   3.240   3.526  0.6107 -2.3269  0.5565
   72SOL     OW  899   2.452   4.422   3.065  0.2285  0.1440 -0.1410
   72SOL    HW1  900   2.510   4.391   3.135  0.7325  0.6274 -0.3408
   72SOL    HW2  901   2.388   4.477   3.110  1.6940  2.0450 -0.2735
   73SOL     OW  902   1.589   2.779   4.633 -0.5139 -0.3167  0.0482
   73SOL    HW1  903   1.657   2.712   4.644  0.9178  1.0857  0.0787
   73SOL    HW2  904   1.507   2.732   4.649  0.2926 -2.4431 -1.5570
   74SOL     OW  905   5.575   6.490   3.671  0.3585  0.2255 -0.0082
   74SOL    HW1  906   5.570   6.579   3.705 -0.3253 -0.0026  0.5189
   74SOL    HW2  907   5.489   6.453   3.690 -0.3826  0.3296 -2.6754
   75SOL     OW  908   2.854   5.834   4.676  0.4530 -0.3858 -0.5322
   75SOL    HW1  909   2.817   5.915   4.709  0.8901  0.4145 -1.9145
   75SOL    HW2  910   2.940   5.859   4.643  1.7400 -1.9507  1.4243
   76SOL     OW  911   6.786   6.731   3.772  0.2854 -0.0296  0.4279
   76SOL    HW1  912   6.824   6.730   3.684  0.2575 -1.1964  0.4226
   76SOL    HW2  913   6.776   6.639   3.796 -1.1083  0.2648  1.0592
   77SOL     OW  914   3.881   1.115   4.401 -0.4956  0.0350  0.4670
   77SOL    HW1  915   3.786   1.119   4.407 -0.4731  0.7101  0.4137
   77SOL    HW2  916   3.908   1.072   4.482 -0.7667  1.0956  1.1444
   78SOL     OW  917   4.881   3.374   3.853 -0.4176  0.3433 -0.1000
   78SOL    HW1  918   4.892   3.415   3.767 -2.1007  0.0077 -0.5298
   78SOL    HW2  919   4.794   3.334   3.848 -0.7490  0.7333  1.9479
   79SOL     OW  920   4.984   1.108   3.029 -0.6528 -0.2567 -0.4437
   79SOL    HW1  921   5.014   1.034   2.976  0.2652  0.3078 -0.7460
   79SOL    HW2  922   4.934   1.068   3.100  1.2675 -1.3379  0.3990
   80SOL     OW  923   1.631   2.170   5.700  0.3282  0.4926 -0.2784
   80SOL    HW1  924   1.678   2.199   5.623  0.8683 -1.4546 -0.7396
   80SOL    HW2  925   1.625   2.247   5.756  0.3088  1.8286 -2.0527
   81SOL     OW  926   1.131   6.163   0.985 -0.0159  0.0446  0.0219
   81SOL    HW1  927   1.191   6.209   0.926 -0.9879  0.8625 -0.3640
   81SOL    HW2  928   1.125   6.075   0.949  0.8620 -0.0168  0.0064
   82SOL     OW  929   4.883   3.665   0.462 -0.1708 -0.3600  0.4788
   82SOL    HW1  930   4.936   3.741   0.440 -0.2259 -0.6254 -0.6291
   82SOL    HW2  931   4.877   3.615   0.380 -0.4221 -1.3772  1.0960
   83SOL     OW  932   6.737   3.915   1.463 -0.0282 -0.7043  0.3875
   83SOL    HW1  933   6.727   4.010   1.454  3.1824 -0.4004 -1.3356
   83SOL    HW2  934   6.754   3.902   1.556 -0.6957  0.3514  0.6877
   84SOL     OW  935   2.693   0.865   6.585  0.0386 -1.2422  0.3019
   84SOL    HW1  936   2.719   0.906   6.503  0.9494 -1.7685  0.3171
   84SOL    HW2  937   2.744   0.784   6.589 -0.2273 -1.3769  1.2325
   85SOL     OW  938   4.161   5.944   6.203  0.7485 -0.2271  0.8421
   85SOL    HW1  939   4.083   5.993   6.227  0.6290  0.0630 -0.1287
   85SOL    HW2  940   4.189   5.903   6.285  0.8144  1.3871  1.6619
   86SOL     OW  941   0.736   4.835   1.204 -0.1996  0.5205 -0.2622
   86SOL    HW1  942   0.746   4.906   1.267 -2.1958  1.4608 -0.9157
   86SOL    HW2  943   0.650   4.850   1.165 -1.0339 -2.6887  0.0835
   87SOL     OW  944   3.306   5.290   4.841 -0.2251 -0.1336  0.3427
   87SOL    HW1  945   3.244   5.222   4.816  0.0784  0.0788 -1.0871
   87SOL    HW2  946   3.277   5.319   4.927 -1.8738 -0.3002 -0.1325
   88SOL     OW  947   5.911   6.599   5.755  0.3364  0.7625 -0.2508
   88SOL    HW1  948   5.822   6.634   5.750 -0.3240 -0.9198 -1.6999
   88SOL    HW2  949   5.909   6.538   5.829  0.4123  1.0798  0.0100
   89SOL     OW  950   0.265   6.034   1.726 -0.3707 -0.1418 -0.0588
   89SOL    HW1  951   0.353   6.036   1.763 -0.8355 -0.2041  1.1002
   89SOL    HW2  952   0.268   6.097   1.653  0.7807 -0.5984 -0.4290
   90SOL     OW  953   3.685   0.580   6.892 -0.0363 -0.4874 -0.1078
   90SOL    HW1  954   3.697   0.571   6.986 -1.5852 -0.5982  0.0992
   90SOL    HW2  955   3.592   0.599   6.881  0.5912  2.4073 -1.4287
   91SOL     OW  956   4.641   5.037   4.719 -0.1400 -0.4367 -0.1600
   91SOL    HW1  957   4.619   4.957   4.671 -1.0473 -2.4384  3.2476
   91SOL    HW2  958   4.562   5.090   4.715 -0.0704 -0.3861 -1.1357
   92SOL     OW  959   0.472   5.485   5.475  0.1291 -0.2057 -0.2233
   92SOL    HW1  960   0.425   5.443   5.403 -0.0968  0.5034 -0.5074
   92SOL    HW2  961   0.556   5.440   5.480 -0.4230 -1.2183  0.0176
   93SOL     OW  962   0.640   2.992   4.780  0.4676 -0.1421 -0.6639
   93SOL    HW1  963   0.632   2.918   4.840 -0.6020  1.6904  1.5738
   93SOL    HW2  964   0.552   3.004   4.744  0.1944  1.1173  0.3768
   94SOL     OW  965   0.658   0.842   2.753  0.1644 -0.1054  0.5171
   94SOL    HW1  966   0.624   0.859   2.841 -0.0477 -0.5340  0.5216
   94SOL    HW2  967   0.738   0.791   2.767  0.0752 -0.2627  0.4593
   95SOL     OW  968   3.240   4.916   0.722 -0.0681  0.1396 -0.0663
   95SOL    HW1  969   3.319   4.946   0.766 -1.2465 -0.0742  2.3704
   95SOL    HW2  970   3.253   4.823   0.709  0.5276  0.3094 -0.7286
   96SOL     OW  971   3.019   6.508   2.410 -0.2518 -0.4107  0.0156
   96SOL    HW1  972   2.929   6.527   2.382  0.0510  1.6056  0.2501
   96SOL    HW2  973   3.072   6.577   2.369  0.7439  0.2953  2.3475
   97SOL     OW  974   5.800   4.287   6.253  0.3238  0.2501  0.0403
   97SOL    HW1  975   5.717   4.295   6.301  0.2905 -1.9336  0.4303
   97SOL    HW2  976   5.863   4.333   6.308 -0.1958 -0.0395  0.8994
   98SOL     OW  977   6.242   3.685   0.815 -0.0047 -0.2944  0.5537
   98SOL    HW1  978   6.220   3.666   0.906 -3.5123  0.0531 -0.0788
   98SOL    HW2  979   6.257   3.779   0.813 -2.3552  0.1365  0.4672
   99SOL     OW  980   1.968   3.406   6.203 -0.2866 -0.7289 -0.1404
   99SOL    HW1  981   1.946   3.456   6.281  2.4117 -1.1843  1.0103
   99SOL    HW2  982   1.927   3.320   6.217  1.2657 -1.2628  1.5021
  100SOL     OW  983   6.022   2.085   4.418 -0.4805  0.4890  0.5181
  100SOL    HW1  984   6.026   2.179   4.400  1.9688  0.1852 -1.0267
  100SOL    HW2  985   5.933   2.059   4.393 -0.2654  1.9106 -2.0475
  101SOL     OW  986   0.718   4.763   1.540 -0.1266  0.6197 -0.5908
  101SOL    HW1  987   0.701   4.671   1.557  2.3165 -0.3035 -2.5388
  101SOL    HW2  988   0.789   4.786   1.599 -0.4288  1.1528 -0.4275
  102SOL     OW  989   4.731   4.081   5.406 -0.2018  0.1513  0.1973
  102SOL    HW1  990   4.637   4.064   5.400 -0.4802  1.6394  0.1185
  102SOL    HW2  991   4.738   4.167   5.447  1.0909  0.6914 -1.0893
  103SOL     OW  992   6.325   1.515   4.211  0.0260 -0.0293  0.2777
  103SOL    HW1  993   6.271   1.484   4.284  1.7592 -0.2143  1.5521
  103SOL    HW2  994   6.362   1.598   4.242  1.2160 -0.3769 -0.1654
  104SOL     OW  995   2.061   3.982   0.801  0.0527  0.0755 -0.6649
  104SOL    HW1  996   2.114   3.911   0.838  0.6125 -0.9719 -3.2614
  104SOL    HW2  997   2.088   4.060   0.848 -0.4169 -1.3168  2.1601
  105SOL     OW  998   1.264   6.574   3.544  0.0822 -0.0829  0.1289
  105SOL    HW1  999   1.280   6.626   3.623  1.2117 -2.4058  1.5387
  105SOL    HW2 1000   1.345   6.581   3.493 -0.2962  0.6478 -0.3916
  106SOL     OW 1001   4.516   5.088   2.510 -0.3442 -0.1487  0.5086
  106SOL    HW1 1002   4.517   5.184   2.501  1.5782 -0.1564  0.0968
  106SOL    HW2 1003   4.596   5.068   2.558  1.1506 -1.7411 -2.3499
  107SOL     OW 1004   1.750   0.859   5.386  0.2644  0.2170 -0.4416
  107SOL    HW1 1005   1.795   0.937   5.353 -0.3862  0.3289 -1.0803
  107SOL    HW2 1006   1.669   0.892   5.425  0.6897  0.0088  0.6620
  108SOL     OW 1007   4.753   0.710   1.216  0.0750  0.0707  0.2292
  108SOL    HW1 1008   4.667   0.670   1.203  0.6054 -1.8100  2.0578
  108SOL    HW2 1009   4.737   0.785   1.273 -0.6481  1.4143 -1.6189
  109SOL     OW 1010   1.253   6.629   5.397 -0.3369  0.0177  0.4766
  109SOL    HW1 1011   1.266   6.592   5.309 -1.3500 -1.8307  1.0451
  109SOL    HW2 1012   1.322   6.695   5.406  0.4711 -0.5229 -1.2878
  110SOL     OW 1013   2.263   4.435   4.530  0.0034 -0.6040  0.2815
  110SOL    HW1 1014   2.186   4.421   4.476 -0.4891 -0.2824  0.8810
  110SOL    HW2 1015   2.292   4.347   4.554 -0.1165 -0.7285 -0.0292
  111SOL     OW 1016   2.760   3.216   5.772 -0.0601 -0.0093  0.1201
  111SOL    HW1 1017   2.830   3.151   5.778  2.0118  1.9238 -1.2374
  111SOL    HW2 1018   2.767   3.265   5.853  0.0694  0.0766  0.0579
  112SOL     OW 1019   6.215   3.334   6.380  0.2638  0.0968  0.1772
  112SOL    HW1 1020   6.202   3.291   6.296  0.2166 -2.2033  1.2794
  112SOL    HW2 1021   6.310   3.333   6.393  0.2551  0.2044  0.2541
  113SOL     OW 1022   4.183   5.561   1.431 -0.0287 -0.4145  0.5556
  113SOL    HW1 1023   4.101   5.521   1.402 -0.1056 -2.4501  3.2301
  113SOL    HW2 1024   4.193   5.534   1.522  2.2699  2.0655  1.1943
  114SOL     OW 1025   3.526   6.247   3.196  0.4209  0.2126  0.3578
  114SOL    HW1 1026   3.589   6.249   3.124  2.1002 -1.2937  1.6944
  114SOL    HW2 1027   3.574   6.209   3.269 -2.0140 -0.9457  1.4846
  115SOL     OW 1028   4.646   0.960   1.369 -0.0478  0.3279 -0.0163
  115SOL    HW1 1029   4.614   1.027   1.430  2.2335  0.5911  0.9877
  115SOL    HW2 1030   4.724   0.998   1.330  0.3502 -1.1174 -0.7109
  116SOL     OW 1031   3.646   4.292   5.722  0.2797  0.8731 -0.3651
  116SOL    HW1 1032   3.697   4.353   5.776 -0.4880  1.0996  0.1320
  116SOL    HW2 1033   3.711   4.249   5.666  1.0968  0.6995  0.6785
  117SOL     OW 1034   1.020   2.724   1.126 -0.4736  0.2606 -0.7533
  117SOL    HW1 1035   1.076   2.728   1.049 -1.4880  2.2139 -1.4769
  117SOL    HW2 1036   0.971   2.807   1.124 -0.3893  0.4871  2.1148
  118SOL     OW 1037   1.139   2.450   1.957  0.5459 -0.1053 -0.1164
  118SOL    HW1 1038   1.165   2.488   1.873  1.9401 -0.4650  0.1157
  118SOL    HW2 1039   1.121   2.358   1.937 -2.8839  0.5750 -0.6893
  119SOL     OW 1040   1.622   6.795   4.714 -0.5713 -0.7178  0.5793
  119SOL    HW1 1041   1.556   6.813   4.781 -1.2221  0.4776 -0.3379
  119SOL    HW2 1042   1.688   6.862   4.727 -0.8504 -0.2898 -0.1493
  120SOL     OW 1043   6.044   4.911   3.471 -0.0341 -0.2132 -0.5298
  120SOL    HW1 1044   5.950   4.906   3.487  0.0948 -0.4532  0.1840
  120SOL    HW2 1045   6.074   4.983   3.527 -0.1882  1.6909 -2.7373
  121SOL     OW 1046   6.779   2.191   5.833  0.1021  0.0335 -0.0997
  121SOL    HW1 1047   6.800   2.221   5.745 -0.9246  0.6306 -0.1554
  121SOL    HW2 1048   6.780   2.270   5.887  0.6713 -0.3195  0.4239
  122SOL     OW 1049   2.133   2.368   6.011 -0.5280  0.2214  0.2910
  122SOL    HW1 1050   2.061   2.386   5.951  0.2237  2.2951 -0.0890
  122SOL    HW2 1051   2.152   2.453   6.052  0.2407 -0.7322  2.0398
  123SOL     OW 1052   2.125   0.573   3.468 -0.4510 -0.1296  0.2569
  123SOL    HW1 1053   2.091   0.653   3.428 -1.6468 -0.6773  0.1443
  123SOL    HW2 1054   2.119   0.589   3.562  2.8576  1.3738  0.3903
  124SOL     OW 1055   0.098   1.220   0.377 -0.1915  0.0353  0.0122
  124SOL    HW1 1056   0.058   1.136   0.355 -0.3019  0.7019 -2.6583
  124SOL    HW2 1057   0.188   1.199   0.400 -1.3066 -1.2447  4.0907
  125SOL     OW 1058   5.227   6.596   1.471  0.5202  0.7237 -0.0220
  125SOL    HW1 1059   5.186   6.680   1.452  4.1899  2.5167 -0.8291
  125SOL    HW2 1060   5.217   6.546   1.390 -1.2912  0.4622  0.3163
  126SOL     OW 1061   2.822   6.838   4.569 -0.8437  0.2670  0.1512
  126SOL    HW1 1062   2.817   6.744   4.587  1.4398  0.5252  2.6824
  126SOL    HW2 1063   2.743   6.875   4.610 -1.2367 -0.4054  0.0133
  127SOL     OW 1064   4.363   2.669   6.198 -0.2456  0.3824 -0.3973
  127SOL    HW1 1065   4.343   2.662   6.291 -1.1559  1.3286 -0.5035
  127SOL    HW2 1066   4.305   2.605   6.156 -0.8324  0.9221 -0.4249
  128SOL     OW 1067   3.205   4.862   2.374  0.3399  0.0562 -0.0077
  128SOL    HW1 1068   3.276   4.833   2.316  1.1815 -2.4970  2.1477
  128SOL    HW2 1069   3.128   4.865   2.317  0.8316 -3.6128 -1.1371
  129SOL     OW 1070   0.993   4.988   5.647 -0.3637 -0.0343  0.0624
  129SOL    HW1 1071   1.000   5.082   5.630 -0.1807 -0.0446  0.0768
  129SOL    HW2 1072   0.928   4.957   5.585 -0.7960  0.1907  0.3967
  130SOL     OW 1073   0.413   0.080   6.152 -0.0187  0.3092  0.0300
  130SOL    HW1 1074   0.344   0.124   6.201  1.2681  2.7419 -0.1951
  130SOL    HW2 1075   0.377   0.070   6.064  0.0268  1.9648 -0.2021
  131SOL     OW 1076   1.882   0.686   1.600  0.6881  0.0622 -0.3953
  131SOL    HW1 1077   1.829   0.748   1.650  1.5356  0.0351  0.5537
  131SOL    HW2 1078   1.879   0.605   1.650  1.6082  0.0561 -0.3486
  132SOL     OW 1079   6.565   5.042   2.886 -0.3096  0.4112 -0.3581
  132SOL    HW1 1080   6.618   5.089   2.822 -0.0569  0.1729 -0.3267
  132SOL    HW2 1081   6.476   5.044   2.850  0.2020 -1.7873 -1.9357
  133SOL     OW 1082   1.816   0.197   5.886 -0.0708 -0.6008 -0.0433
  133SOL    HW1 1083   1.860   0.278   5.861  1.5566 -1.1708  0.8570
  133SOL    HW2 1084   1.845   0.180   5.975 -2.2532 -0.9605  0.6652
  134SOL     OW 1085   1.734   6.738   4.041 -0.0836  0.1202  0.6021
  134SOL    HW1 1086   1.662   6.688   4.079 -2.3147  3.0782  0.6509
  134SOL    HW2 1087   1.755   6.804   4.107  1.6510  0.2963 -0.0676
  135SOL     OW 1088   0.403   3.516   2.688 -0.2968 -0.3544  0.2981
  135SOL    HW1 1089   0.332   3.478   2.636  0.4395 -0.8679 -0.3641
  135SOL    HW2 1090   0.482   3.469   2.658  0.2949  0.0900  1.1261
  136SOL     OW 1091   5.043   2.176   0.207  0.1708  0.1571  0.0351
  136SOL    HW1 1092   5.098   2.253   0.195 -0.5462  0.6299 -0.2311
  136SOL    HW2 1093   4.961   2.197   0.163 -0.0245 -0.7701 -0.0654
  137SOL     OW 1094   1.280   2.255   0.869  0.1217 -0.1903  0.0495
  137SOL    HW1 1095   1.371   2.279   0.883 -0.5114  1.7170  1.1487
  137SOL    HW2 1096   1.264   2.272   0.776  0.7405 -0.0887 -0.0390
  138SOL     OW 1097   2.597   5.029   1.807 -0.1124  0.4867  0.1747
  138SOL    HW1 1098   2.524   5.090   1.816  0.9200  1.5628  1.7291
  138SOL    HW2 1099   2.674   5.085   1.796  0.7827 -0.5400  0.9547
  139SOL     OW 1100   1.294   5.341   4.890  0.0344 -0.0325  0.4869
  139SOL    HW1 1101   1.386   5.334   4.913 -0.0783 -1.2192  0.6619
  139SOL    HW2 1102   1.292   5.394   4.810  0.6227  2.2490  1.8857
  140SOL     OW 1103   2.823   1.416   5.717 -0.2823  0.0237  0.4536
  140SOL    HW1 1104   2.855   1.505   5.704 -0.0525  0.3000  2.5893
  140SOL    HW2 1105   2.734   1.418   5.682  0.4589  0.4379 -1.5547
  141SOL     OW 1106   4.308   1.512   1.533 -0.1678  0.0537  0.4196
  141SOL    HW1 1107   4.348   1.526   1.448  0.5533  3.7107  1.1742
  141SOL    HW2 1108   4.377   1.471   1.586  0.4667  0.5985  0.0321
  142SOL     OW 1109   0.973   5.362   2.313  0.3494 -0.1247  0.1268
  142SOL    HW1 1110   0.884   5.329   2.302  0.0426  0.6928  0.1265
  142SOL    HW2 1111   0.995   5.402   2.229 -0.0730  1.5460  0.7940
  143SOL     OW 1112   5.927   4.898   5.809  0.3362 -0.3233 -0.6124
  143SOL    HW1 1113   5.980   4.889   5.889 -1.8176 -0.2570  0.9094
  143SOL    HW2 1114   5.909   4.808   5.782 -0.9938 -0.4262  0.4853
  144SOL     OW 1115   6.550   2.245   6.303  0.2854 -0.6941  0.2210
  144SOL    HW1 1116   6.599   2.198   6.236  0.3180  0.9693 -0.9616
  144SOL    HW2 1117   6.578   2.205   6.385  2.4088 -0.8744 -0.5433
  145SOL     OW 1118   2.627   5.693   6.509 -0.2096  0.0057 -0.1416
  145SOL    HW1 1119   2.561   5.753   6.544 -1.5397 -1.0550 -0.7410
  145SOL    HW2 1120   2.621   5.703   6.414 -2.1524 -2.6913 -0.4191
  146SOL     OW 1121   0.619   4.165   4.757 -0.4080  0.0947 -0.1912
  146SOL    HW1 1122   0.667   4.086   4.784  1.5235  0.9574 -0.9454
  146SOL    HW2 1123   0.595   4.208   4.839  0.9742  0.1200  0.2151
  147SOL     OW 1124   3.770   5.805   0.061  0.6289 -0.3925 -0.0458
  147SOL    HW1 1125   3.715   5.729   0.080  0.3275 -0.0891  0.3040
  147SOL    HW2 1126   3.809   5.786  -0.025 -0.0158 -0.6159 -0.2942
  148SOL     OW 1127   6.802   4.537   5.070 -0.0542 -0.5906  0.1457
  148SOL    HW1 1128   6.714   4.507   5.092 -0.0298  0.2173  1.5050
  148SOL    HW2 1129   6.801   4.631   5.090  0.3508  0.0115 -2.3732
  149SOL     OW 1130   1.657   1.853   6.715  1.1260  0.5905 -0.0767
  149SOL    HW1 1131   1.732   1.867   6.657  1.9689  0.6954  1.0088
  149SOL    HW2 1132   1.655   1.931   6.770  0.5803  0.3126  0.3036
  150SOL     OW 1133   1.509   5.664   1.448 -0.2303 -0.0175  0.0116
  150SOL    HW1 1134   1.426   5.644   1.404 -0.4636 -0.5101  0.6514
  150SOL    HW2 1135   1.576   5.636   1.386 -0.5452  0.2154 -0.4376
  151SOL     OW 1136   4.526   3.110   6.353  0.6246  0.4208 -0.0231
  151SOL    HW1 1137   4.538   3.110   6.258  1.0529 -0.0677  0.0287
  151SOL    HW2 1138   4.435   3.083   6.366  0.1079  1.8728 -0.3341
  152SOL     OW 1139   0.138   5.329   2.224 -0.3701 -0.8804 -0.0485
  152SOL    HW1 1140   0.217   5.349   2.276 -0.4965 -1.7304  0.4803
  152SOL    HW2 1141   0.065   5.351   2.282 -0.5247 -0.7124 -0.3039
  153SOL     OW 1142   5.448   3.340   3.373 -0.4176 -0.1512  0.8393
  153SOL    HW1 1143   5.493   3.348   3.289 -0.5073  0.8978  0.8705
  153SOL    HW2 1144   5.432   3.246   3.384 -0.2779 -0.3086 -0.2428
  154SOL     OW 1145   0.339   5.534   4.516 -0.1572  0.4246 -0.4424
  154SOL    HW1 1146   0.434   5.536   4.529  0.3588 -1.3457 -3.2370
  154SOL    HW2 1147   0.316   5.624   4.495  0.8241  0.9154  0.4421
  155SOL     OW 1148   4.737   2.667   5.712  0.0726 -0.3365  0.1268
  155SOL    HW1 1149   4.678   2.641   5.783 -0.2533  1.0236  0.3800
  155SOL    HW2 1150   4.737   2.762   5.714  3.3190 -0.2304  0.9703
  156SOL     OW 1151   1.080   4.661   6.786  0.3092  0.2574 -0.2663
  156SOL    HW1 1152   1.091   4.654   6.881 -1.0009 -0.3404 -0.1331
  156SOL    HW2 1153   1.147   4.724   6.759  0.6205  0.5404  1.0718
  157SOL     OW 1154   2.513   5.026   2.415 -0.2651  0.1182  0.2010
  157SOL    HW1 1155   2.459   4.952   2.386  0.0447 -0.0372  0.0170
  157SOL    HW2 1156   2.517   5.018   2.510 -1.4362  0.7294  0.3283
  158SOL     OW 1157   0.290   6.262   6.644 -0.5148  0.2828  0.1664
  158SOL    HW1 1158   0.217   6.203   6.662  0.2837 -0.4173  1.2102
  158SOL    HW2 1159   0.356   6.207   6.602 -1.8211  1.5923 -4.1029
  159SOL     OW 1160   6.627   4.634   5.770  0.4996 -0.3460 -0.6424
  159SOL    HW1 1161   6.571   4.560   5.748  0.2801 -1.5337  3.1698
  159SOL    HW2 1162   6.716   4.599   5.765  0.5071 -0.3437 -0.5286
  160SOL     OW 1163   2.685   6.688   2.939  0.0060 -0.2971  0.1810
  160SOL    HW1 1164   2.677   6.630   3.015  0.8013 -1.0717 -0.3088
  160SOL    HW2 1165   2.638   6.643   2.869 -1.1186  0.6304  0.3092
  161SOL     OW 1166   1.751   5.145   0.914 -0.4008 -0.3607 -0.4504
  161SOL    HW1 1167   1.784   5.218   0.861  1.1858 -1.0650 -0.5047
  161SOL    HW2 1168   1.669   5.120   0.872  0.4548 -0.4248 -2.1688
  162SOL     OW 1169   5.134   6.182   0.304 -0.3244 -0.2592  0.5442
  162SOL    HW1 1170   5.152   6.231   0.384  0.6876 -0.8757  0.7239
  162SOL    HW2 1171   5.045   6.206   0.279 -0.6554 -0.0718  1.8668
  163SOL     OW 1172   0.685   1.388   2.847  0.0237  0.1254  0.2218
  163SOL    HW1 1173   0.620   1.384   2.778 -0.0875  0.2568  0.3178
  163SOL    HW2 1174   0.712   1.297   2.861 -1.7142 -0.2228  1.6716
  164SOL     OW 1175   4.190   4.545   5.937 -0.2821  0.0221 -0.3833
  164SOL    HW1 1176   4.261   4.564   5.876 -0.9009  1.3809 -0.7148
  164SOL    HW2 1177   4.234   4.514   6.016  0.5781 -0.8141 -1.1707
  165SOL     OW 1178   5.635   2.583   5.171 -0.0759  0.4266  0.2175
  165SOL    HW1 1179   5.718   2.619   5.141  0.2916  0.0616  0.7768
  165SOL    HW2 1180   5.572   2.609   5.104  0.9173 -1.3872 -1.5245
  166SOL     OW 1181   5.900   6.645   6.347  0.2538 -0.3727  0.7749
  166SOL    HW1 1182   5.974   6.701   6.372  0.3463  0.3163 -0.8766
  166SOL    HW2 1183   5.828   6.707   6.330 -0.7545 -1.0358  2.4008
  167SOL     OW 1184   0.958   5.986   3.790 -0.2830  0.0835  0.3873
  167SOL    HW1 1185   0.967   6.055   3.856  1.1153 -0.1133  0.4425
  167SOL    HW2 1186   1.049   5.964   3.767 -0.7351 -0.1101 -1.3265
  168SOL     OW 1187   3.728   1.662   1.080 -0.2419  0.5285 -0.1375
  168SOL    HW1 1188   3.782   1.733   1.045  0.6063 -0.7543 -1.6220
  168SOL    HW2 1189   3.638   1.694   1.075  0.0376  1.1522 -1.7364
  169SOL     OW 1190   4.245   3.255   3.382 -0.5007  0.0072 -0.2025
  169SOL    HW1 1191   4.274   3.175   3.427 -0.3725  0.5758  0.7513
  169SOL    HW2 1192   4.150   3.247   3.377 -0.3976 -0.7427 -1.1639
  170SOL     OW 1193   5.041   4.250   3.241  0.4408 -1.2379 -0.0057
  170SOL    HW1 1194   4.956   4.285   3.267  0.9493  0.4464 -0.4518
  170SOL    HW2 1195   5.036   4.243   3.146  0.7193 -1.3554 -0.0132
  171SOL     OW 1196   2.413   1.215   3.550  0.2463  0.2489  0.0758
  171SOL    HW1 1197   2.508   1.207   3.540  0.1892 -0.5678  0.1249
  171SOL    HW2 1198   2.381   1.232   3.461  0.6076  2.6986  0.3353
  172SOL     OW 1199   4.247   4.938   0.928  0.3689  0.1781  0.1734
  172SOL    HW1 1200   4.247   4.983   0.844  0.9447 -2.4376 -1.3711
  172SOL    HW2 1201   4.201   4.856   0.911 -1.0310  0.2814  2.9139
  173SOL     OW 1202   3.806   4.548   5.724  0.0762  0.5502 -0.0570
  173SOL    HW1 1203   3.894   4.585   5.727  1.1415 -1.5684 -1.9606
  173SOL    HW2 1204   3.778   4.562   5.633 -1.9198  1.8054  0.6714
  174SOL     OW 1205   4.713   2.949   3.214  0.5016 -0.2212 -0.1399
  174SOL    HW1 1206   4.644   2.910   3.268  0.5593 -0.8669 -0.5214
  174SOL    HW2 1207   4.788   2.891   3.225  0.1492 -1.0672 -1.8447
  175SOL     OW 1208   2.847   0.438   0.010  0.4804  0.6829  0.5942
  175SOL    HW1 1209   2.852   0.509  -0.054 -0.9175  1.1490  0.9624
  175SOL    HW2 1210   2.772   0.386  -0.018  0.6141  0.1830  1.1517
  176SOL     OW 1211   6.403   4.215   3.158 -0.3368  0.4831 -0.0079
  176SOL    HW1 1212   6.397   4.310   3.162 -1.4694  0.4067  0.4508
  176SOL    HW2 1213   6.312   4.185   3.167  0.0423 -0.6505  0.1485
  177SOL     OW 1214   2.773   5.478   6.093  1.0773 -0.4450  0.1596
  177SOL    HW1 1215   2.762   5.392   6.134 -3.0662 -0.9316 -1.4816
  177SOL    HW2 1216   2.736   5.468   6.005  3.6406  2.1992 -1.4015
  178SOL     OW 1217   5.651   0.175   2.163  0.2911  0.4102  0.1375
  178SOL    HW1 1218   5.622   0.231   2.091  0.9037 -0.6373 -0.9646
  178SOL    HW2 1219   5.575   0.168   2.220  0.2495  2.4599  0.3955
  179SOL     OW 1220   2.814   5.010   3.878 -0.0211  0.1487  0.0362
  179SOL    HW1 1221   2.833   5.094   3.921  0.4577 -0.3999  0.9392
  179SOL    HW2 1222   2.790   5.034   3.789  2.1240  1.1135 -0.3452
  180SOL     OW 1223   1.522   2.417   5.922  0.0471  0.1869  0.8213
  180SOL    HW1 1224   1.499   2.420   5.829  0.6119 -0.8100  0.6341
  180SOL    HW2 1225   1.542   2.508   5.945  0.1697  0.4022 -0.1026
  181SOL     OW 1226   0.404   6.671   5.033 -0.2921 -0.3795 -0.6295
  181SOL    HW1 1227   0.401   6.673   4.937 -0.3299  0.7000 -0.6194
  181SOL    HW2 1228   0.323   6.713   5.060  0.3867  0.6594 -0.1461
  182SOL     OW 1229   4.588   3.201   4.798  0.0254  0.6376 -0.5844
  182SOL    HW1 1230   4.664   3.180   4.743 -0.5524 -0.0210 -1.1492
  182SOL    HW2 1231   4.618   3.273   4.853  0.4622  1.7221 -2.1695
  183SOL     OW 1232   0.060   3.061   0.859 -0.5783 -0.2622 -0.1403
  183SOL    HW1 1233   0.146   3.089   0.891  0.7111 -0.9321 -2.6898
  183SOL    HW2 1234   0.006   3.141   0.861  1.4230  1.3054 -2.3492
  184SOL     OW 1235   4.007   2.872   4.174  0.2117 -0.0706  0.2761
  184SOL    HW1 1236   3.915   2.896   4.167  0.0389 -0.7019  0.3111
  184SOL    HW2 1237   4.028   2.832   4.090  0.8707  1.4125 -0.3021
  185SOL     OW 1238   6.506   1.981   2.177  0.4453 -0.2412 -0.0727
  185SOL    HW1 1239   6.484   1.893   2.208 -0.4436 -0.6561 -1.7445
  185SOL    HW2 1240   6.569   1.967   2.107 -1.7283  0.1410 -2.2841
  186SOL     OW 1241   3.359   4.886   0.023  0.1314 -0.0831 -0.1259
  186SOL    HW1 1242   3.266   4.882   0.042  0.2517 -0.5728  0.3715
  186SOL    HW2 1243   3.375   4.811  -0.034  0.3966 -0.5603  0.5666
  187SOL     OW 1244   1.966   6.320   2.146 -0.5625 -0.2353  0.2088
  187SOL    HW1 1245   2.039   6.377   2.122 -2.3231  1.6545 -1.0964
  187SOL    HW2 1246   1.957   6.260   2.071 -0.7139 -0.0576  0.0831
  188SOL     OW 1247   2.033   1.775   6.753 -0.3625 -0.1050  0.0218
  188SOL    HW1 1248   2.028   1.685   6.784  1.1038 -0.9269 -1.9385
  188SOL    HW2 1249   1.957   1.818   6.793 -0.5993 -1.9462  1.7208
  189SOL     OW 1250   6.172   2.770   2.162  0.4118 -0.0468 -0.1506
  189SOL    HW1 1251   6.239   2.764   2.230  0.3259 -0.6829 -0.1200
  189SOL    HW2 1252   6.176   2.686   2.117 -0.7496 -0.3110  0.2073
  190SOL     OW 1253   4.201   3.638   1.486 -0.0082  0.0726 -0.3194
  190SOL    HW1 1254   4.222   3.598   1.571 -0.0793  1.0625  0.1775
  190SOL    HW2 1255   4.239   3.578   1.421  1.6326  0.2355  0.4524
  191SOL     OW 1256   3.434   5.826   2.739 -0.0445  0.0045 -0.2045
  191SOL    HW1 1257   3.353   5.837   2.688 -0.0974  0.0455 -0.1126
  191SOL    HW2 1258   3.469   5.915   2.746 -0.2845  0.0685  0.2341
  192SOL     OW 1259   6.329   0.016   2.545 -0.0412  0.0687  0.1874
  192SOL    HW1 1260   6.244  -0.026   2.538  0.0784 -0.0410 -0.8110
  192SOL    HW2 1261   6.373  -0.029   2.618 -0.6274 -0.2350  0.3556
  193SOL     OW 1262   1.484   3.415   1.279  0.3193  0.1507  0.8017
  193SOL    HW1 1263   1.444   3.336   1.315 -0.6898  0.4800  0.4377
  193SOL    HW2 1264   1.463   3.484   1.341  1.1945  0.1514  1.1154
  194SOL     OW 1265   5.412   3.184   4.608  0.3639 -0.0969  0.0437
  194SOL    HW1 1266   5.438   3.101   4.648  1.2200  0.1782  0.0899
  194SOL    HW2 1267   5.491   3.213   4.562 -0.7215 -0.6937 -2.3786
  195SOL     OW 1268   1.414   3.619   1.478 -0.0239  0.4378  0.0559
  195SOL    HW1 1269   1.327   3.648   1.504  0.2002  1.2371 -0.0625
  195SOL    HW2 1270   1.470   3.643   1.551 -0.0611 -1.0313  0.5924
  196SOL     OW 1271   5.557   2.009   5.520  0.2130  0.3006 -0.3891
  196SOL    HW1 1272   5.550   2.104   5.530  1.2135  0.3045  0.4005
  196SOL    HW2 1273   5.578   1.978   5.608  2.1316 -0.4268 -1.0621
  197SOL     OW 1274   2.514   6.366   2.829  0.2862  0.3630  0.3022
  197SOL    HW1 1275   2.546   6.435   2.771  1.1195  0.1001  0.4459
  197SOL    HW2 1276   2.446   6.322   2.779  1.7083 -0.5389 -0.8942
  198SOL     OW 1277   5.299   1.656   4.494  0.0937 -0.5446  0.9294
  198SOL    HW1 1278   5.311   1.632   4.586  1.3814  0.2666  0.9882
  198SOL    HW2 1279   5.327   1.747   4.489 -1.4692 -0.0862  0.0260
  199SOL     OW 1280   3.261   4.336   0.578  0.1522  0.6840  0.3649
  199SOL    HW1 1281   3.261   4.284   0.658  2.0944 -1.8973 -1.1270
  199SOL    HW2 1282   3.348   4.376   0.575 -0.2392  1.5170  0.0037
  200SOL     OW 1283   2.578   6.230   4.062 -0.2124  0.3633  0.5679
  200SOL    HW1 1284   2.508   6.277   4.015  0.6149 -0.0337 -1.1269
  200SOL    HW2 1285   2.538   6.147   4.087 -0.3688  0.1365 -0.3950
  201SOL     OW 1286   4.221   6.631   5.872  0.3061 -0.0317  0.4584
  201SOL    HW1 1287   4.219   6.660   5.781  0.4443 -1.3594  0.0127
  201SOL    HW2 1288   4.293   6.680   5.911  1.5508 -0.9009 -0.6745
  202SOL     OW 1289   1.295   2.667   5.806 -0.0640 -0.0954 -0.1680
  202SOL    HW1 1290   1.200   2.664   5.799 -0.2933  2.7902  0.3880
  202SOL    HW2 1291   1.312   2.714   5.888  1.8492 -0.8193 -0.0933
  203SOL     OW 1292   1.595   6.427   3.156 -0.3492 -0.4430  0.0686
  203SOL    HW1 1293   1.583   6.355   3.217  0.0024  0.0523  0.7324
  203SOL    HW2 1294   1.596   6.385   3.069 -0.2573 -1.2142  0.4351
  204SOL     OW 1295   2.462   4.574   0.360 -0.3638 -0.2893 -0.2725
  204SOL    HW1 1296   2.545   4.617   0.381  0.2419 -1.4093 -0.2792
  204SOL    HW2 1297   2.425   4.628   0.290  0.4174  0.1587 -0.3589
  205SOL     OW 1298   0.388   2.857   2.643  0.2163 -0.0721 -0.3750
  205SOL    HW1 1299   0.334   2.885   2.717 -1.6699 -1.7155 -1.0571
  205SOL    HW2 1300   0.325   2.834   2.575  1.7445 -2.4273 -1.0914
  206SOL     OW 1301   5.272   6.048   4.524  0.4982  0.0006 -0.8948
  206SOL    HW1 1302   5.317   6.089   4.598 -1.0461 -0.9312  0.6437
  206SOL    HW2 1303   5.318   5.965   4.511 -0.2477 -0.5885  0.1442
  207SOL     OW 1304   0.786   2.881   3.978  0.8488 -0.5414  0.3001
  207SOL    HW1 1305   0.781   2.903   4.071  0.0866 -0.7568  0.3159
  207SOL    HW2 1306   0.855   2.814   3.973  0.6166 -0.8205  0.7690
  208SOL     OW 1307   6.170   1.976   0.768  0.0411  0.3604 -0.3885
  208SOL    HW1 1308   6.151   2.070   0.761 -1.8634  0.0152 -0.5218
  208SOL    HW2 1309   6.159   1.943   0.679  1.3402  0.0971 -0.4629
  209SOL     OW 1310   5.687   1.476   3.485 -0.1253  0.0366  0.0320
  209SOL    HW1 1311   5.759   1.532   3.513  1.5183 -1.4429 -1.0450
  209SOL    HW2 1312   5.639   1.456   3.566  0.4635  1.2947  0.7190
  210SOL     OW 1313   4.533   2.129   1.024 -0.1107 -0.0650  0.3341
  210SOL    HW1 1314   4.494   2.129   1.112 -0.5769  0.6931  0.1364
  210SOL    HW2 1315   4.578   2.213   1.019  1.3128 -0.7967  0.4462
  211SOL     OW 1316   4.066   6.060   5.860  0.0056 -0.0402  0.7557
  211SOL    HW1 1317   4.096   5.998   5.926  0.2692 -0.3286  0.3759
  211SOL    HW2 1318   4.005   6.118   5.906 -1.8478 -1.8357  0.6748
  212SOL     OW 1319   3.187   4.285   5.398  0.5962 -0.1348 -0.5281
  212SOL    HW1 1320   3.234   4.214   5.440  1.5400  1.0616  0.5310
  212SOL    HW2 1321   3.165   4.345   5.469 -1.0960  0.1538 -1.2456
  213SOL     OW 1322   3.293   6.542   0.442  0.0454 -0.1472 -0.0284
  213SOL    HW1 1323   3.360   6.511   0.381  1.5464  1.3118  0.8027
  213SOL    HW2 1324   3.287   6.473   0.509  0.3247 -0.5200 -0.3885
  214SOL     OW 1325   6.393   3.187   0.250  0.5359  0.2733 -0.0453
  214SOL    HW1 1326   6.450   3.252   0.292  1.2293 -0.4834  0.1940
  214SOL    HW2 1327   6.419   3.103   0.289  0.1875 -0.2510 -0.9233
  215SOL     OW 1328   4.082   0.693   1.845 -0.1569  0.1713  0.0204
  215SOL    HW1 1329   4.084   0.788   1.859  0.5467  0.2364 -0.4826
  215SOL    HW2 1330   4.004   0.679   1.791  1.1887  0.7992 -2.1702
  216SOL     OW 1331   4.004   0.599   1.016 -0.3660  0.4211  0.5496
  216SOL    HW1 1332   3.927   0.597   0.959 -0.0261 -0.5223  0.0999
  216SOL    HW2 1333   4.078   0.587   0.956 -0.0166 -0.8861  1.2097
  217SOL     OW 1334   4.261   5.693   2.290  0.1196  0.5423  0.4484
  217SOL    HW1 1335   4.190   5.726   2.236 -0.2627  0.6940  1.0451
  217SOL    HW2 1336   4.256   5.743   2.371  1.5322  1.2700  0.1130
  218SOL     OW 1337   5.257   5.700   0.236  0.2599  0.0827  0.1980
  218SOL    HW1 1338   5.316   5.631   0.208 -0.6384 -0.8669  0.5991
  218SOL    HW2 1339   5.175   5.681   0.192  1.0510  3.3262 -3.1709
  219SOL     OW 1340   2.708   1.756   2.260 -0.1249 -0.0698 -0.6781
  219SOL    HW1 1341   2.776   1.692   2.279 -1.0684 -1.3611 -1.4776
  219SOL    HW2 1342   2.627   1.705   2.254 -1.1736  1.4102  0.1870
  220SOL     OW 1343   2.678   4.700   0.462 -0.0679 -0.2441 -0.1987
  220SOL    HW1 1344   2.765   4.741   0.467 -0.3141  0.2388  0.1646
  220SOL    HW2 1345   2.681   4.633   0.531 -0.5208  0.8269  0.9094
  221SOL     OW 1346   0.728   6.019   0.608 -0.1505 -0.2378  0.1724
  221SOL    HW1 1347   0.724   6.013   0.703  0.0757  1.0430  0.2769
  221SOL    HW2 1348   0.643   6.056   0.583  0.0002 -0.0483 -0.0692
  222SOL     OW 1349   5.604   3.329   6.332 -0.2716  0.0650  0.0273
  222SOL    HW1 1350   5.580   3.341   6.424  0.3365 -0.8390  0.3191
  222SOL    HW2 1351   5.662   3.253   6.332 -0.5616 -0.1801 -1.1562
  223SOL     OW 1352   6.205   5.524   3.001  0.3743 -0.0762 -0.2430
  223SOL    HW1 1353   6.263   5.516   2.925  1.0245 -0.1984  0.2614
  223SOL    HW2 1354   6.206   5.617   3.023  3.4803 -0.5364  2.1254
  224SOL     OW 1355   4.671   1.145   0.274 -0.5167  0.9512  0.4288
  224SOL    HW1 1356   4.605   1.083   0.306  0.5919 -2.1657 -2.6780
  224SOL    HW2 1357   4.628   1.190   0.201 -0.2125  1.3643  0.4982
  225SOL     OW 1358   1.629   1.887   6.335 -0.0995  0.2573 -0.0712
  225SOL    HW1 1359   1.697   1.874   6.401  0.0416  1.0665 -0.0359
  225SOL    HW2 1360   1.585   1.968   6.362  0.7532  1.2864 -1.6028
  226SOL     OW 1361   1.526   1.427   1.372 -0.2081 -0.2278  0.1759
  226SOL    HW1 1362   1.438   1.447   1.342  0.3278 -1.0350 -2.1333
  226SOL    HW2 1363   1.569   1.513   1.381 -0.3960  0.0700 -1.5035
  227SOL     OW 1364   6.422   3.789   6.675 -0.3252 -0.0440  0.4145
  227SOL    HW1 1365   6.491   3.727   6.652  1.3921  1.6735  0.6663
  227SOL    HW2 1366   6.345   3.758   6.627  0.4724 -2.2963  0.5033
  228SOL     OW 1367   2.592   5.358   0.715 -0.4646 -0.4995  0.3797
  228SOL    HW1 1368   2.515   5.403   0.679 -0.2765 -0.8086 -0.4141
  228SOL    HW2 1369   2.665   5.416   0.694 -0.3803 -0.5774  0.4579
  229SOL     OW 1370   6.496   0.970   4.627 -0.4066  0.2952 -0.3526
  229SOL    HW1 1371   6.560   1.034   4.655  1.7207 -1.4690 -0.9404
  229SOL    HW2 1372   6.478   0.918   4.706  0.2668 -0.3178 -0.5952
  230SOL     OW 1373   3.501   3.458   6.379 -0.5389 -0.2495  0.3593
  230SOL    HW1 1374   3.485   3.455   6.473  1.7670 -0.7275  0.7887
  230SOL    HW2 1375   3.543   3.543   6.364  1.0322 -1.0206  0.1549
  231SOL     OW 1376   5.610   1.358   5.237 -0.2709 -0.6465 -0.0524
  231SOL    HW1 1377   5.584   1.311   5.158 -0.4971  0.4016 -0.6301
  231SOL    HW2 1378   5.602   1.294   5.308 -1.0209 -1.3244 -0.7359
  232SOL     OW 1379   0.154   2.644   1.838 -0.0267  0.0994 -0.1031
  232SOL    HW1 1380   0.112   2.613   1.918  2.6239  2.3824  2.3864
  232SOL    HW2 1381   0.193   2.565   1.800 -2.6252 -1.2950 -0.1444
  233SOL     OW 1382   4.957   2.346   6.890 -0.0278 -0.4299  0.6058
  233SOL    HW1 1383   5.022   2.294   6.844 -1.2871 -1.1836 -0.3941
  233SOL    HW2 1384   4.983   2.437   6.876  0.1090 -0.6807 -0.8588
  234SOL     OW 1385   6.783   6.350   0.800 -0.0810  0.0683 -0.0178
  234SOL    HW1 1386   6.875   6.369   0.780  0.4074  1.1937  2.8565
  234SOL    HW2 1387   6.787   6.284   0.869 -1.2665  1.6124  1.6308
  235SOL     OW 1388   4.898   6.311   0.420 -0.5002  0.5599  0.0515
  235SOL    HW1 1389   4.812   6.318   0.461 -0.9010  0.6281 -0.7668
  235SOL    HW2 1390   4.960   6.327   0.491 -1.0525 -2.4012  1.3243
  236SOL     OW 1391   3.138   5.267   3.816 -0.9290  0.1118  0.6574
  236SOL    HW1 1392   3.204   5.218   3.766 -0.5053  0.9242  0.4143
  236SOL    HW2 1393   3.188   5.328   3.870 -1.5017  1.1398  0.0452
  237SOL     OW 1394   2.021   5.177   0.114  0.1283  0.0537 -0.3206
  237SOL    HW1 1395   1.974   5.255   0.086  1.2001  0.4650 -1.0457
  237SOL    HW2 1396   2.042   5.131   0.032  1.2383  0.0451 -0.0479
  238SOL     OW 1397   6.690   0.038   0.598 -0.2550  1.1735  0.1460
  238SOL    HW1 1398   6.781   0.021   0.620 -0.5436  0.6031  0.9422
  238SOL    HW2 1399   6.651   0.073   0.678 -0.7295  1.4405 -0.1946
  239SOL     OW 1400   2.152   6.342   5.312 -0.0611  0.0832 -0.5746
  239SOL    HW1 1401   2.227   6.293   5.279 -0.1738 -0.9995  0.7152
  239SOL    HW2 1402   2.125   6.396   5.238  1.0639 -0.6111 -1.5296
  240SOL     OW 1403   4.987   6.739   1.460  0.2092  0.5396  0.3471
  240SOL    HW1 1404   4.972   6.810   1.522 -0.5441 -0.0049  0.8144
  240SOL    HW2 1405   4.948   6.769   1.378  0.1913  0.7961  0.4487
  241SOL     OW 1406   1.597   3.980   1.130  0.2861  0.4219  0.1550
  241SOL    HW1 1407   1.672   3.989   1.071 -0.6971  1.4132 -1.0152
  241SOL    HW2 1408   1.530   3.937   1.077 -0.7223  1.5993  0.4355
  242SOL     OW 1409   4.925   6.510   6.090  0.2286 -0.3011 -0.4227
  242SOL    HW1 1410   4.839   6.505   6.048 -0.1748 -2.2786  0.5122
  242SOL    HW2 1411   4.906   6.524   6.182  0.9217 -0.4143 -0.2576
  243SOL     OW 1412   2.794   2.414   1.952  0.1631  0.5831  0.5048
  243SOL    HW1 1413   2.804   2.509   1.946  0.1683  0.5526  0.0111
  243SOL    HW2 1414   2.705   2.401   1.984  0.6589  0.7855  2.0416
  244SOL     OW 1415   1.224   5.769   1.817 -0.1971 -0.2531  0.3290
  244SOL    HW1 1416   1.212   5.834   1.887 -0.9275 -0.5898  0.5227
  244SOL    HW2 1417   1.198   5.815   1.737 -3.1358 -0.9957  0.7423
  245SOL     OW 1418   5.517   0.822   0.008  0.0065 -0.2026  0.4262
  245SOL    HW1 1419   5.593   0.852   0.057 -0.8569 -1.2932  2.5862
  245SOL    HW2 1420   5.548   0.810  -0.081  1.9306  0.8867  0.9028
  246SOL     OW 1421   1.056   2.357   1.480  0.0437 -0.3955 -0.5982
  246SOL    HW1 1422   1.025   2.315   1.561  1.0654 -1.3895 -0.7085
  246SOL    HW2 1423   1.149   2.371   1.495  0.7385 -2.5725 -2.3889
  247SOL     OW 1424   3.857   1.893   3.911 -0.0014  0.2538  0.1660
  247SOL    HW1 1425   3.877   1.941   3.831 -2.0337  0.8170 -0.0437
  247SOL    HW2 1426   3.765   1.913   3.929 -0.2297 -1.6885  1.3904
  248SOL     OW 1427   1.367   5.957   0.244 -0.2247  0.1045  0.6425
  248SOL    HW1 1428   1.275   5.986   0.238  0.2333  1.5279 -0.0708
  248SOL    HW2 1429   1.376   5.892   0.174 -0.5374  0.4240  0.2985
  249SOL     OW 1430   3.962   5.479   4.800  0.4338  0.4363  0.3271
  249SOL    HW1 1431   4.052   5.511   4.811  1.3398 -1.3743 -1.2179
  249SOL    HW2 1432   3.956   5.403   4.858 -0.3958  1.0344  1.0420
  250SOL     OW 1433   5.844   4.304   5.973  0.8016  0.7408  0.3038
  250SOL    HW1 1434   5.830   4.298   6.068  1.2099  0.1682  0.3336
  250SOL    HW2 1435   5.922   4.359   5.964  1.0514  0.3942  0.3254
  251SOL     OW 1436   3.670   2.753   5.697 -0.3109  0.4582  0.1782
  251SOL    HW1 1437   3.691   2.728   5.607  0.0049  2.2129 -0.2682
  251SOL    HW2 1438   3.753   2.782   5.734 -0.1548 -1.5118  1.5238
  252SOL     OW 1439   1.249   1.116   2.956  0.2689 -0.2095  0.7869
  252SOL    HW1 1440   1.183   1.048   2.971 -0.4685 -0.0183 -1.2697
  252SOL    HW2 1441   1.198   1.196   2.944  0.9676  0.2047  0.5297
  253SOL     OW 1442   3.945   4.773   0.345  0.1717 -0.5918 -0.2236
  253SOL    HW1 1443   3.881   4.784   0.275 -0.5413  0.8122  0.6112
  253SOL    HW2 1444   3.893   4.770   0.425  1.1202  0.9470  0.5020
  254SOL     OW 1445   0.680   0.391   2.721  0.5179 -0.1407  0.0689
  254SOL    HW1 1446   0.688   0.470   2.667 -0.7890 -0.8021 -1.1595
  254SOL    HW2 1447   0.624   0.333   2.670 -0.9539 -0.7301  2.2143
  255SOL     OW 1448   3.917   6.130   2.009 -0.0243 -0.2011  0.1819
  255SOL    HW1 1449   3.830   6.165   2.026 -0.2748 -0.7050 -0.0374
  255SOL    HW2 1450   3.950   6.104   2.095 -0.2084 -0.2800  0.2287
  256SOL     OW 1451   4.408   4.379   0.659  0.2114  0.4354 -0.0715
  256SOL    HW1 1452   4.315   4.403   0.657 -0.0254 -0.4302 -2.0018
  256SOL    HW2 1453   4.414   4.311   0.726 -0.5800  0.3642 -0.0677
  257SOL     OW 1454   5.532   3.750   6.173  0.0210 -0.1428 -0.4670
  257SOL    HW1 1455   5.468   3.691   6.212 -0.8971  1.7447  1.0535
  257SOL    HW2 1456   5.495   3.771   6.087 -0.4930 -0.4757 -0.3332
  258SOL     OW 1457   3.816   0.752   5.594 -0.0831  0.8431 -0.3265
  258SOL    HW1 1458   3.728   0.790   5.591  0.1178  2.4283  4.4383
  258SOL    HW2 1459   3.874   0.824   5.567 -0.1037  0.9158 -0.1769
  259SOL     OW 1460   1.669   4.013   4.317 -0.4131  0.5668 -0.0426
  259SOL    HW1 1461   1.696   4.087   4.371  1.0384  0.4244 -0.5397
  259SOL    HW2 1462   1.614   4.053   4.249 -0.5850  1.0170  0.3527
  260SOL     OW 1463   5.435   2.167   3.655  0.2354  0.6277  0.1382
  260SOL    HW1 1464   5.359   2.115   3.629  0.9462 -1.6158  2.1282
  260SOL    HW2 1465   5.447   2.146   3.748  2.8654  1.4534  0.0549
  261SOL     OW 1466   6.608   4.565   3.244  0.1588 -0.8424 -0.2510
  261SOL    HW1 1467   6.653   4.486   3.216 -1.0740 -2.0842  1.0922
  261SOL    HW2 1468   6.516   4.549   3.223 -0.1539  0.1071  0.2980
  262SOL     OW 1469   4.585   2.667   2.331 -0.3593 -0.2812  0.2627
  262SOL    HW1 1470   4.618   2.755   2.313 -0.2101 -0.6379 -1.2840
  262SOL    HW2 1471   4.517   2.652   2.265  0.5009 -1.8002 -0.3369
  263SOL     OW 1472   1.558   2.550   0.319 -0.5157 -0.0790  0.7692
  263SOL    HW1 1473   1.531   2.639   0.339  0.0066  0.1373  0.5474
  263SOL    HW2 1474   1.493   2.518   0.256  1.4050  1.5948 -2.3695
  264SOL     OW 1475   3.686   6.390   2.610  0.0136  0.2878  0.1289
  264SOL    HW1 1476   3.753   6.337   2.652  0.6668  1.1480  0.1990
  264SOL    HW2 1477   3.613   6.390   2.671 -1.2394 -3.0113 -1.1623
  265SOL     OW 1478   1.089   5.727   2.435  0.1441 -0.3612 -0.0436
  265SOL    HW1 1479   1.019   5.759   2.378  0.3489  1.4530  0.6556
  265SOL    HW2 1480   1.074   5.772   2.518  1.9521 -0.1822  0.2149
  266SOL     OW 1481   2.015   2.044   3.171 -0.3490  0.4545 -0.1252
  266SOL    HW1 1482   2.065   2.029   3.251 -0.3189 -0.2067 -0.2628
  266SOL    HW2 1483   2.050   2.126   3.136  0.1076  0.3987  0.1849
  267SOL     OW 1484   2.910   3.751   6.416  0.3901 -0.6160  0.5768
  267SOL    HW1 1485   3.003   3.729   6.407  0.8747  1.2910  0.4697
  267SOL    HW2 1486   2.882   3.774   6.328  0.1599  0.0404  0.8166
  268SOL     OW 1487   4.533   2.113   4.628  0.4339  0.4099  0.2307
  268SOL    HW1 1488   4.627   2.132   4.631  0.4763  0.2276  0.0813
  268SOL    HW2 1489   4.495   2.172   4.692  0.8965 -0.9748  1.8636
  269SOL     OW 1490   1.529   4.881   1.499 -0.9397 -0.1503  0.1575
  269SOL    HW1 1491   1.514   4.969   1.535 -1.4150  0.0386 -0.4878
  269SOL    HW2 1492   1.489   4.822   1.563 -1.8492  0.1868 -0.0854
  270SOL     OW 1493   3.960   2.353   5.892 -0.1480  0.2098 -0.1140
  270SOL    HW1 1494   3.906   2.348   5.813  0.4373  1.3130 -0.6235
  270SOL    HW2 1495   3.898   2.360   5.964 -0.6875 -0.2122 -0.5366
  271SOL     OW 1496   2.642   4.668   1.921 -0.0485  0.3038 -0.2887
  271SOL    HW1 1497   2.565   4.657   1.866 -0.7855  1.2511  0.5119
  271SOL    HW2 1498   2.697   4.592   1.902 -1.5695 -0.8305 -0.2597
  272SOL     OW 1499   3.984   2.369   3.369  0.4205 -0.1436  0.2364
  272SOL    HW1 1500   4.071   2.346   3.337  0.6109  1.8385 -0.8394
  272SOL    HW2 1501   3.978   2.328   3.455  3.3830  1.5592  1.4034
  273SOL     OW 1502   1.656   4.039   3.724 -0.6825  0.1932 -0.4887
  273SOL    HW1 1503   1.752   4.044   3.724 -0.7051  0.6566 -0.8802
  273SOL    HW2 1504   1.637   3.958   3.772 -0.1042  0.2277 -0.1867
  274SOL     OW 1505   2.270   5.077   1.205 -0.5203 -0.3215  0.3028
  274SOL    HW1 1506   2.188   5.056   1.159  0.6385 -0.2700 -1.9416
  274SOL    HW2 1507   2.289   5.167   1.179  0.5172 -0.5132  0.3756
  275SOL     OW 1508   5.974   2.319   3.594  0.0279  0.0523 -0.2182
  275SOL    HW1 1509   5.921   2.308   3.673 -0.1966  1.6638 -0.1117
  275SOL    HW2 1510   5.910   2.317   3.522  0.4109 -3.3642 -0.6142
  276SOL     OW 1511   6.264   1.144   5.460 -0.1830 -0.7616 -0.1040
  276SOL    HW1 1512   6.205   1.188   5.522  2.1934 -0.0024  1.7894
  276SOL    HW2 1513   6.219   1.063   5.437 -2.7269  0.5888 -0.1961
  277SOL     OW 1514   4.345   6.007   2.396  0.1688 -0.5718  0.1449
  277SOL    HW1 1515   4.301   5.955   2.463 -0.5950  0.1192  0.2082
  277SOL    HW2 1516   4.367   6.089   2.440  3.5679 -1.6721  0.7412
  278SOL     OW 1517   5.057   2.872   4.136  0.4507 -0.2865  0.0909
  278SOL    HW1 1518   5.008   2.924   4.072  0.6259  0.0615  0.2381
  278SOL    HW2 1519   5.135   2.924   4.154 -0.1536  0.1891  1.4829
  279SOL     OW 1520   0.877   1.460   4.649 -0.0608  0.8969  0.9231
  279SOL    HW1 1521   0.897   1.537   4.595 -2.6699  1.6845  0.9121
  279SOL    HW2 1522   0.929   1.471   4.728  0.1631  2.3197  0.6011
  280SOL     OW 1523   4.784   4.866   2.154 -0.2676  0.2824 -0.1921
  280SOL    HW1 1524   4.809   4.953   2.123  0.2885 -0.5467 -2.2129
  280SOL    HW2 1525   4.853   4.842   2.216 -0.1193  1.0282 -0.0557
  281SOL     OW 1526   5.975   1.732   2.187  0.0164  0.0111 -0.8166
  281SOL    HW1 1527   5.923   1.660   2.222  0.2038  0.4062  0.2965
  281SOL    HW2 1528   5.948   1.738   2.095 -2.5435  0.7479 -0.1036
  282SOL     OW 1529   0.631   3.845   5.869 -0.3403  0.4370  0.0858
  282SOL    HW1 1530   0.581   3.770   5.900 -1.1517  1.0987  0.4491
  282SOL    HW2 1531   0.660   3.821   5.781 -1.2769  0.0050 -0.1181
  283SOL     OW 1532   1.835   1.855   0.313 -0.2321  0.1344 -0.0922
  283SOL    HW1 1533   1.751   1.899   0.329  0.3437  1.1092  0.3440
  283SOL    HW2 1534   1.856   1.814   0.397 -1.0871 -1.6261 -0.6662
  284SOL     OW 1535   1.167   2.820   4.717 -0.0167 -0.1863  0.2066
  284SOL    HW1 1536   1.220   2.866   4.652 -1.4893 -0.0457 -0.9616
  284SOL    HW2 1537   1.116   2.757   4.665 -0.2845 -0.9867  1.4009
  285SOL     OW 1538   5.908   1.791   3.283 -0.1859 -0.5860  0.1084
  285SOL    HW1 1539   5.900   1.820   3.192 -2.4542 -2.6155 -0.4182
  285SOL    HW2 1540   5.962   1.712   3.278 -0.1262 -0.5740  0.5612
  286SOL     OW 1541   6.514   5.979   2.249  0.6339 -0.3232 -0.0579
  286SOL    HW1 1542   6.450   5.965   2.178 -0.4085 -0.8111  0.9340
  286SOL    HW2 1543   6.597   5.947   2.213 -0.0159 -1.2258 -0.8251
  287SOL     OW 1544   2.597   6.898   4.702  0.2492  0.3371  0.1480
  287SOL    HW1 1545   2.521   6.954   4.715 -0.1036  0.1261 -0.9119
  287SOL    HW2 1546   2.561   6.810   4.691  0.5567  0.3572 -1.2075
  288SOL     OW 1547   5.997   5.467   5.324  0.2712  0.0764 -0.0870
  288SOL    HW1 1548   6.065   5.433   5.266  0.6654  0.3663  0.2096
  288SOL    HW2 1549   5.916   5.458   5.273  0.4072 -1.0215 -0.1333
  289SOL     OW 1550   5.226   2.813   2.586  0.1905  0.9730  0.4203
  289SOL    HW1 1551   5.239   2.903   2.557 -0.8312  1.2852  0.9113
  289SOL    HW2 1552   5.144   2.786   2.543  1.0227 -0.0867 -0.5728
  290SOL     OW 1553   1.009   6.452   4.792  0.5548  0.2173 -0.2165
  290SOL    HW1 1554   1.032   6.359   4.793 -0.5463 -0.0682 -0.0424
  290SOL    HW2 1555   0.914   6.453   4.792  0.5495  1.3506 -0.6871
  291SOL     OW 1556   5.539   5.484   3.508  0.4125  0.1546  0.0590
  291SOL    HW1 1557   5.603   5.473   3.579 -0.3553 -3.0889  0.3713
  291SOL    HW2 1558   5.576   5.434   3.435  0.0124  1.4458 -1.0665
  292SOL     OW 1559   4.597   5.342   5.103  0.9556 -0.1831 -0.4371
  292SOL    HW1 1560   4.570   5.320   5.192  0.2997  0.7384 -0.3901
  292SOL    HW2 1561   4.516   5.371   5.061  1.2710 -0.5800 -1.3253
  293SOL     OW 1562   5.243   3.852   1.934 -0.1243  0.0585 -0.4385
  293SOL    HW1 1563   5.337   3.832   1.939 -0.1506 -0.5445 -1.8817
  293SOL    HW2 1564   5.203   3.789   1.995  0.2701 -0.8091 -1.0538
  294SOL     OW 1565   0.408   1.184   6.417  0.2662 -0.3978  0.0948
  294SOL    HW1 1566   0.466   1.213   6.347  0.9229  0.0440  0.8021
  294SOL    HW2 1567   0.338   1.137   6.372  0.2608  0.5336 -0.9212
  295SOL     OW 1568   6.204   6.227   3.251 -0.7332 -0.5733  0.4759
  295SOL    HW1 1569   6.291   6.244   3.288 -0.5089 -0.0489 -0.2799
  295SOL    HW2 1570   6.222   6.182   3.169 -1.1450  0.1761 -0.0311
  296SOL     OW 1571   4.363   1.181   1.117 -0.1390  0.8766  0.1361
  296SOL    HW1 1572   4.401   1.187   1.029  0.3800 -0.1507  0.2715
  296SOL    HW2 1573   4.392   1.096   1.149 -2.1360  0.2767  0.4684
  297SOL     OW 1574   3.456   0.281   1.713 -0.3588  0.0175 -0.2312
  297SOL    HW1 1575   3.441   0.220   1.786  1.7569  0.2244  0.4377
  297SOL    HW2 1576   3.439   0.368   1.751 -1.0098  0.0224 -0.5147
  298SOL     OW 1577   4.824   0.759   6.248  0.0586 -0.4695 -0.1140
  298SOL    HW1 1578   4.803   0.717   6.331 -1.3492  1.8345  0.7846
  298SOL    HW2 1579   4.863   0.843   6.273  1.0592 -0.3810 -1.8114
  299SOL     OW 1580   3.532   3.130   3.893 -0.2536  0.1690 -0.2121
  299SOL    HW1 1581   3.605   3.148   3.835 -0.3697  0.3621 -0.2985
  299SOL    HW2 1582   3.541   3.193   3.964  2.2158 -2.5334  2.1600
  300SOL     OW 1583   6.557   5.317   1.848  0.0503 -0.2718 -0.2397
  300SOL    HW1 1584   6.494   5.383   1.817  0.9186  1.1148  0.8035
  300SOL    HW2 1585   6.502   5.246   1.880 -1.0073  0.7438  0.3141
  301SOL     OW 1586   2.743   5.103   0.732 -0.0795 -0.1535 -0.3802
  301SOL    HW1 1587   2.741   5.072   0.822 -1.2203 -2.0763 -1.0201
  301SOL    HW2 1588   2.670   5.165   0.726  0.2027  0.2316  0.0799
  302SOL     OW 1589   3.845   4.009   4.661  0.4842  0.3251  0.0349
  302SOL    HW1 1590   3.808   4.097   4.658 -0.5580 -0.0008  1.8364
  302SOL    HW2 1591   3.849   3.982   4.569  0.3374  2.0387 -0.5107
  303SOL     OW 1592   3.587   3.413   0.882  0.3328  0.9006  0.4975
  303SOL    HW1 1593   3.649   3.342   0.898  1.7284  1.4641 -1.9096
  303SOL    HW2 1594   3.512   3.370   0.840  0.8709  0.7257 -0.3104
  304SOL     OW 1595   0.448   3.912   0.623  0.2201  0.2100  0.1806
  304SOL    HW1 1596   0.431   3.838   0.683  2.4110 -0.1977  0.3760
  304SOL    HW2 1597   0.514   3.964   0.668  0.2678  1.1268 -0.9178
  305SOL     OW 1598   6.744   6.079   4.027  0.6646  0.2099 -0.1410
  305SOL    HW1 1599   6.822   6.104   4.076  1.5951  0.3016 -1.5862
  305SOL    HW2 1600   6.745   6.137   3.950 -1.1056  0.5517  0.0366
  306SOL     OW 1601   6.665   1.140   1.260  0.1959 -0.4572 -0.4493
  306SOL    HW1 1602   6.683   1.061   1.208 -1.4618 -0.3202 -1.3005
  306SOL    HW2 1603   6.614   1.196   1.201 -0.9933  0.0906  1.0417
  307SOL     OW 1604   5.681   3.475   2.539  0.9944  0.4263  0.2155
  307SOL    HW1 1605   5.712   3.385   2.525  2.5205  0.9928 -0.2612
  307SOL    HW2 1606   5.700   3.493   2.631 -1.5884 -0.5287  1.0291
  308SOL     OW 1607   2.835   0.835   0.861  0.1758  0.2089  0.0651
  308SOL    HW1 1608   2.788   0.906   0.819  0.0972  0.3840  0.4486
  308SOL    HW2 1609   2.800   0.755   0.821 -0.4132  0.3376  0.3178
  309SOL     OW 1610   6.236   1.449   6.843 -0.0408  0.1735 -0.2655
  309SOL    HW1 1611   6.159   1.505   6.855  0.5218  0.9629 -0.2804
  309SOL    HW2 1612   6.310   1.508   6.856  0.5784 -0.8535  1.0607
  310SOL     OW 1613   3.831   5.710   3.983  0.1228  0.1951 -0.2157
  310SOL    HW1 1614   3.838   5.717   4.078 -0.0643 -0.9811 -0.1051
  310SOL    HW2 1615   3.738   5.716   3.964  0.1971  0.9191 -0.3749
  311SOL     OW 1616   5.196   3.829   1.631  0.4163  0.0485 -0.5058
  311SOL    HW1 1617   5.200   3.826   1.727 -1.5625  0.7492 -0.3460
  311SOL    HW2 1618   5.150   3.749   1.607 -0.8227  0.7804 -0.6819
  312SOL     OW 1619   5.674   5.852   2.620  0.1898  0.3033 -0.4102
  312SOL    HW1 1620   5.757   5.883   2.585  0.4950 -0.4794 -0.4064
  312SOL    HW2 1621   5.678   5.756   2.610  1.1164 -0.2158  3.4648
  313SOL     OW 1622   6.888   1.751   1.758  0.0339  0.4080  0.4038
  313SOL    HW1 1623   6.978   1.718   1.764 -0.4205 -1.2185 -1.0142
  313SOL    HW2 1624   6.841   1.705   1.827 -0.3749 -1.2730 -0.9259
  314SOL     OW 1625   0.276   5.275   3.631 -0.1430  0.5371 -0.3615
  314SOL    HW1 1626   0.290   5.201   3.572  1.3497 -0.0577  0.6687
  314SOL    HW2 1627   0.267   5.236   3.717 -1.5559  1.4419 -0.0701
  315SOL     OW 1628   2.264   2.481   2.011 -0.1436 -1.3234 -0.2179
  315SOL    HW1 1629   2.326   2.546   1.979 -0.2398 -1.2591 -0.2764
  315SOL    HW2 1630   2.179   2.525   2.006 -0.5833 -2.2650 -2.6569
  316SOL     OW 1631   1.233   6.106   3.462  0.3562 -0.4198  0.3530
  316SOL    HW1 1632   1.263   6.173   3.523  0.3278  0.5216 -0.6195
  316SOL    HW2 1633   1.138   6.119   3.456  0.4770  0.1096 -0.5737
  317SOL     OW 1634   1.425   5.379   5.794 -0.5481  0.3912  0.1556
  317SOL    HW1 1635   1.395   5.331   5.871  1.2362  0.8573  1.2167
  317SOL    HW2 1636   1.392   5.468   5.807  0.1563  0.5927  0.6791
  318SOL     OW 1637   1.495   1.277   6.897  0.1617 -0.0076 -0.3802
  318SOL    HW1 1638   1.565   1.257   6.959 -0.4576 -0.2638  0.2568
  318SOL    HW2 1639   1.418   1.233   6.933 -0.7070  1.5687 -0.1824
  319SOL     OW 1640   4.436   1.336   4.616 -0.2818 -0.3723  0.5961
  319SOL    HW1 1641   4.457   1.429   4.614 -0.0948 -0.4172 -0.0425
  319SOL    HW2 1642   4.509   1.295   4.664 -1.0725 -0.0366  2.1332
  320SOL     OW 1643   3.282   2.097   2.565  0.0694  0.1151 -0.1386
  320SOL    HW1 1644   3.198   2.100   2.610  0.4043 -1.2620  0.6470
  320SOL    HW2 1645   3.341   2.151   2.618 -0.1455  0.5364 -0.3243
  321SOL     OW 1646   0.551   4.323   4.979 -0.0753 -0.3181 -0.5662
  321SOL    HW1 1647   0.468   4.370   4.987 -0.5628 -1.2141 -0.2748
  321SOL    HW2 1648   0.571   4.295   5.069  0.4833 -0.2146 -0.6558
  322SOL     OW 1649   4.424   0.078   4.867  0.1927 -0.8234  0.0529
  322SOL    HW1 1650   4.503   0.086   4.921 -1.0690 -0.9879  2.0562
  322SOL    HW2 1651   4.427   0.154   4.809  0.3352  0.9417  2.2400
  323SOL     OW 1652   5.114   0.522   4.111 -0.2180  0.1755  0.0447
  323SOL    HW1 1653   5.111   0.531   4.206  1.5002 -1.3505  0.2962
  323SOL    HW2 1654   5.180   0.455   4.095 -0.5130  0.3419 -2.2389
  324SOL     OW 1655   2.178   2.004   5.285  0.0772 -0.5955  0.0622
  324SOL    HW1 1656   2.125   2.060   5.228  1.1679 -2.0495 -2.5741
  324SOL    HW2 1657   2.259   2.054   5.298 -0.0101 -0.4270 -0.0274
  325SOL     OW 1658   1.048   6.571   4.463  0.2534  0.2806 -0.0758
  325SOL    HW1 1659   1.143   6.581   4.464  0.0985  2.1270  1.0498
  325SOL    HW2 1660   1.030   6.504   4.530  0.7151  0.8608  0.6510
  326SOL     OW 1661   3.179   1.386   3.535 -0.1333 -0.1103 -0.0950
  326SOL    HW1 1662   3.094   1.377   3.493  0.1589  1.5600 -1.1823
  326SOL    HW2 1663   3.170   1.343   3.620 -1.8365 -0.5380 -0.4690
  327SOL     OW 1664   5.881   5.952   0.609 -0.3237  0.1373 -0.1865
  327SOL    HW1 1665   5.827   5.968   0.532  1.0063  0.1105 -1.1534
  327SOL    HW2 1666   5.840   5.878   0.653 -2.0617  1.2018  0.0667
  328SOL     OW 1667   3.403   2.773   5.591  0.0716 -0.0093 -0.0181
  328SOL    HW1 1668   3.468   2.828   5.635  0.1584 -0.2911  0.2078
  328SOL    HW2 1669   3.439   2.685   5.596  0.0079 -0.0643 -0.5226
  329SOL     OW 1670   5.932   2.148   1.231  0.4641  0.0596  0.1188
  329SOL    HW1 1671   6.017   2.186   1.213  1.4137 -1.3813  1.2775
  329SOL    HW2 1672   5.941   2.108   1.318 -1.1449 -0.8005 -0.0603
  330SOL     OW 1673   4.648   6.820   5.100 -0.1138 -0.5329  0.4994
  330SOL    HW1 1674   4.675   6.741   5.145  1.9851 -0.7023 -0.9346
  330SOL    HW2 1675   4.578   6.791   5.041 -0.5732 -0.9386  1.2261
  331SOL     OW 1676   4.262   0.423   0.889 -0.0881 -0.4099  0.1215
  331SOL    HW1 1677   4.295   0.460   0.806 -0.9828  0.5967  0.1915
  331SOL    HW2 1678   4.184   0.373   0.864 -2.0794  2.2371  0.6144
  332SOL     OW 1679   4.137   0.992   2.454  0.5519 -0.0772  0.0691
  332SOL    HW1 1680   4.053   1.036   2.465  0.6389  0.3355 -0.8254
  332SOL    HW2 1681   4.118   0.900   2.470 -0.4033 -0.2008 -1.5271
  333SOL     OW 1682   2.479   6.623   5.045  0.3692  0.0240 -0.1624
  333SOL    HW1 1683   2.441   6.549   5.092 -1.1820  1.5691  1.1775
  333SOL    HW2 1684   2.406   6.659   4.994  0.8597  1.1208 -0.1188
  334SOL     OW 1685   1.780   4.202   5.709 -0.2971  0.0014 -0.2375
  334SOL    HW1 1686   1.779   4.214   5.804 -0.5739 -0.3887 -0.1859
  334SOL    HW2 1687   1.693   4.231   5.680 -0.1167  0.3794 -0.4081
  335SOL     OW 1688   0.974   3.173   6.398  0.5983  0.0820 -0.1101
  335SOL    HW1 1689   0.908   3.175   6.468 -0.0234  1.2194 -0.6937
  335SOL    HW2 1690   1.057   3.187   6.444  0.3354 -0.3927  0.5336
  336SOL     OW 1691   5.817   6.775   6.683  0.7430  0.3582 -0.2148
  336SOL    HW1 1692   5.771   6.692   6.674 -1.9289  1.6637  0.3014
  336SOL    HW2 1693   5.893   6.755   6.737  0.0138 -1.7103  0.1249
  337SOL     OW 1694   0.334   0.567   2.475  0.0707  0.8219  0.4283
  337SOL    HW1 1695   0.263   0.631   2.473  0.2312  0.9918 -0.0182
  337SOL    HW2 1696   0.295   0.489   2.514 -0.1021  1.2209  1.0750
  338SOL     OW 1697   6.658   3.248   0.743  0.1279  0.0282  0.3129
  338SOL    HW1 1698   6.714   3.205   0.679  0.8350 -1.6483  1.9297
  338SOL    HW2 1699   6.570   3.218   0.721  0.1040  0.9643 -0.9571
  339SOL     OW 1700   3.381   4.592   3.039 -0.2192 -0.4292 -0.0795
  339SOL    HW1 1701   3.414   4.520   2.986  1.7800 -0.9910  1.7915
  339SOL    HW2 1702   3.457   4.647   3.056 -1.1013  0.5619  0.9193
  340SOL     OW 1703   4.602   3.173   2.462  0.1437 -0.0593 -0.2906
  340SOL    HW1 1704   4.641   3.241   2.517 -0.4446 -0.6866  0.9331
  340SOL    HW2 1705   4.525   3.144   2.511  0.7334 -2.0634 -0.4810
  341SOL     OW 1706   1.994   5.138   5.136  0.0974 -0.5850  0.0882
  341SOL    HW1 1707   1.900   5.131   5.149  0.0273  0.7049  0.3316
  341SOL    HW2 1708   2.006   5.217   5.084  1.0607 -0.6831  0.1379
  342SOL     OW 1709   4.749   2.111   4.947 -0.3372 -0.0788 -0.0463
  342SOL    HW1 1710   4.842   2.092   4.953 -0.4577 -0.3477  1.1516
  342SOL    HW2 1711   4.705   2.032   4.978 -0.9942 -0.2435 -1.3251
  343SOL     OW 1712   6.855   1.759   0.804 -0.2857  0.5248  0.1816
  343SOL    HW1 1713   6.948   1.779   0.817 -0.2094  1.3119 -1.3709
  343SOL    HW2 1714   6.811   1.842   0.819 -0.3185  1.1518 -2.8896
  344SOL     OW 1715   2.766   2.670   0.191 -0.5448  0.3937  0.1661
  344SOL    HW1 1716   2.850   2.631   0.166 -0.6911  0.0674  0.1789
  344SOL    HW2 1717   2.783   2.711   0.276 -1.0438 -1.9739  1.5085
  345SOL     OW 1718   2.272   4.840   1.954  0.2844  0.1426 -0.6843
  345SOL    HW1 1719   2.241   4.917   2.003 -0.3753 -0.8767  0.5606
  345SOL    HW2 1720   2.281   4.772   2.020  0.6223 -0.9290 -1.8088
  346SOL     OW 1721   6.514   6.126   2.884 -0.1265 -0.4039 -0.4687
  346SOL    HW1 1722   6.522   6.043   2.930 -0.2236  0.0216  0.3404
  346SOL    HW2 1723   6.494   6.102   2.794 -0.0445 -1.2579 -0.2658
  347SOL     OW 1724   0.913   6.217   2.757 -0.4423 -0.0210  0.4393
  347SOL    HW1 1725   0.959   6.245   2.836  0.5838 -1.1155  0.2760
  347SOL    HW2 1726   0.846   6.157   2.789 -0.1748 -0.2877  0.5120
  348SOL     OW 1727   5.331   0.299   1.791 -0.4358  0.2220  0.1953
  348SOL    HW1 1728   5.302   0.232   1.853 -1.0788  0.3383  0.0349
  348SOL    HW2 1729   5.370   0.250   1.719  0.4367  0.0924  0.7474
  349SOL     OW 1730   5.102   6.382   4.023 -0.5387 -0.0584  0.0213
  349SOL    HW1 1731   5.032   6.438   3.990 -1.2111 -0.4969  0.6926
  349SOL    HW2 1732   5.180   6.412   3.976 -0.8459  1.5601  0.4754
  350SOL     OW 1733   3.953   5.333   3.049 -0.2609 -0.2064 -0.1898
  350SOL    HW1 1734   3.919   5.412   3.007 -0.1474  0.1606  0.4059
  350SOL    HW2 1735   4.047   5.336   3.032 -0.4992 -1.3865 -2.1185
  351SOL     OW 1736   3.998   2.034   2.301  0.7141  0.6661  0.2154
  351SOL    HW1 1737   4.058   2.065   2.232  0.4746  1.2645  0.2654
  351SOL    HW2 1738   4.049   1.971   2.351  0.1463 -1.6589 -1.9704
  352SOL     OW 1739   5.544   4.203   6.635 -0.5730 -0.7964 -0.1461
  352SOL    HW1 1740   5.608   4.167   6.573  0.7033  0.0511  0.6107
  352SOL    HW2 1741   5.594   4.214   6.716 -1.1696  1.5802 -0.0152
  353SOL     OW 1742   1.057   3.680   4.326 -0.2558 -0.4657 -0.3674
  353SOL    HW1 1743   0.967   3.647   4.324 -0.1001 -0.9145 -0.0953
  353SOL    HW2 1744   1.054   3.758   4.380 -0.0116 -1.9387  1.8886
  354SOL     OW 1745   2.820   4.468   1.294  0.0636  0.5250 -0.1386
  354SOL    HW1 1746   2.805   4.536   1.229  4.1220  0.2680 -1.6566
  354SOL    HW2 1747   2.790   4.387   1.252 -0.7944  0.8091 -0.0891
  355SOL     OW 1748   2.901   2.793   4.935 -0.0659 -0.1390  0.4536
  355SOL    HW1 1749   2.928   2.720   4.879 -0.2678  0.0934  0.0426
  355SOL    HW2 1750   2.948   2.779   5.017 -0.8792 -1.2900  0.7429
  356SOL     OW 1751   2.490   3.281   4.311  0.3582 -0.2357 -0.6879
  356SOL    HW1 1752   2.428   3.353   4.326  0.2355 -0.2729 -1.0072
  356SOL    HW2 1753   2.455   3.236   4.234  1.0481  0.0338 -1.1673
  357SOL     OW 1754   0.059   2.290   1.915  0.5710 -0.0024 -0.0986
  357SOL    HW1 1755  -0.009   2.235   1.878 -0.1071  0.8493 -0.1683
  357SOL    HW2 1756   0.139   2.239   1.908  0.4517  0.0351 -2.5342
  358SOL     OW 1757   0.983   1.787   1.917 -1.1597 -0.7300  0.0106
  358SOL    HW1 1758   1.040   1.725   1.962 -1.1440  0.9877  2.5652
  358SOL    HW2 1759   1.042   1.853   1.881 -1.3521 -0.1651  0.6925
  359SOL     OW 1760   4.318   6.692   5.146 -0.0139  0.1206 -0.0219
  359SOL    HW1 1761   4.381   6.633   5.187 -0.1992 -1.2144 -1.5556
  359SOL    HW2 1762   4.334   6.777   5.187  1.6727 -0.5448  0.7809
  360SOL     OW 1763   0.075   2.574   5.001 -0.5309  0.6600  0.3214
  360SOL    HW1 1764   0.045   2.656   4.963 -0.9695  1.7307  2.7873
  360SOL    HW2 1765   0.005   2.511   4.980 -0.8565  1.2412 -0.3998
  361SOL     OW 1766   5.781   4.304   1.648  0.9580 -0.2301  0.2503
  361SOL    HW1 1767   5.692   4.269   1.656  0.9656 -0.8923 -1.8276
  361SOL    HW2 1768   5.774   4.395   1.679 -0.4486 -0.2681  0.1170
  362SOL     OW 1769   5.615   3.721   6.463  1.2612 -0.1296  0.4977
  362SOL    HW1 1770   5.528   3.680   6.462  0.4836  1.3818 -1.9186
  362SOL    HW2 1771   5.669   3.660   6.514 -0.7022 -2.1568  0.3392
  363SOL     OW 1772   3.455   3.964   0.298  0.7899  0.2474  0.2660
  363SOL    HW1 1773   3.397   4.015   0.354  1.5172  0.0050  1.2627
  363SOL    HW2 1774   3.397   3.901   0.254  0.6366 -2.9853  4.4993
  364SOL     OW 1775   3.030   3.341   0.334  0.3442 -0.4774 -0.2531
  364SOL    HW1 1776   2.983   3.279   0.277 -0.3474 -0.3079  0.1153
  364SOL    HW2 1777   3.028   3.300   0.421 -1.8971  0.9232  0.4453
  365SOL     OW 1778   5.703   0.481   0.157  0.5209 -0.1763  0.5242
  365SOL    HW1 1779   5.608   0.482   0.167  0.1949  1.2209 -1.8219
  365SOL    HW2 1780   5.737   0.516   0.239 -1.1552  1.7728  0.4393
  366SOL     OW 1781   0.272   6.467   0.203  0.0836 -0.1659 -0.6450
  366SOL    HW1 1782   0.249   6.383   0.163  0.7214 -0.6792  0.0251
  366SOL    HW2 1783   0.188   6.503   0.233 -0.0599 -1.2953  0.4245
  367SOL     OW 1784   2.884   0.460   5.052 -0.0448  0.1149  0.1755
  367SOL    HW1 1785   2.873   0.518   5.128 -2.1530  0.5775 -0.4232
  367SOL    HW2 1786   2.800   0.414   5.045  1.0112 -1.8262 -0.3586
  368SOL     OW 1787   2.113   2.774   4.124 -0.4413 -0.7936  0.7535
  368SOL    HW1 1788   2.128   2.719   4.202 -0.7318 -0.9850  0.6769
  368SOL    HW2 1789   2.020   2.763   4.105  0.0854 -2.7112 -1.0855
  369SOL     OW 1790   3.790   2.930   6.548 -0.0937  0.0574  0.4269
  369SOL    HW1 1791   3.827   2.853   6.505 -0.9358  0.0095 -0.2499
  369SOL    HW2 1792   3.863   2.991   6.557  0.5252 -0.7117  0.7329
  370SOL     OW 1793   0.954   0.598   0.209  0.0815  0.0368 -0.3064
  370SOL    HW1 1794   0.917   0.514   0.238 -0.0660  0.7469  1.7046
  370SOL    HW2 1795   1.048   0.589   0.224  0.0962  0.1549 -0.3288
  371SOL     OW 1796   4.048   5.819   1.568 -0.3615 -0.5145 -0.8042
  371SOL    HW1 1797   4.035   5.855   1.656  1.1475 -1.8185 -0.0044
  371SOL    HW2 1798   4.136   5.781   1.570 -0.5259 -1.0961 -2.7038
  372SOL     OW 1799   3.097   1.763   5.889  0.1604 -0.5762  0.3074
  372SOL    HW1 1800   3.029   1.716   5.841 -0.5930  1.1430 -0.4089
  372SOL    HW2 1801   3.063   1.771   5.978 -0.6435  0.3395 -0.0644
  373SOL     OW 1802   4.981   2.113   5.075  0.0764 -0.1139 -0.5746
  373SOL    HW1 1803   4.986   2.030   5.122  0.6808 -0.3011 -0.9435
  373SOL    HW2 1804   5.061   2.114   5.021  0.7486  1.2846  0.3805
  374SOL     OW 1805   5.280   4.647   1.925  0.1096 -0.5900 -0.3623
  374SOL    HW1 1806   5.224   4.697   1.984 -1.1132 -0.8591 -1.2693
  374SOL    HW2 1807   5.369   4.669   1.953 -0.4005  1.1645  0.0199
  375SOL     OW 1808   2.312   2.446   0.035  0.5946  0.0378  0.4338
  375SOL    HW1 1809   2.378   2.495   0.085  0.5165  0.5714  0.0174
  375SOL    HW2 1810   2.285   2.506  -0.034  0.0278 -0.3638  0.3046
  376SOL     OW 1811   0.385   0.336   5.975  0.4094 -0.0145  0.1672
  376SOL    HW1 1812   0.389   0.411   5.917  2.3711 -0.0336  0.2255
  376SOL    HW2 1813   0.388   0.260   5.917  3.4257 -0.0483  0.2301
  377SOL     OW 1814   6.131   4.579   5.225  0.2406  0.1323 -0.0369
  377SOL    HW1 1815   6.141   4.543   5.137  0.4248 -1.6312  0.6479
  377SOL    HW2 1816   6.215   4.620   5.244 -0.1482  1.4263 -1.0442
  378SOL     OW 1817   4.288   3.237   0.909  0.2551  0.3177  0.1640
  378SOL    HW1 1818   4.383   3.249   0.909  0.1584  1.1515  0.0838
  378SOL    HW2 1819   4.275   3.147   0.937  1.0339  0.5712  1.4588
  379SOL     OW 1820   4.773   6.845   4.638  0.0619 -0.2438  0.4175
  379SOL    HW1 1821   4.825   6.788   4.694  0.5009  0.6373  0.9422
  379SOL    HW2 1822   4.687   6.804   4.635  0.7359 -1.6646 -0.3708
  380SOL     OW 1823   1.968   1.829   3.412 -0.0506  0.0547  0.2678
  380SOL    HW1 1824   2.039   1.791   3.464 -0.1858 -0.5134  0.0564
  380SOL    HW2 1825   1.891   1.778   3.436 -0.5136  1.0214  0.8937
  381SOL     OW 1826   1.644   6.561   6.444 -0.0256  0.2495 -0.2862
  381SOL    HW1 1827   1.631   6.557   6.349 -2.7457 -0.0811  0.0176
  381SOL    HW2 1828   1.617   6.650   6.468  0.1231  0.1531  0.2592
  382SOL     OW 1829   3.605   4.200   6.708 -0.1243 -0.1995 -0.1334
  382SOL    HW1 1830   3.671   4.267   6.724  1.0031 -1.5514  1.0694
  382SOL    HW2 1831   3.533   4.223   6.767  0.1109  0.1275  0.0266
  383SOL     OW 1832   0.686   6.681   1.585 -0.0212  0.6454  0.1799
  383SOL    HW1 1833   0.598   6.647   1.601 -0.1246  1.2002  0.7894
  383SOL    HW2 1834   0.721   6.624   1.516 -1.4160  1.3601 -1.1812
  384SOL     OW 1835   0.657   0.377   6.569 -0.4903 -0.3957 -0.2573
  384SOL    HW1 1836   0.633   0.433   6.642  0.4245 -0.2465 -0.0608
  384SOL    HW2 1837   0.653   0.434   6.492 -1.5238 -0.5712 -0.3471
  385SOL     OW 1838   3.329   3.827   1.325  0.3023  0.0110 -0.0729
  385SOL    HW1 1839   3.354   3.912   1.362 -0.8740  0.0821  0.6108
  385SOL    HW2 1840   3.411   3.779   1.318  0.8402  0.7973  0.5823
  386SOL     OW 1841   3.629   1.307   6.418  0.3135 -0.0845  0.0245
  386SOL    HW1 1842   3.582   1.317   6.335 -0.1631 -1.1624  0.1418
  386SOL    HW2 1843   3.610   1.387   6.467 -1.3728 -0.4480  0.0300
  387SOL     OW 1844   6.613   1.054   5.805 -0.0298  0.1706 -0.4008
  387SOL    HW1 1845   6.680   1.003   5.849 -2.2705 -2.1120  0.6100
  387SOL    HW2 1846   6.631   1.044   5.711  1.7052  0.6626 -0.1438
  388SOL     OW 1847   5.787   6.260   1.223  0.3805  0.0385 -0.4320
  388SOL    HW1 1848   5.826   6.216   1.298 -1.4119  0.8137  1.0488
  388SOL    HW2 1849   5.743   6.191   1.174 -0.9132 -0.1284  0.8961
  389SOL     OW 1850   4.044   4.737   6.501 -0.1389  0.4717 -0.4043
  389SOL    HW1 1851   3.983   4.810   6.513 -0.2321  0.5245 -1.1323
  389SOL    HW2 1852   3.994   4.660   6.525 -0.2736  0.5817 -0.3301
  390SOL     OW 1853   3.160   5.914   5.232  0.4101 -0.1636  0.1802
  390SOL    HW1 1854   3.170   5.934   5.325 -0.0300 -0.1741  0.2290
  390SOL    HW2 1855   3.123   5.825   5.231 -1.1633  0.4670  0.0280
  391SOL     OW 1856   0.530   6.471   0.318 -0.0004 -0.3671  0.1405
  391SOL    HW1 1857   0.446   6.486   0.276 -0.1180 -0.9282  0.1759
  391SOL    HW2 1858   0.510   6.467   0.412  0.1445  0.0561  0.1911
  392SOL     OW 1859   6.370   5.758   3.689  0.6686  0.3833 -0.4952
  392SOL    HW1 1860   6.458   5.796   3.687  0.8915 -0.1539 -2.4457
  392SOL    HW2 1861   6.311   5.833   3.682  0.9792  0.6651 -0.1640
  393SOL     OW 1862   2.306   5.676   3.300  0.3730 -0.5638  0.3309
  393SOL    HW1 1863   2.329   5.763   3.331  0.4622 -0.1848 -0.7334
  393SOL    HW2 1864   2.388   5.640   3.266  0.5016 -1.3804  1.4531
  394SOL     OW 1865   2.262   5.166   2.390 -0.1537  0.0160 -0.1243
  394SOL    HW1 1866   2.303   5.251   2.375 -0.7927  0.3803  0.1165
  394SOL    HW2 1867   2.332   5.111   2.423  0.1215  0.6370  0.3490
  395SOL     OW 1868   3.473   5.539   4.694 -0.7302 -0.7215 -0.1434
  395SOL    HW1 1869   3.504   5.603   4.759 -0.7043 -1.6836  0.8260
  395SOL    HW2 1870   3.385   5.570   4.670 -0.3368  0.2035 -0.4258
  396SOL     OW 1871   3.806   0.073   1.705  0.4396 -0.4709  0.5905
  396SOL    HW1 1872   3.762  -0.010   1.690  0.9591 -0.7211  0.4297
  396SOL    HW2 1873   3.746   0.122   1.762 -0.2798 -0.5973 -0.0419
  397SOL     OW 1874   2.984   0.109   4.090 -0.6121  0.3831 -0.0769
  397SOL    HW1 1875   3.001   0.109   4.184 -1.6215 -2.4000  0.1950
  397SOL    HW2 1876   2.888   0.106   4.083 -0.6292  1.9143 -1.2850
  398SOL     OW 1877   3.470   6.894   3.882  0.3968  0.5382 -0.2700
  398SOL    HW1 1878   3.556   6.933   3.899  0.0449  1.4302 -0.5026
  398SOL    HW2 1879   3.407   6.956   3.917 -0.2170  0.8139 -1.7884
  399SOL     OW 1880   3.426   5.277   2.403  0.4623  0.0680  0.1753
  399SOL    HW1 1881   3.519   5.282   2.424  0.2696  0.2793  1.0554
  399SOL    HW2 1882   3.385   5.342   2.461 -0.2939 -0.4540  0.2491
  400SOL     OW 1883   6.731   5.597   3.936 -0.1117  0.3202 -0.0139
  400SOL    HW1 1884   6.663   5.655   3.969 -0.3898  0.7934 -1.3624
  400SOL    HW2 1885   6.806   5.654   3.921 -0.2059  0.2499 -0.8123
  401SOL     OW 1886   3.002   3.959   2.403 -0.5572 -0.4797  0.0169
  401SOL    HW1 1887   2.953   4.019   2.347 -0.3384  1.4077  1.7236
  401SOL    HW2 1888   3.073   4.012   2.439  0.2154 -2.0299  0.8788
  402SOL     OW 1889   4.719   4.642   4.719 -0.2602 -0.2313 -0.0674
  402SOL    HW1 1890   4.634   4.601   4.703  0.3145 -0.8204 -1.8035
  402SOL    HW2 1891   4.740   4.619   4.810 -2.7226  1.4371  1.0459
  403SOL     OW 1892   4.615   6.153   2.059  0.4543 -0.3221  0.2510
  403SOL    HW1 1893   4.670   6.077   2.042  0.5697 -0.1090 -0.3305
  403SOL    HW2 1894   4.643   6.218   1.995 -1.8085 -0.8860 -1.4082
  404SOL     OW 1895   6.015   5.089   4.638 -0.3391 -0.3058  0.1908
  404SOL    HW1 1896   6.040   5.087   4.546  0.3520 -0.7768  0.3794
  404SOL    HW2 1897   5.932   5.138   4.640 -0.1846  0.0020 -0.6327
  405SOL     OW 1898   2.128   5.582   3.482  0.5972  0.8015  0.6212
  405SOL    HW1 1899   2.185   5.587   3.405 -0.2136  1.6943  0.0547
  405SOL    HW2 1900   2.155   5.655   3.537  0.4217  0.8433  0.6522
  406SOL     OW 1901   0.623   1.491   4.767 -0.5016  0.1311 -0.0732
  406SOL    HW1 1902   0.596   1.417   4.821  0.8844 -1.5910 -1.5936
  406SOL    HW2 1903   0.711   1.468   4.737 -0.2709  2.1143 -1.1320
  407SOL     OW 1904   4.675   5.436   0.678  0.0316  0.3699 -0.0577
  407SOL    HW1 1905   4.595   5.482   0.702  0.0455  0.6386 -0.5195
  407SOL    HW2 1906   4.700   5.389   0.758 -0.1541  0.9050  0.3176
  408SOL     OW 1907   2.934   1.398   0.277 -0.0467 -0.0599  0.1748
  408SOL    HW1 1908   2.983   1.320   0.302  1.4118  0.3383 -1.2832
  408SOL    HW2 1909   2.989   1.442   0.213 -1.8311  1.0095 -0.7208
  409SOL     OW 1910   5.795   5.805   4.636 -0.4711  0.0509 -0.4277
  409SOL    HW1 1911   5.876   5.757   4.617 -0.7246 -1.0652  1.0957
  409SOL    HW2 1912   5.728   5.758   4.586 -0.7552 -1.3951  1.2328
  410SOL     OW 1913   0.578   4.728   3.257  0.2537 -0.4915  0.1270
  410SOL    HW1 1914   0.527   4.711   3.336  0.2563 -1.8181 -0.1312
  410SOL    HW2 1915   0.533   4.677   3.189 -0.1629  1.1714 -0.9036
  411SOL     OW 1916   3.825   0.529   2.406  0.0300 -0.4353 -0.3800
  411SOL    HW1 1917   3.899   0.509   2.349  0.7887 -0.5831  0.6305
  411SOL    HW2 1918   3.841   0.478   2.486 -0.6232  0.3097  0.2488
  412SOL     OW 1919   0.426   0.513   0.143 -0.2991  0.5099 -0.1157
  412SOL    HW1 1920   0.444   0.509   0.237 -0.0420 -0.3392 -0.1891
  412SOL    HW2 1921   0.350   0.455   0.132  0.2605 -0.1468 -0.5623
  413SOL     OW 1922   2.498   4.697   4.042  0.1362  0.4008 -0.0718
  413SOL    HW1 1923   2.546   4.679   4.122  0.1168 -0.0483 -0.1581
  413SOL    HW2 1924   2.412   4.726   4.072  0.2214  0.5039  0.0735
  414SOL     OW 1925   2.280   1.499   6.370 -0.0347 -0.0568 -0.1407
  414SOL    HW1 1926   2.367   1.516   6.335  0.4825  0.6038  1.3610
  414SOL    HW2 1927   2.251   1.584   6.404 -1.4386 -0.1780 -0.9408
  415SOL     OW 1928   2.885   4.239   0.633 -0.2177  0.2684 -0.2146
  415SOL    HW1 1929   2.959   4.186   0.665 -0.5780 -0.3817 -0.4365
  415SOL    HW2 1930   2.817   4.225   0.699 -0.1763  0.7993 -0.0561
  416SOL     OW 1931   4.600   1.863   0.576  0.6387  0.6134  0.4549
  416SOL    HW1 1932   4.560   1.936   0.623 -1.2738  1.0229 -1.6137
  416SOL    HW2 1933   4.525   1.807   0.553  1.6746 -0.2923 -0.8117
  417SOL     OW 1934   2.713   1.449   1.470 -0.2472  0.4802  0.6433
  417SOL    HW1 1935   2.679   1.389   1.537  0.7973 -0.0944  0.6674
  417SOL    HW2 1936   2.662   1.529   1.483 -0.3810  0.2282  1.8336
  418SOL     OW 1937   1.460   5.555   6.736  0.4779 -0.0457 -0.0887
  418SOL    HW1 1938   1.434   5.501   6.811  0.2693  0.0008 -0.1263
  418SOL    HW2 1939   1.427   5.507   6.660 -1.0101  0.8467 -0.0482
  419SOL     OW 1940   3.697   5.071   0.251 -0.2178 -0.0708 -0.0334
  419SOL    HW1 1941   3.655   5.147   0.212 -0.9976 -0.5339 -0.1168
  419SOL    HW2 1942   3.791   5.089   0.244 -0.3659  0.3474 -1.1108
  420SOL     OW 1943   1.368   6.492   2.293 -0.0131  0.1026  0.3853
  420SOL    HW1 1944   1.274   6.510   2.281  0.1616  1.1969  0.5755
  420SOL    HW2 1945   1.410   6.534   2.218  0.2573 -1.2566 -0.2599
  421SOL     OW 1946   6.743   2.874   1.394  0.3478 -0.1194  0.4859
  421SOL    HW1 1947   6.752   2.890   1.300  0.0068 -0.6422  0.3608
  421SOL    HW2 1948   6.786   2.790   1.409 -1.0283 -0.8564  0.5005
  422SOL     OW 1949   1.189   2.533   5.183  0.4831  0.6296 -0.2248
  422SOL    HW1 1950   1.278   2.556   5.160  1.2139 -0.9623  0.7988
  422SOL    HW2 1951   1.195   2.442   5.214 -1.4959  0.4640 -0.1829
  423SOL     OW 1952   0.906   5.928   2.908  0.6268  0.1221  0.0346
  423SOL    HW1 1953   0.991   5.885   2.913  0.9683  0.5750 -1.5531
  423SOL    HW2 1954   0.915   6.005   2.964  0.3167 -1.2565  2.1308
  424SOL     OW 1955   4.127   3.755   1.233 -0.0705 -0.3342 -0.5591
  424SOL    HW1 1956   4.079   3.695   1.175 -0.2058 -0.6378 -0.1439
  424SOL    HW2 1957   4.134   3.707   1.315  1.1808 -0.4054 -0.6867
  425SOL     OW 1958   0.998   6.740   5.351 -0.4508  0.5612  0.2978
  425SOL    HW1 1959   0.936   6.764   5.421 -1.4816 -0.1031 -0.3634
  425SOL    HW2 1960   1.073   6.702   5.398 -0.0395  2.3401  1.1779
  426SOL     OW 1961   1.195   3.703   2.671  0.3944 -0.2605 -0.0347
  426SOL    HW1 1962   1.245   3.784   2.679 -0.0749  0.0991 -0.5959
  426SOL    HW2 1963   1.218   3.652   2.748 -0.7311  1.1960  1.3514
  427SOL     OW 1964   4.286   5.323   4.493 -0.3007  0.0566  0.0456
  427SOL    HW1 1965   4.213   5.384   4.501  0.4672  1.0657 -0.4592
  427SOL    HW2 1966   4.282   5.291   4.403  0.2361  0.5913 -0.1747
  428SOL     OW 1967   3.410   4.376   4.412 -0.1040  0.1020  0.3642
  428SOL    HW1 1968   3.397   4.426   4.331  0.7329  0.7436  0.6152
  428SOL    HW2 1969   3.436   4.441   4.477  3.4265 -0.8962  0.1491
  429SOL     OW 1970   3.946   1.541   1.910  0.3055 -0.3780  0.7715
  429SOL    HW1 1971   3.898   1.558   1.991  1.8257  0.1264  1.6061
  429SOL    HW2 1972   4.038   1.537   1.936  0.6705 -2.7931 -0.5238
  430SOL     OW 1973   0.676   3.929   6.259 -0.1844 -0.5432  0.1616
  430SOL    HW1 1974   0.589   3.892   6.246 -0.7004  0.7289 -0.1418
  430SOL    HW2 1975   0.690   3.926   6.354 -1.2502  0.7019  0.3862
  431SOL     OW 1976   4.713   3.177   5.955  0.4776  0.3443  0.0052
  431SOL    HW1 1977   4.782   3.243   5.945  0.0401  0.8632  0.3908
  431SOL    HW2 1978   4.759   3.099   5.985  0.8469  0.8022  0.6490
  432SOL     OW 1979   1.903   0.666   1.113 -0.1463 -0.4083 -0.3072
  432SOL    HW1 1980   1.831   0.727   1.100 -0.8985 -0.9281  1.2192
  432SOL    HW2 1981   1.979   0.722   1.129  0.4109  0.2324 -4.1720
  433SOL     OW 1982   5.536   2.259   4.320 -0.0367  0.3575  0.3226
  433SOL    HW1 1983   5.454   2.253   4.272  1.4735 -2.4575 -2.3093
  433SOL    HW2 1984   5.538   2.180   4.375  0.8237  0.4619  0.4632
  434SOL     OW 1985   5.970   2.478   1.330  0.2093 -0.5077  0.2078
  434SOL    HW1 1986   6.033   2.411   1.301  0.4951  0.9031 -2.7147
  434SOL    HW2 1987   5.989   2.554   1.276 -4.8917 -0.3881 -1.9614
  435SOL     OW 1988   2.151   4.549   5.241  0.0362 -0.0755 -0.7828
  435SOL    HW1 1989   2.116   4.472   5.197  0.9125 -0.3461 -1.0305
  435SOL    HW2 1990   2.075   4.590   5.282 -0.1851 -2.1587  1.0464
  436SOL     OW 1991   2.914   6.628   4.318 -0.2044  0.4514 -0.1114
  436SOL    HW1 1992   2.886   6.539   4.296 -0.8664  0.4055  0.8277
  436SOL    HW2 1993   3.009   6.623   4.321 -0.2088 -0.0863 -0.6058
  437SOL     OW 1994   4.105   1.405   2.500 -0.0207 -0.2258  0.0494
  437SOL    HW1 1995   4.125   1.327   2.551  1.0228  0.8266  1.3065
  437SOL    HW2 1996   4.091   1.474   2.565 -0.5348  0.7371 -1.0415
  438SOL     OW 1997   1.475   4.992   5.712  0.1952  0.2273  0.2821
  438SOL    HW1 1998   1.542   4.955   5.655  0.1905 -1.2100  1.1540
  438SOL    HW2 1999   1.445   5.071   5.667  1.0141 -0.2308 -1.1108
  439SOL     OW 2000   1.891   0.493   3.148  0.1418 -0.9803 -0.4878
  439SOL    HW1 2001   1.981   0.524   3.139 -0.5062  1.9589  1.5457
  439SOL    HW2 2002   1.892   0.440   3.228 -0.1534  0.4959  0.5497
  440SOL     OW 2003   4.515   3.490   1.321  0.0050  0.2441 -0.0596
  440SOL    HW1 2004   4.434   3.474   1.273  0.2238 -0.0211 -0.3473
  440SOL    HW2 2005   4.517   3.422   1.387 -0.1958  0.4863  0.1996
  441SOL     OW 2006   1.209   4.752   3.454 -0.5307  0.2084 -0.1270
  441SOL    HW1 2007   1.211   4.703   3.372  2.2590  0.7685 -0.5065
  441SOL    HW2 2008   1.205   4.844   3.427  0.2654  0.3928  0.3338
  442SOL     OW 2009   2.437   0.650   2.873 -0.1842 -0.3529  0.0092
  442SOL    HW1 2010   2.517   0.659   2.821  1.0575 -2.3394  1.3781
  442SOL    HW2 2011   2.370   0.625   2.810  0.5082  0.3508 -1.0418
  443SOL     OW 2012   5.372   0.218   5.602  0.2575 -0.0104  0.0370
  443SOL    HW1 2013   5.428   0.218   5.525  0.8326 -0.6460  0.4438
  443SOL    HW2 2014   5.328   0.303   5.600  2.4439  1.2223  0.5769
  444SOL     OW 2015   3.013   5.707   3.747  0.1422 -0.0765 -0.4566
  444SOL    HW1 2016   3.086   5.706   3.686  0.3327  0.5664 -0.2588
  444SOL    HW2 2017   2.973   5.793   3.734  0.9192  0.5777  1.1374
  445SOL     OW 2018   4.529   4.359   6.383  0.3852  0.4624  0.5548
  445SOL    HW1 2019   4.623   4.365   6.367 -0.0329  2.6578 -1.7730
  445SOL    HW2 2020   4.510   4.432   6.442  0.2277 -0.5649  1.8195
  446SOL     OW 2021   1.526   3.724   1.708  0.1001  0.7409 -0.2987
  446SOL    HW1 2022   1.536   3.815   1.682 -1.2916  0.6958 -1.1037
  446SOL    HW2 2023   1.460   3.725   1.778  0.9413  0.4579  0.5184
  447SOL     OW 2024   3.482   0.927   4.898  0.3831 -0.0166 -0.1607
  447SOL    HW1 2025   3.570   0.934   4.861  1.3256  0.2949  2.0205
  447SOL    HW2 2026   3.424   0.952   4.826  2.1497  1.5160 -1.1314
  448SOL     OW 2027   3.929   4.071   2.920 -0.0410  0.2523  0.1952
  448SOL    HW1 2028   3.913   4.127   2.844 -0.5500 -0.6405 -0.3687
  448SOL    HW2 2029   3.986   4.123   2.977 -0.4026  1.2874 -0.3700
  449SOL     OW 2030   6.168   3.954   3.657  0.2831 -0.2574 -0.0123
  449SOL    HW1 2031   6.140   3.883   3.599  0.4083 -1.1493  0.9831
  449SOL    HW2 2032   6.146   3.923   3.744  1.8588  0.2032  0.5906
  450SOL     OW 2033   5.266   2.866   4.368  0.3298  0.3422 -0.1959
  450SOL    HW1 2034   5.334   2.838   4.306 -1.2965 -2.8375 -0.7694
  450SOL    HW2 2035   5.302   2.842   4.454  0.0699 -1.1695 -0.4815
  451SOL     OW 2036   3.876   5.390   5.852  0.0203  0.1339 -0.4332
  451SOL    HW1 2037   3.895   5.467   5.906 -2.9198  0.7250 -0.1097
  451SOL    HW2 2038   3.857   5.320   5.915 -1.3551  0.2713 -0.6677
  452SOL     OW 2039   3.967   5.219   0.880 -0.1473  0.1731  0.0143
  452SOL    HW1 2040   4.021   5.175   0.815 -1.8327 -1.0259 -0.6536
  452SOL    HW2 2041   3.974   5.312   0.859  1.8173  0.0853  0.1276
  453SOL     OW 2042   3.666   3.700   2.894 -1.1416  0.3449  0.2571
  453SOL    HW1 2043   3.738   3.755   2.864 -1.9976  1.6809  0.5332
  453SOL    HW2 2044   3.655   3.724   2.986 -1.8093  0.0215  0.2676
  454SOL     OW 2045   2.922   0.814   1.569  0.2588 -0.0047  0.0406
  454SOL    HW1 2046   3.004   0.803   1.616  1.8429  0.7395 -2.3592
  454SOL    HW2 2047   2.941   0.881   1.503 -1.3680 -1.9199 -2.5598
  455SOL     OW 2048   6.402   0.014   1.825  0.1212  0.3935 -0.0990
  455SOL    HW1 2049   6.482  -0.028   1.794  1.1459  0.1466  2.5857
  455SOL    HW2 2050   6.380   0.078   1.757  2.9467  0.8656 -0.6821
  456SOL     OW 2051   5.488   6.674   0.687  0.4024 -0.0277  0.6544
  456SOL    HW1 2052   5.547   6.693   0.614 -1.1636  1.3588 -0.3144
  456SOL    HW2 2053   5.546   6.651   0.760  2.2657  3.0764  0.3102
  457SOL     OW 2054   5.625   3.262   1.629 -0.7778 -0.0412 -0.2786
  457SOL    HW1 2055   5.577   3.186   1.598 -1.4341 -0.7858  2.3300
  457SOL    HW2 2056   5.717   3.235   1.629 -1.1396 -1.6613  2.4134
  458SOL     OW 2057   3.847   3.416   2.396  0.0255  0.4362 -0.2966
  458SOL    HW1 2058   3.828   3.361   2.320  0.4562 -1.0585  0.6202
  458SOL    HW2 2059   3.901   3.360   2.453  0.9068  2.0027  0.4695
  459SOL     OW 2060   4.852   3.461   4.215 -0.1976 -0.2915 -0.0109
  459SOL    HW1 2061   4.866   3.390   4.153 -0.6947 -0.7436  0.3895
  459SOL    HW2 2062   4.940   3.480   4.249 -0.0575 -0.6800 -0.1525
  460SOL     OW 2063   0.158   3.752   6.224 -0.2218  0.3030 -0.6816
  460SOL    HW1 2064   0.076   3.707   6.247 -0.8663  1.7102 -0.0506
  460SOL    HW2 2065   0.137   3.800   6.143  0.3218 -0.1999 -1.1226
  461SOL     OW 2066   0.510   6.159   3.138 -0.1488 -0.4058 -0.0708
  461SOL    HW1 2067   0.599   6.192   3.154  0.3134 -1.9950  0.8571
  461SOL    HW2 2068   0.524   6.078   3.088 -1.1898  0.1610 -1.3451
  462SOL     OW 2069   3.200   5.627   6.557  0.3433  0.2124 -0.2395
  462SOL    HW1 2070   3.106   5.627   6.541  0.1200 -0.3362  0.9259
  462SOL    HW2 2071   3.211   5.572   6.635  1.6237  0.3007 -0.3294
  463SOL     OW 2072   1.127   2.799   1.592  0.0046 -0.0379  0.4063
  463SOL    HW1 2073   1.164   2.886   1.608  0.2724 -0.1453  0.3876
  463SOL    HW2 2074   1.050   2.795   1.649  1.1981 -0.5829  2.0663
  464SOL     OW 2075   6.207   6.116   2.981 -0.2135  0.1503 -0.2578
  464SOL    HW1 2076   6.198   6.024   2.955 -2.3238  0.2229  0.0025
  464SOL    HW2 2077   6.295   6.141   2.952 -0.0219 -1.6230 -1.3651
  465SOL     OW 2078   2.837   4.811   0.175  0.1883  1.0708  0.3899
  465SOL    HW1 2079   2.759   4.828   0.227  0.2918 -0.4858  1.1055
  465SOL    HW2 2080   2.908   4.858   0.220 -0.0633  1.3008  0.5481
  466SOL     OW 2081   4.243   0.129   4.454  0.0612  0.0673 -0.9561
  466SOL    HW1 2082   4.156   0.166   4.460  0.0609  0.2594 -1.9880
  466SOL    HW2 2083   4.244   0.083   4.370  0.7038 -0.5868 -0.6080
  467SOL     OW 2084   0.762   5.683   4.198 -0.1598  0.3838 -0.2239
  467SOL    HW1 2085   0.668   5.681   4.216  0.5131 -0.4576  4.4274
  467SOL    HW2 2086   0.774   5.620   4.127 -3.0788  0.6706 -1.1108
  468SOL     OW 2087   4.487   4.620   6.471  0.3780  0.0504 -0.4732
  468SOL    HW1 2088   4.404   4.634   6.425  0.3742 -0.4106 -0.6123
  468SOL    HW2 2089   4.467   4.638   6.563 -0.2312 -1.3420 -0.2961
  469SOL     OW 2090   5.325   1.010   0.025 -0.1004  0.5855  0.5433
  469SOL    HW1 2091   5.368   0.926   0.008 -0.0428  0.4690  1.2174
  469SOL    HW2 2092   5.290   1.037  -0.060  0.7993  0.4005  0.0993
  470SOL     OW 2093   6.362   1.417   1.336 -0.1670  0.0738  0.3200
  470SOL    HW1 2094   6.284   1.376   1.372 -0.0653 -0.0232  0.4314
  470SOL    HW2 2095   6.331   1.467   1.261 -0.0272 -1.7242 -0.9814
  471SOL     OW 2096   1.358   0.851   5.291 -0.4380  0.1974  0.3287
  471SOL    HW1 2097   1.326   0.765   5.319 -0.6227 -0.6382 -2.2254
  471SOL    HW2 2098   1.288   0.912   5.317 -1.3835 -0.7673  0.1315
  472SOL     OW 2099   3.953   2.384   5.017 -0.0074 -0.3301 -0.1980
  472SOL    HW1 2100   3.921   2.359   4.930 -1.6949 -0.4925  0.4191
  472SOL    HW2 2101   3.975   2.300   5.059 -1.6989 -0.5069  0.4141
  473SOL     OW 2102   4.880   5.285   1.509  0.1956 -0.6002 -0.3255
  473SOL    HW1 2103   4.824   5.360   1.489 -1.5580 -1.1571  2.0283
  473SOL    HW2 2104   4.905   5.250   1.424 -1.9563  0.4841 -1.4853
  474SOL     OW 2105   2.131   2.712   3.023  0.6767 -0.1684  0.1433
  474SOL    HW1 2106   2.226   2.710   3.033  0.5365  0.3309  1.8472
  474SOL    HW2 2107   2.100   2.635   3.070  0.2321 -0.4628 -0.6085
  475SOL     OW 2108   5.250   3.530   6.568  0.1079  0.3871 -0.0185
  475SOL    HW1 2109   5.254   3.504   6.476  0.2036  0.3719 -0.0102
  475SOL    HW2 2110   5.186   3.601   6.570 -1.7629 -1.2276  0.2915
  476SOL     OW 2111   0.571   6.578   4.244  0.4412 -0.2833 -0.4584
  476SOL    HW1 2112   0.563   6.494   4.289 -1.6193 -0.1971 -0.5785
  476SOL    HW2 2113   0.517   6.569   4.166  0.2051  1.1331 -0.4893
  477SOL     OW 2114   3.726   1.835   5.921 -0.0615  0.4367  0.4845
  477SOL    HW1 2115   3.705   1.743   5.905 -0.7480  0.2447  2.2979
  477SOL    HW2 2116   3.736   1.873   5.834 -0.0110 -1.2939 -0.3000
  478SOL     OW 2117   6.277   5.171   2.934 -0.4450 -0.3277 -0.2202
  478SOL    HW1 2118   6.227   5.124   2.867 -0.6257 -1.4131  0.6329
  478SOL    HW2 2119   6.211   5.197   2.998  0.0261 -1.6980  0.8704
  479SOL     OW 2120   6.214   0.003   4.895 -0.2612 -0.0311 -0.7403
  479SOL    HW1 2121   6.287  -0.058   4.889 -0.1429 -0.0051  0.2888
  479SOL    HW2 2122   6.175   0.002   4.808  0.6305 -0.4566 -1.1478
  480SOL     OW 2123   4.109   5.633   5.865 -0.0216  0.0044 -0.3905
  480SOL    HW1 2124   4.068   5.654   5.782  0.0146 -3.6571 -1.5012
  480SOL    HW2 2125   4.183   5.577   5.842  0.5632 -0.3523  2.0654
  481SOL     OW 2126   6.685   6.230   3.506 -0.2456 -0.4720  0.0117
  481SOL    HW1 2127   6.613   6.215   3.445  0.5992  1.9023 -1.6977
  481SOL    HW2 2128   6.753   6.168   3.479 -1.1843 -1.9880  0.9699
  482SOL     OW 2129   3.183   2.404   3.616 -0.4290 -0.0321  0.1129
  482SOL    HW1 2130   3.266   2.387   3.661 -0.0035 -2.5101 -1.4482
  482SOL    HW2 2131   3.135   2.460   3.676  0.1170 -3.0049  3.6895
  483SOL     OW 2132   1.867   3.794   1.769 -0.1369  0.0950  0.5395
  483SOL    HW1 2133   1.852   3.870   1.713  1.2576 -0.0314 -0.0652
  483SOL    HW2 2134   1.839   3.720   1.716 -0.0115  0.0791  0.4926
  484SOL     OW 2135   5.503   4.951   0.543  0.3106 -0.3477 -0.3853
  484SOL    HW1 2136   5.518   4.893   0.617  0.3175 -0.8981 -0.8159
  484SOL    HW2 2137   5.530   5.037   0.575  2.1316 -0.8876 -0.3591
  485SOL     OW 2138   6.128   0.942   2.558  0.0987 -0.0964  0.4111
  485SOL    HW1 2139   6.150   0.906   2.644  0.2859 -1.3777 -0.1564
  485SOL    HW2 2140   6.048   0.993   2.574 -0.6457 -1.4195  1.1030
  486SOL     OW 2141   5.718   2.533   3.269  0.1660 -0.2014 -0.2871
  486SOL    HW1 2142   5.740   2.482   3.348  1.6808 -0.2966 -0.7236
  486SOL    HW2 2143   5.753   2.620   3.286  1.8263 -0.5893 -1.3587
  487SOL     OW 2144   1.324   1.330   0.350  0.2953  0.1074 -0.2054
  487SOL    HW1 2145   1.263   1.259   0.373  1.1857  0.4686  4.1924
  487SOL    HW2 2146   1.411   1.290   0.358  0.7584  1.1625  0.2426
  488SOL     OW 2147   2.528   6.664   0.066 -0.1250 -0.2038  0.0069
  488SOL    HW1 2148   2.459   6.727   0.082 -0.1789 -0.0776 -0.6770
  488SOL    HW2 2149   2.506   6.625  -0.019 -0.3903 -1.5331  0.6591
  489SOL     OW 2150   5.936   6.226   4.716 -0.0515  0.8046 -0.1199
  489SOL    HW1 2151   5.860   6.269   4.755  0.2937  1.9627 -0.6708
  489SOL    HW2 2152   5.980   6.184   4.790 -0.7618  0.8413  0.3339
  490SOL     OW 2153   0.572   0.997   2.534 -0.4218  0.1356  0.5267
  490SOL    HW1 2154   0.607   0.961   2.452 -0.5478 -1.0046  0.9629
  490SOL    HW2 2155   0.593   0.932   2.600  1.0622  1.7176  1.7252
  491SOL     OW 2156   3.224   2.479   2.720 -0.1149 -0.2802  0.8405
  491SOL    HW1 2157   3.158   2.465   2.787  0.4774 -0.7602  1.3319
  491SOL    HW2 2158   3.307   2.462   2.764  0.3645  0.6383  0.3175
  492SOL     OW 2159   2.041   6.179   0.146  0.0662  0.1528 -0.1332
  492SOL    HW1 2160   2.136   6.171   0.139  0.1627  0.6780  0.5067
  492SOL    HW2 2161   2.009   6.090   0.130  0.5463  0.2862 -2.0061
  493SOL     OW 2162   4.324   6.664   3.628  0.0035  0.2977  0.1376
  493SOL    HW1 2163   4.371   6.592   3.586 -1.1364  0.2308 -1.0969
  493SOL    HW2 2164   4.357   6.665   3.718 -0.2015 -2.0000  0.3000
  494SOL     OW 2165   1.277   0.491   5.092 -0.6263  0.1898  0.2946
  494SOL    HW1 2166   1.276   0.528   5.181  0.0406 -1.4481  1.0196
  494SOL    HW2 2167   1.363   0.514   5.058 -2.0609  3.8805 -1.3741
  495SOL     OW 2168   6.510   2.936   4.346  0.3988  0.3288 -0.3927
  495SOL    HW1 2169   6.522   2.909   4.438  1.2522 -0.1166 -0.6215
  495SOL    HW2 2170   6.433   2.886   4.317  0.6859 -0.2523 -0.1852
  496SOL     OW 2171   4.904   1.467   1.318  0.6231 -0.5132  0.3342
  496SOL    HW1 2172   4.974   1.448   1.256  0.5788  1.6296 -0.4734
  496SOL    HW2 2173   4.825   1.429   1.279  0.7033  0.3081 -0.6633
  497SOL     OW 2174   0.682   1.783   4.925 -0.1033  0.1746  0.3145
  497SOL    HW1 2175   0.682   1.849   4.994  0.9101 -0.5880  1.0784
  497SOL    HW2 2176   0.770   1.748   4.926 -0.8956 -1.9526  0.6886
  498SOL     OW 2177   4.534   0.221   3.409 -0.1616 -0.0755 -0.1143
  498SOL    HW1 2178   4.510   0.237   3.501 -0.9781 -1.9634  0.0564
  498SOL    HW2 2179   4.513   0.128   3.395 -0.7787  0.3532 -2.4349
  499SOL     OW 2180   3.523   0.526   3.899 -0.6021 -0.1798  0.6500
  499SOL    HW1 2181   3.532   0.582   3.822 -0.6824 -0.7785  0.1955
  499SOL    HW2 2182   3.556   0.440   3.870 -1.7281 -0.7233  0.9235
  500SOL     OW 2183   4.636   2.546   2.068  0.8534 -0.0294  0.5669
  500SOL    HW1 2184   4.608   2.485   2.136  2.1565 -1.3738 -0.0518
  500SOL    HW2 2185   4.570   2.538   1.999  0.4757  0.0253  0.9224
  501SOL     OW 2186   1.915   5.192   3.510 -0.3198  0.5967 -0.2558
  501SOL    HW1 2187   1.981   5.127   3.534 -2.7684 -0.8930  3.1254
  501SOL    HW2 2188   1.919   5.257   3.579 -0.9988  1.6411 -1.1627
  502SOL     OW 2189   5.315   0.500   0.707 -0.0169  0.2617 -0.1965
  502SOL    HW1 2190   5.359   0.523   0.625 -0.5364 -2.0488 -1.1976
  502SOL    HW2 2191   5.385   0.504   0.773  0.8927  0.1149 -1.1159
  503SOL     OW 2192   0.046   6.298   2.913 -0.3232 -0.2560  0.0605
  503SOL    HW1 2193  -0.029   6.307   2.973  0.4798  1.3430  0.8775
  503SOL    HW2 2194   0.006   6.299   2.825 -1.6062 -3.4857  0.4511
  504SOL     OW 2195   3.766   2.104   2.693  0.4504 -0.1413 -0.1302
  504SOL    HW1 2196   3.815   2.184   2.674 -0.2130  0.0930 -0.9450
  504SOL    HW2 2197   3.751   2.108   2.788  1.3875  0.1244  0.0178
  505SOL     OW 2198   6.827   1.271   6.731  0.5289  0.3582 -0.1076
  505SOL    HW1 2199   6.872   1.238   6.653  0.4291 -1.8632  0.7028
  505SOL    HW2 2200   6.762   1.203   6.752 -2.4448  2.8488 -0.5178
  506SOL     OW 2201   5.674   1.137   5.392  0.6027  1.0553 -0.2763
  506SOL    HW1 2202   5.767   1.119   5.405 -0.0268 -1.1392  2.0522
  506SOL    HW2 2203   5.637   1.134   5.480 -1.7515  1.3716 -1.1937
  507SOL     OW 2204   4.136   2.720   1.946 -0.0363 -0.2471 -0.0654
  507SOL    HW1 2205   4.080   2.644   1.925 -0.4824  0.2463 -0.6838
  507SOL    HW2 2206   4.140   2.770   1.865  1.8330 -0.5845 -0.2184
  508SOL     OW 2207   0.692   3.372   3.602  0.3626 -0.4553  0.0777
  508SOL    HW1 2208   0.639   3.451   3.595  0.4550 -0.4722 -0.9820
  508SOL    HW2 2209   0.733   3.378   3.689 -0.5806  0.0438  0.4985
  509SOL     OW 2210   0.219   2.519   4.024  0.3948  0.5710  0.7505
  509SOL    HW1 2211   0.275   2.575   3.970 -0.0102  0.3309  0.0624
  509SOL    HW2 2212   0.278   2.451   4.057  0.4674  0.1480 -0.2083
  510SOL     OW 2213   6.406   1.737   2.913 -0.7140  0.4480 -0.4332
  510SOL    HW1 2214   6.429   1.757   2.822 -0.3266 -1.4874 -0.8062
  510SOL    HW2 2215   6.421   1.819   2.960 -0.4772  1.3613 -2.0212
  511SOL     OW 2216   5.930   3.753   4.292  0.2860 -0.1912 -0.1766
  511SOL    HW1 2217   5.858   3.724   4.348 -0.2459 -0.2233 -0.8627
  511SOL    HW2 2218   5.897   3.832   4.249 -0.6946 -2.0255 -3.0834
  512SOL     OW 2219   3.079   1.935   6.727  0.1042 -0.1917  0.1359
  512SOL    HW1 2220   3.165   1.938   6.769  0.0290  0.2643  0.2670
  512SOL    HW2 2221   3.020   1.898   6.792  0.2730 -0.8475 -0.0826
  513SOL     OW 2222   3.532   6.274   0.692 -0.3333  0.4692 -0.1821
  513SOL    HW1 2223   3.621   6.245   0.714 -0.5849  1.2976  2.2251
  513SOL    HW2 2224   3.512   6.229   0.610  2.7077  1.1080 -1.4031
  514SOL     OW 2225   0.699   0.549   0.496  0.0374 -0.3262 -0.1211
  514SOL    HW1 2226   0.725   0.634   0.462  1.2052 -0.3471  0.6825
  514SOL    HW2 2227   0.611   0.563   0.531 -0.0170  0.3956 -0.5391
  515SOL     OW 2228   2.716   1.535   0.317  0.2483 -0.2168  0.4143
  515SOL    HW1 2229   2.801   1.492   0.316 -0.2554 -1.2419  0.0943
  515SOL    HW2 2230   2.654   1.466   0.341 -0.7632 -0.0599 -1.5240
  516SOL     OW 2231   4.915   2.279   0.932 -0.3150  0.1287  0.4955
  516SOL    HW1 2232   4.957   2.194   0.945 -1.0412 -0.2886  0.1747
  516SOL    HW2 2233   4.882   2.275   0.842  0.4260  1.0997  0.1622
  517SOL     OW 2234   0.115   4.340   1.304  0.2121  0.2322  0.6045
  517SOL    HW1 2235   0.094   4.373   1.391 -1.6730 -1.1599  0.7526
  517SOL    HW2 2236   0.105   4.415   1.246 -0.6192  0.6896  1.3260
  518SOL     OW 2237   4.372   6.438   4.035 -0.2097 -0.1185 -0.4336
  518SOL    HW1 2238   4.296   6.470   4.084 -0.2847 -0.7147 -0.1443
  518SOL    HW2 2239   4.414   6.375   4.095 -0.9042 -1.6642 -1.5201
  519SOL     OW 2240   6.555   0.426   6.815  0.0045 -0.4414 -0.0141
  519SOL    HW1 2241   6.577   0.463   6.729 -0.1710  1.4770  0.6995
  519SOL    HW2 2242   6.463   0.451   6.828  0.5720  1.0313  1.5207
  520SOL     OW 2243   0.320   1.118   0.505 -0.0708  0.5007 -0.0410
  520SOL    HW1 2244   0.342   1.122   0.598 -0.7694 -0.0871  0.1520
  520SOL    HW2 2245   0.293   1.028   0.490 -1.4045  0.9505 -0.4820
  521SOL     OW 2246   3.603   5.067   2.325 -0.2893  0.3333  0.3293
  521SOL    HW1 2247   3.554   5.054   2.243  0.2507 -1.9160  0.3066
  521SOL    HW2 2248   3.536   5.092   2.389 -0.8895  0.9196 -0.5006
  522SOL     OW 2249   0.866   0.902   1.126  0.4950  0.1261  0.0051
  522SOL    HW1 2250   0.929   0.962   1.085  0.2861 -1.0190 -2.1382
  522SOL    HW2 2251   0.830   0.852   1.053 -1.9142 -0.2073  1.3323
  523SOL     OW 2252   2.946   1.341   4.549  0.4203 -0.0520  0.1251
  523SOL    HW1 2253   2.909   1.383   4.471 -1.8344 -1.0058  0.6049
  523SOL    HW2 2254   2.908   1.389   4.623  1.1422 -0.2819  0.6608
  524SOL     OW 2255   6.542   4.043   1.238 -0.1720 -0.1765  0.1918
  524SOL    HW1 2256   6.607   3.985   1.278 -0.0868  0.0661  0.4029
  524SOL    HW2 2257   6.491   3.985   1.181  1.6954  0.0211 -1.7960
  525SOL     OW 2258   0.672   3.857   2.572  0.2093 -0.1348 -0.1230
  525SOL    HW1 2259   0.599   3.919   2.583  0.8320  0.7986 -1.0880
  525SOL    HW2 2260   0.728   3.873   2.648  1.4125  2.0001 -1.3599
  526SOL     OW 2261   1.926   3.857   5.157 -0.7096  0.3138 -0.4276
  526SOL    HW1 2262   1.915   3.942   5.114 -2.0903 -0.5336 -1.8292
  526SOL    HW2 2263   1.837   3.828   5.177 -0.2198 -0.5155  0.6408
  527SOL     OW 2264   1.309   3.564   0.596 -0.3281 -0.0475  0.0706
  527SOL    HW1 2265   1.256   3.488   0.620  1.9178 -1.6614  0.1564
  527SOL    HW2 2266   1.263   3.638   0.636 -3.9427 -0.9162 -2.0334
  528SOL     OW 2267   2.069   6.444   0.220 -0.3073 -0.0890 -0.0210
  528SOL    HW1 2268   2.149   6.398   0.196  0.2525  0.5933  0.4751
  528SOL    HW2 2269   2.011   6.376   0.255 -0.0877 -0.6429 -0.7317
  529SOL     OW 2270   2.128   1.981   0.328 -0.1511  0.2957 -0.3539
  529SOL    HW1 2271   2.114   1.954   0.419 -0.1721 -0.3800 -0.5485
  529SOL    HW2 2272   2.040   1.979   0.289 -0.3315  1.8255 -0.0751
  530SOL     OW 2273   2.155   4.031   6.543 -0.1274 -0.0303 -0.1303
  530SOL    HW1 2274   2.081   4.076   6.501  0.1132  1.4644  0.9347
  530SOL    HW2 2275   2.209   4.000   6.470 -1.2460 -0.1795 -0.9187
  531SOL     OW 2276   4.192   1.213   4.658 -0.0266  0.2464 -0.1185
  531SOL    HW1 2277   4.278   1.254   4.648 -0.2138  0.3650 -1.4711
  531SOL    HW2 2278   4.130   1.286   4.647 -0.3252 -0.1090 -0.8523
  532SOL     OW 2279   2.774   2.846   4.402  0.2546 -0.3902  0.2394
  532SOL    HW1 2280   2.721   2.925   4.400  3.5049  1.9861  0.0636
  532SOL    HW2 2281   2.788   2.825   4.309 -0.0343 -0.8015  0.2850
  533SOL     OW 2282   3.396   0.251   6.159 -0.0086  0.4809 -0.2096
  533SOL    HW1 2283   3.466   0.288   6.105  0.1220  0.0311 -0.3516
  533SOL    HW2 2284   3.324   0.237   6.099 -0.7279  2.2179  0.1814
  534SOL     OW 2285   4.447   4.574   3.654 -0.1792 -0.1493 -0.3022
  534SOL    HW1 2286   4.513   4.551   3.720 -0.0512 -0.8050 -0.6465
  534SOL    HW2 2287   4.455   4.668   3.644  2.3017 -0.4389 -1.9689
  535SOL     OW 2288   0.495   3.192   1.849  0.1466 -0.0938 -0.0792
  535SOL    HW1 2289   0.403   3.218   1.849  0.5506  1.4520  0.2289
  535SOL    HW2 2290   0.506   3.141   1.769 -0.9260 -0.1389 -0.2127
  536SOL     OW 2291   3.094   4.972   5.530  0.5141  0.5283  0.1158
  536SOL    HW1 2292   3.006   4.990   5.497  0.4922  0.7871  0.3146
  536SOL    HW2 2293   3.080   4.945   5.621  0.7045  1.3572  0.3995
  537SOL     OW 2294   4.352   1.047   1.627 -0.6421  0.3827 -0.5351
  537SOL    HW1 2295   4.371   0.987   1.699 -0.9445 -1.6434 -2.0447
  537SOL    HW2 2296   4.429   1.103   1.621  0.2457 -0.7197  0.1224
  538SOL     OW 2297   0.984   5.507   1.289 -0.1257 -0.8345 -0.4188
  538SOL    HW1 2298   1.015   5.421   1.262 -0.4629 -1.2011  0.3332
  538SOL    HW2 2299   0.995   5.509   1.384 -1.3801 -0.5728 -0.2539
  539SOL     OW 2300   1.358   3.641   5.391  0.2853  0.2940  0.0602
  539SOL    HW1 2301   1.309   3.559   5.387  0.0552  0.3216  1.4932
  539SOL    HW2 2302   1.407   3.644   5.309 -2.7389  0.7052 -1.8646
  540SOL     OW 2303   6.004   0.356   2.076 -0.3606 -0.1230 -0.2046
  540SOL    HW1 2304   5.914   0.387   2.084 -0.3697 -0.5126  1.4867
  540SOL    HW2 2305   6.058   0.432   2.097 -0.3559 -0.5227  1.3626
  541SOL     OW 2306   5.173   2.483   1.504  0.2805 -0.2501  0.1467
  541SOL    HW1 2307   5.238   2.435   1.452  2.4385  2.3834  0.2294
  541SOL    HW2 2308   5.151   2.559   1.451 -0.0146  0.7617  1.6604
  542SOL     OW 2309   4.634   1.516   6.489  0.2073 -0.1139 -0.7898
  542SOL    HW1 2310   4.664   1.588   6.434  0.5971 -0.2556 -0.7655
  542SOL    HW2 2311   4.707   1.499   6.549  0.0799 -0.4619 -0.7286
  543SOL     OW 2312   4.990   5.598   3.743 -0.0040  0.3766  0.3899
  543SOL    HW1 2313   5.006   5.684   3.702 -3.8674  0.9350 -0.3918
  543SOL    HW2 2314   5.006   5.613   3.836 -1.7961  2.4193  0.4609
  544SOL     OW 2315   4.054   5.554   6.806  0.3851 -0.2859  0.3700
  544SOL    HW1 2316   4.135   5.582   6.848 -0.9043  2.4726  1.1841
  544SOL    HW2 2317   4.006   5.506   6.874  0.6213 -0.5394  0.3611
  545SOL     OW 2318   6.278   2.210   3.252 -0.2491  0.5790  0.6341
  545SOL    HW1 2319   6.301   2.250   3.336  0.0075 -0.5304  1.1238
  545SOL    HW2 2320   6.285   2.116   3.269 -0.2548  0.3402 -0.6235
  546SOL     OW 2321   2.530   3.882   5.366 -0.3242 -0.0868  0.4606
  546SOL    HW1 2322   2.622   3.906   5.358 -0.2654 -0.7655 -1.2048
  546SOL    HW2 2323   2.486   3.930   5.296 -0.8923 -1.3044 -0.0486
  547SOL     OW 2324   2.949   3.612   4.746 -0.1544 -0.8064  0.1795
  547SOL    HW1 2325   2.864   3.622   4.788  0.2139 -0.8875  0.9681
  547SOL    HW2 2326   2.932   3.623   4.652 -1.0530 -1.0010  0.3175
  548SOL     OW 2327   5.074   3.291   1.601 -0.2824  0.4395 -0.4485
  548SOL    HW1 2328   5.028   3.213   1.632  0.1311  0.8537  1.3479
  548SOL    HW2 2329   5.167   3.269   1.607 -0.0878  1.5415  1.6463
  549SOL     OW 2330   6.016   4.884   4.946 -0.6604 -0.6431  0.0094
  549SOL    HW1 2331   6.009   4.826   4.870  0.0681 -0.3549 -0.2937
  549SOL    HW2 2332   5.980   4.834   5.019  2.9848 -2.9292  0.5217
  550SOL     OW 2333   6.552   3.207   1.307  0.2709  0.1295 -0.6694
  550SOL    HW1 2334   6.525   3.298   1.302  1.1908  0.4754  0.2485
  550SOL    HW2 2335   6.616   3.197   1.236  1.4443  0.6859  0.2739
  551SOL     OW 2336   5.235   2.003   2.116  0.1237 -0.5597  0.2345
  551SOL    HW1 2337   5.240   1.984   2.023  0.3003 -2.0531  0.5308
  551SOL    HW2 2338   5.283   2.086   2.126  0.3395 -0.5275 -0.9471
  552SOL     OW 2339   6.285   0.128   1.590 -0.4448  0.1886 -0.3249
  552SOL    HW1 2340   6.308   0.069   1.518  0.3962 -1.3870  1.1877
  552SOL    HW2 2341   6.337   0.207   1.573  0.0404 -0.3078 -1.2366
  553SOL     OW 2342   0.316   0.765   4.298 -0.6821  0.0372  0.2381
  553SOL    HW1 2343   0.315   0.776   4.203  2.3503 -0.6603  0.0107
  553SOL    HW2 2344   0.366   0.685   4.312 -0.2255  0.6420  2.4363
  554SOL     OW 2345   4.918   6.147   6.158  0.0265 -0.3025 -0.4687
  554SOL    HW1 2346   4.826   6.136   6.137 -0.2054  1.1862 -0.3316
  554SOL    HW2 2347   4.940   6.235   6.128  1.6623 -0.9667 -1.3702
  555SOL     OW 2348   5.749   4.183   4.479  0.0219  0.3230 -0.1822
  555SOL    HW1 2349   5.726   4.190   4.386 -2.1921 -0.8314  0.2221
  555SOL    HW2 2350   5.711   4.100   4.508  1.8258 -0.0075  1.4804
  556SOL     OW 2351   5.069   2.624   6.568 -0.5833 -0.3951 -0.0835
  556SOL    HW1 2352   5.128   2.698   6.585  0.3179 -1.0720 -0.1516
  556SOL    HW2 2353   5.032   2.603   6.654  0.1152 -0.6376  0.1688
  557SOL     OW 2354   4.652   4.973   5.275  0.3841  0.1700 -0.4022
  557SOL    HW1 2355   4.669   5.022   5.195  0.4362  2.5147  0.9538
  557SOL    HW2 2356   4.558   4.983   5.290  0.6319  1.1528  0.6402
  558SOL     OW 2357   3.603   1.443   2.710  0.1181  0.1982  0.3739
  558SOL    HW1 2358   3.528   1.395   2.746  0.1062  2.0976  3.1468
  558SOL    HW2 2359   3.567   1.492   2.636 -0.8424 -0.6525  0.2578
  559SOL     OW 2360   5.578   1.734   0.110 -0.3782  0.1385 -0.1864
  559SOL    HW1 2361   5.524   1.665   0.148  0.9782 -0.0102  1.6160
  559SOL    HW2 2362   5.656   1.688   0.078 -0.1840  0.6338 -0.4292
  560SOL     OW 2363   0.437   1.258   2.143  0.0663 -0.5955  1.3292
  560SOL    HW1 2364   0.436   1.169   2.178 -0.4642 -1.4386 -0.6584
  560SOL    HW2 2365   0.475   1.248   2.055 -0.5170  1.0463  0.8597
  561SOL     OW 2366   3.206   0.559   0.002  0.4608  0.1639  0.0032
  561SOL    HW1 2367   3.166   0.472   0.002 -0.2909  0.5048 -0.0809
  561SOL    HW2 2368   3.139   0.617   0.039  1.5117  0.4707  1.5215
  562SOL     OW 2369   6.795   3.263   3.696 -0.1397 -0.6221 -0.0486
  562SOL    HW1 2370   6.847   3.191   3.660 -1.6362 -1.4829 -0.5980
  562SOL    HW2 2371   6.859   3.320   3.739  1.2138 -1.7206 -0.5253
  563SOL     OW 2372   3.256   1.439   0.523  0.5156  0.1899  0.0014
  563SOL    HW1 2373   3.251   1.495   0.446  0.6346  1.3681  0.8157
  563SOL    HW2 2374   3.346   1.405   0.523  0.0317 -1.1960 -1.2725
  564SOL     OW 2375   4.013   6.036   1.181  0.0772  0.4604 -0.0471
  564SOL    HW1 2376   3.943   5.989   1.226  0.3444 -0.3888 -0.4902
  564SOL    HW2 2377   3.980   6.050   1.092  0.9900 -1.1991 -0.6842
  565SOL     OW 2378   6.740   6.453   4.190  0.3404  0.4541 -0.0148
  565SOL    HW1 2379   6.658   6.411   4.163  0.0104  1.5777 -0.8384
  565SOL    HW2 2380   6.750   6.429   4.282 -0.7890  0.1017  0.0346
  566SOL     OW 2381   1.152   0.702   6.260 -0.2000 -0.0866  0.3228
  566SOL    HW1 2382   1.081   0.765   6.276  0.7177  0.9899  0.2384
  566SOL    HW2 2383   1.109   0.617   6.266 -1.5208  0.5397  0.2178
  567SOL     OW 2384   5.914   2.430   6.002 -0.0808  0.1833 -0.0500
  567SOL    HW1 2385   5.974   2.360   6.029 -0.1102  0.0144 -0.4180
  567SOL    HW2 2386   5.949   2.509   6.043 -0.0010 -0.0352  0.3032
  568SOL     OW 2387   6.295   5.780   6.686  0.0072 -0.0332  0.2610
  568SOL    HW1 2388   6.217   5.794   6.633  0.2196 -0.6824 -0.2316
  568SOL    HW2 2389   6.283   5.694   6.725  0.3046  0.0264  0.4945
  569SOL     OW 2390   3.786   0.360   0.680 -0.0878 -0.7687  0.1102
  569SOL    HW1 2391   3.831   0.390   0.601  2.2189  1.0431  1.9744
  569SOL    HW2 2392   3.768   0.267   0.664  2.5124 -1.0684 -1.5929
  570SOL     OW 2393   1.987   0.147   4.185 -0.0845  0.1211  0.0945
  570SOL    HW1 2394   1.905   0.099   4.184 -1.6894  2.6089  0.9212
  570SOL    HW2 2395   1.996   0.183   4.097  0.6936 -0.9939 -0.2947
  571SOL     OW 2396   2.275   5.888   5.411 -0.4534 -0.4303  0.3592
  571SOL    HW1 2397   2.193   5.906   5.365  0.2498 -1.2593 -1.2924
  571SOL    HW2 2398   2.248   5.849   5.493 -1.7762  1.6670  1.0188
  572SOL     OW 2399   5.307   4.745   1.650 -0.2001 -0.2932 -0.1744
  572SOL    HW1 2400   5.253   4.823   1.639 -1.0412 -1.0297 -1.4424
  572SOL    HW2 2401   5.321   4.739   1.744 -3.5415 -0.8659  0.4035
  573SOL     OW 2402   5.887   0.873   0.623  0.1342 -0.3402  0.1473
  573SOL    HW1 2403   5.793   0.881   0.636  0.1911 -1.6558  1.6966
  573SOL    HW2 2404   5.926   0.932   0.688  0.4299  1.3754 -1.4876
  574SOL     OW 2405   6.298   1.853   1.216 -0.2681 -0.0194  0.0391
  574SOL    HW1 2406   6.383   1.832   1.178 -0.0239  2.0840 -0.7095
  574SOL    HW2 2407   6.237   1.851   1.142 -1.1326 -2.4240  0.7083
  575SOL     OW 2408   4.992   3.784   1.074  0.6340  0.7130 -0.1886
  575SOL    HW1 2409   5.046   3.841   1.020 -0.0935  1.8667  0.2754
  575SOL    HW2 2410   4.937   3.737   1.011  0.9072  0.8542 -0.5397
  576SOL     OW 2411   1.135   4.676   2.341  1.0064 -0.2817  0.6352
  576SOL    HW1 2412   1.218   4.639   2.312  1.0960 -0.6258  1.2920
  576SOL    HW2 2413   1.071   4.607   2.325  0.3748  0.8466 -2.1362
  577SOL     OW 2414   5.813   0.912   5.731  0.2909 -0.4302 -0.2984
  577SOL    HW1 2415   5.891   0.923   5.785  0.6770 -1.9923 -0.4899
  577SOL    HW2 2416   5.748   0.971   5.770  1.1062 -0.1975  0.7562
  578SOL     OW 2417   1.291   4.084   6.841  0.0607 -0.2034 -0.2681
  578SOL    HW1 2418   1.308   4.103   6.748 -0.3616  1.3373 -0.0689
  578SOL    HW2 2419   1.196   4.092   6.849 -0.1086 -2.0469 -0.0212
  579SOL     OW 2420   2.758   2.596   6.287 -0.3200  0.9370  0.0816
  579SOL    HW1 2421   2.671   2.597   6.327 -0.6084 -0.5530 -0.4343
  579SOL    HW2 2422   2.812   2.546   6.348  0.1033  1.5995  0.2551
  580SOL     OW 2423   6.729   0.634   6.231  0.2434 -0.0131  0.0083
  580SOL    HW1 2424   6.770   0.586   6.159 -0.3947  0.8228 -0.9341
  580SOL    HW2 2425   6.648   0.669   6.194 -0.4556 -0.1754  1.3473
  581SOL     OW 2426   2.014   2.711   6.307  0.1572 -0.1249  0.1983
  581SOL    HW1 2427   1.997   2.698   6.400  2.4123 -2.0705  0.4358
  581SOL    HW2 2428   1.958   2.647   6.263 -1.3715  1.2184  0.1292
  582SOL     OW 2429   5.066   6.646   0.197 -0.0888 -0.0767 -1.0517
  582SOL    HW1 2430   4.988   6.593   0.210  1.1303 -1.6072  0.5425
  582SOL    HW2 2431   5.108   6.609   0.119 -0.1226 -0.3412 -0.9447
  583SOL     OW 2432   2.753   2.086   5.181  0.0246 -0.5944  0.0195
  583SOL    HW1 2433   2.785   2.015   5.236 -1.5146  0.2889  2.1858
  583SOL    HW2 2434   2.746   2.161   5.240  1.6878  1.4553 -2.2042
  584SOL     OW 2435   2.592   3.970   4.539  0.5993  0.5122  0.2384
  584SOL    HW1 2436   2.576   4.016   4.621 -0.0159  0.0460  0.3882
  584SOL    HW2 2437   2.666   4.017   4.499 -0.3463  1.9874  0.1143
  585SOL     OW 2438   6.265   6.117   4.172  0.3429  0.1226 -0.5094
  585SOL    HW1 2439   6.211   6.192   4.151 -0.0450 -0.0404 -0.1140
  585SOL    HW2 2440   6.326   6.149   4.238 -0.1499 -0.0283  0.0317
  586SOL     OW 2441   2.729   0.091   6.708  0.3741  0.4784 -0.1159
  586SOL    HW1 2442   2.673   0.018   6.682  1.7376 -0.5897 -0.1826
  586SOL    HW2 2443   2.778   0.058   6.784  0.9234  1.3664 -0.0695
  587SOL     OW 2444   4.594   0.186   2.783  0.0919  0.0694  0.3655
  587SOL    HW1 2445   4.655   0.222   2.848 -0.6274  0.1226  1.0383
  587SOL    HW2 2446   4.648   0.130   2.727  1.0880  1.5651 -0.2119
  588SOL     OW 2447   0.225   2.399   5.118  0.0909  0.2148 -0.3446
  588SOL    HW1 2448   0.181   2.484   5.114 -1.5642 -0.5686  0.0804
  588SOL    HW2 2449   0.161   2.338   5.081  1.7721 -0.6693 -1.8954
  589SOL     OW 2450   5.176   0.509   5.895 -0.4215 -0.4599  0.1697
  589SOL    HW1 2451   5.085   0.537   5.904 -1.0497 -1.8317 -1.4737
  589SOL    HW2 2452   5.191   0.450   5.969 -1.3661 -1.4055 -0.3730
  590SOL     OW 2453   1.930   5.800   3.665 -0.2678 -0.4329 -0.3745
  590SOL    HW1 2454   1.908   5.737   3.597  0.4747 -3.3956  1.8852
  590SOL    HW2 2455   2.026   5.803   3.665 -0.2864  0.4068 -0.1935
  591SOL     OW 2456   3.703   0.524   0.252  0.4480 -0.4930 -0.0882
  591SOL    HW1 2457   3.752   0.550   0.330 -1.9433  2.4748  0.6492
  591SOL    HW2 2458   3.619   0.492   0.286 -0.1471 -0.3985 -1.3924
  592SOL     OW 2459   0.401   6.861   6.789  0.1940  0.3602 -0.0300
  592SOL    HW1 2460   0.411   6.768   6.810 -0.2621  0.0318 -1.1600
  592SOL    HW2 2461   0.360   6.861   6.702 -0.2878  1.6174  0.1786
  593SOL     OW 2462   6.332   6.269   2.229  0.5699 -0.4800  0.0561
  593SOL    HW1 2463   6.273   6.252   2.303  2.9466  0.3821  2.2657
  593SOL    HW2 2464   6.392   6.194   2.228  0.8360 -0.2692 -0.7566
  594SOL     OW 2465   5.916   1.224   0.312 -0.3022 -0.0246 -0.5480
  594SOL    HW1 2466   5.998   1.268   0.290 -0.0453  0.5554  1.3394
  594SOL    HW2 2467   5.849   1.289   0.294  0.0309  1.0631  1.6601
  595SOL     OW 2468   4.881   2.782   6.490 -0.2172 -0.4120  0.4038
  595SOL    HW1 2469   4.863   2.844   6.561  1.1893  1.3519 -0.6975
  595SOL    HW2 2470   4.964   2.741   6.513  0.4372  0.4396 -0.3479
  596SOL     OW 2471   2.179   3.948   5.737  0.3282  0.1316 -0.6291
  596SOL    HW1 2472   2.090   3.968   5.766 -0.4812 -0.8725 -2.2054
  596SOL    HW2 2473   2.171   3.863   5.693  1.5797  1.0733 -2.8548
  597SOL     OW 2474   5.320   1.062   5.748  0.3986  0.5017 -0.1109
  597SOL    HW1 2475   5.324   1.001   5.675  0.8894  0.3520  0.0420
  597SOL    HW2 2476   5.382   1.131   5.725 -0.4849  1.1869 -0.4982
  598SOL     OW 2477   3.659   5.492   2.221 -0.0989 -0.3482  0.1457
  598SOL    HW1 2478   3.613   5.497   2.305 -3.0819 -0.9117 -1.2983
  598SOL    HW2 2479   3.704   5.408   2.223 -0.1722 -0.3759  1.1394
  599SOL     OW 2480   5.556   4.617   6.640  0.2478  0.5369 -0.2982
  599SOL    HW1 2481   5.636   4.568   6.619 -0.2288 -0.1888 -0.4558
  599SOL    HW2 2482   5.546   4.678   6.567  1.5280  1.7774  0.5106
  600SOL     OW 2483   0.609   5.753   0.128  0.6161  0.5313  0.6063
  600SOL    HW1 2484   0.531   5.807   0.115 -0.1131 -0.9152 -1.5261
  600SOL    HW2 2485   0.656   5.758   0.045  1.3560 -0.8332  0.9143
  601SOL     OW 2486   1.725   6.273   6.105  0.2749  0.3820 -0.2139
  601SOL    HW1 2487   1.748   6.229   6.187  0.5229 -0.3104 -0.6429
  601SOL    HW2 2488   1.776   6.226   6.038 -0.0725  0.8119 -0.7856
  602SOL     OW 2489   4.161   1.009   1.440  0.1633  0.0111  0.9386
  602SOL    HW1 2490   4.224   1.021   1.511 -1.4695  2.4825  2.1440
  602SOL    HW2 2491   4.197   1.058   1.367  0.1936  0.4583  1.2483
  603SOL     OW 2492   1.908   1.369   6.505 -0.6713  0.1454  0.4355
  603SOL    HW1 2493   1.919   1.320   6.586  0.9416  1.4822  1.0951
  603SOL    HW2 2494   1.936   1.309   6.436 -0.9955 -0.6307  0.9650
  604SOL     OW 2495   1.328   6.169   3.866 -0.4431  0.4222  0.1828
  604SOL    HW1 2496   1.373   6.236   3.814 -3.1009  2.2822  0.1043
  604SOL    HW2 2497   1.308   6.100   3.803  0.4348  0.5006 -0.2023
  605SOL     OW 2498   0.115   2.352   0.676  0.1383 -0.5306 -0.0523
  605SOL    HW1 2499   0.105   2.390   0.589 -0.5585 -1.2109 -0.2827
  605SOL    HW2 2500   0.179   2.281   0.663  0.4024 -0.3180  0.0907
  606SOL     OW 2501   0.513   4.907   5.864 -0.1931  0.3989  0.0631
  606SOL    HW1 2502   0.498   4.820   5.826  0.4576  0.4505 -0.3275
  606SOL    HW2 2503   0.512   4.893   5.958  0.5616 -0.1485 -0.0066
  607SOL     OW 2504   0.694   5.082   1.385 -0.1001  0.0241  0.0674
  607SOL    HW1 2505   0.690   5.165   1.431  1.0390 -0.1089  0.4310
  607SOL    HW2 2506   0.651   5.020   1.443 -2.9632  0.7227 -1.1508
  608SOL     OW 2507   1.679   0.255   3.278  0.3737 -0.0859  0.2753
  608SOL    HW1 2508   1.744   0.254   3.348 -1.4451 -1.6644  2.0609
  608SOL    HW2 2509   1.595   0.256   3.323 -0.9542  2.8181 -1.9370
  609SOL     OW 2510   6.738   0.324   5.073  0.6449 -0.0901 -0.4396
  609SOL    HW1 2511   6.727   0.415   5.103  1.3567  0.3190 -1.3830
  609SOL    HW2 2512   6.767   0.332   4.982  0.6318 -1.2720 -0.5568
  610SOL     OW 2513   4.285   1.494   5.798  0.8806  0.1854 -0.2736
  610SOL    HW1 2514   4.239   1.578   5.806  1.5582  0.3992  2.0608
  610SOL    HW2 2515   4.231   1.444   5.737 -0.9008  1.4506  0.1515
  611SOL     OW 2516   4.799   0.058   5.610 -0.1407  0.0396  0.2523
  611SOL    HW1 2517   4.788   0.107   5.529  1.4573 -0.2167 -0.1485
  611SOL    HW2 2518   4.858   0.112   5.663 -0.1981 -0.3754  0.7521
  612SOL     OW 2519   0.491   1.310   6.185 -0.0300 -0.5621  0.2058
  612SOL    HW1 2520   0.409   1.357   6.167 -0.3387 -1.0510  0.3336
  612SOL    HW2 2521   0.551   1.379   6.215 -1.1083 -0.5248  2.5198
  613SOL     OW 2522   5.030   2.741   0.259 -0.0868  0.1249 -0.3483
  613SOL    HW1 2523   5.046   2.831   0.232  2.0843  0.3089  1.2460
  613SOL    HW2 2524   4.994   2.749   0.348  3.2576 -0.4907  1.2188
  614SOL     OW 2525   2.567   6.455   3.061  0.0776 -0.1832 -0.3039
  614SOL    HW1 2526   2.481   6.494   3.070  0.7645  1.1744  0.8513
  614SOL    HW2 2527   2.570   6.421   2.971 -1.3527  0.4665 -0.6115
  615SOL     OW 2528   0.105   2.918   6.713  0.2213 -0.4869  0.4550
  615SOL    HW1 2529   0.092   2.823   6.717  2.6617 -0.9100 -0.2160
  615SOL    HW2 2530   0.132   2.942   6.802 -1.3847 -0.2062  0.8976
  616SOL     OW 2531   3.228   4.589   3.250 -0.3136 -0.5568 -0.1117
  616SOL    HW1 2532   3.283   4.595   3.172 -0.3587 -0.8813 -0.1695
  616SOL    HW2 2533   3.179   4.508   3.238 -0.7300 -0.3213 -0.0107
  617SOL     OW 2534   5.938   6.118   1.392 -0.6887  0.0302 -0.1986
  617SOL    HW1 2535   6.019   6.147   1.351 -1.4319  0.3611 -1.4753
  617SOL    HW2 2536   5.952   6.133   1.486  2.0174 -3.0640  0.0766
  618SOL     OW 2537   4.042   1.062   4.801  0.2199 -0.1438 -0.3252
  618SOL    HW1 2538   4.096   1.123   4.751  0.7426  0.1207  0.5519
  618SOL    HW2 2539   4.075   0.976   4.777  1.4015  0.0325  0.6089
  619SOL     OW 2540   3.020   3.185   4.224 -0.4675 -0.1034  0.4082
  619SOL    HW1 2541   2.939   3.157   4.180 -1.0636  0.9102  0.8125
  619SOL    HW2 2542   3.005   3.278   4.243  0.2338 -0.2471  1.7577
  620SOL     OW 2543   4.056   6.210   0.547  0.0434  0.1107 -0.0405
  620SOL    HW1 2544   4.098   6.254   0.620  2.7976 -2.0938 -0.1324
  620SOL    HW2 2545   4.106   6.128   0.536 -0.1087  0.3665 -4.4203
  621SOL     OW 2546   4.198   3.729   2.972  0.2241 -0.0903 -0.3209
  621SOL    HW1 2547   4.237   3.712   3.058  1.7157 -0.3505 -1.0176
  621SOL    HW2 2548   4.106   3.747   2.991  0.7094  0.8194  1.4273
  622SOL     OW 2549   6.085   0.776   4.007  0.2926 -0.0653  0.6811
  622SOL    HW1 2550   6.097   0.697   3.955 -0.9860  0.4368 -0.4335
  622SOL    HW2 2551   6.009   0.758   4.063 -0.5539  0.6348 -0.1929
  623SOL     OW 2552   0.559   1.185   4.605  0.0995 -0.3549  0.3330
  623SOL    HW1 2553   0.568   1.182   4.701  1.3978 -1.0927  0.2027
  623SOL    HW2 2554   0.647   1.171   4.572 -0.1829  0.7828 -0.9866
  624SOL     OW 2555   6.183   5.379   5.132  0.2014 -0.0853  0.3573
  624SOL    HW1 2556   6.251   5.313   5.121  1.0090  0.7792 -0.1073
  624SOL    HW2 2557   6.102   5.335   5.109  0.2640 -1.7714  3.0260
  625SOL     OW 2558   1.041   6.743   6.706 -0.2854  0.0542  0.0874
  625SOL    HW1 2559   1.126   6.785   6.697 -0.6061  0.8355  0.6419
  625SOL    HW2 2560   0.985   6.788   6.643 -0.6264  0.4550  0.6697
  626SOL     OW 2561   1.090   4.858   0.668 -0.4959 -0.3133 -0.5840
  626SOL    HW1 2562   1.115   4.767   0.655  0.4050  0.1790 -2.7575
  626SOL    HW2 2563   1.001   4.855   0.702 -0.2914 -1.9919 -0.1427
  627SOL     OW 2564   4.005   4.515   3.153  0.2061 -0.3491  0.2384
  627SOL    HW1 2565   3.979   4.605   3.131 -1.1018 -0.7271  0.1513
  627SOL    HW2 2566   4.065   4.526   3.227 -2.1273  0.5189  2.1707
  628SOL     OW 2567   6.612   4.233   4.962  0.1856  0.1486 -0.1869
  628SOL    HW1 2568   6.580   4.308   5.012  0.3592 -0.1996  0.4510
  628SOL    HW2 2569   6.555   4.230   4.885 -0.4581  0.3428  0.2727
  629SOL     OW 2570   4.609   5.668   3.685  0.1994 -0.5093 -0.7163
  629SOL    HW1 2571   4.571   5.679   3.772 -0.6893 -0.0752 -1.1370
  629SOL    HW2 2572   4.681   5.731   3.681 -1.0714  0.9996 -1.0007
  630SOL     OW 2573   0.837   0.678   1.278  0.0899 -0.0764  0.3396
  630SOL    HW1 2574   0.869   0.752   1.226  0.0400  2.3917  3.5115
  630SOL    HW2 2575   0.916   0.631   1.303  0.2216 -0.4645 -0.7464
  631SOL     OW 2576   1.936   5.006   2.074 -0.6597 -0.1878  0.1557
  631SOL    HW1 2577   1.964   5.040   1.989 -0.5124 -2.4075 -0.7293
  631SOL    HW2 2578   1.855   5.053   2.092  0.5847  2.1846  0.0632
  632SOL     OW 2579   4.199   6.076   4.385 -0.3907 -0.4437  0.1061
  632SOL    HW1 2580   4.247   5.994   4.383  1.2948  0.4483  1.3225
  632SOL    HW2 2581   4.150   6.073   4.468 -0.0186 -0.0760  0.3440
  633SOL     OW 2582   2.731   6.548   5.054  0.3423 -0.0063  0.4457
  633SOL    HW1 2583   2.746   6.558   5.148 -0.5897 -2.0375  0.8609
  633SOL    HW2 2584   2.639   6.570   5.042  0.1668 -0.8344  0.2116
  634SOL     OW 2585   1.693   2.259   3.969 -1.0847 -0.1124 -0.0383
  634SOL    HW1 2586   1.744   2.217   3.901 -1.2312 -0.9764  0.3690
  634SOL    HW2 2587   1.606   2.219   3.961 -1.4525  0.6986 -0.1572
  635SOL     OW 2588   3.061   5.580   3.099 -0.5726 -0.7265 -0.1118
  635SOL    HW1 2589   3.089   5.534   3.178 -1.2292 -0.6396  0.1833
  635SOL    HW2 2590   3.141   5.617   3.063 -0.2701 -0.7412  0.5313
  636SOL     OW 2591   3.206   0.894   2.372 -0.1273  0.1805  0.6462
  636SOL    HW1 2592   3.206   0.982   2.408 -1.1265  0.5998 -0.3111
  636SOL    HW2 2593   3.292   0.884   2.331 -0.4858  1.2175 -0.3921
  637SOL     OW 2594   0.987   4.494   2.838  0.1946  0.8127 -0.1752
  637SOL    HW1 2595   1.037   4.556   2.892 -0.9376 -0.2012  2.1453
  637SOL    HW2 2596   0.896   4.505   2.866 -0.3911 -0.0528 -1.6158
  638SOL     OW 2597   3.078   2.599   4.233 -0.4747  0.2932 -0.0821
  638SOL    HW1 2598   3.082   2.529   4.299 -1.7633  0.1034 -0.1823
  638SOL    HW2 2599   3.138   2.666   4.266 -2.0748  0.8006  2.0559
  639SOL     OW 2600   2.430   0.957   3.677 -0.5976 -0.7584  0.3877
  639SOL    HW1 2601   2.500   0.995   3.730 -0.2978  0.3518 -0.7393
  639SOL    HW2 2602   2.392   1.032   3.630 -1.2128 -1.6118 -0.5306
  640SOL     OW 2603   3.502   3.207   1.192 -0.4654 -0.2645 -0.1795
  640SOL    HW1 2604   3.470   3.228   1.104 -1.3488  0.3326  0.2741
  640SOL    HW2 2605   3.562   3.134   1.178 -1.6349 -1.1026 -1.1380
  641SOL     OW 2606   6.481   5.135   2.273 -0.0166  0.0088  0.2004
  641SOL    HW1 2607   6.518   5.218   2.240 -0.1558  0.2339  0.6045
  641SOL    HW2 2608   6.390   5.155   2.291 -0.0801 -0.2693  0.1896
  642SOL     OW 2609   1.058   0.876   0.136 -0.4759 -0.1590 -0.4764
  642SOL    HW1 2610   1.063   0.792   0.182  1.2266 -0.6492 -1.4732
  642SOL    HW2 2611   0.965   0.889   0.119 -0.7479 -1.9971 -0.5621
  643SOL     OW 2612   2.535   0.652   5.073  0.1291  0.1786  0.3646
  643SOL    HW1 2613   2.501   0.634   4.985  0.9872  0.4751 -0.0467
  643SOL    HW2 2614   2.527   0.747   5.083 -1.8745 -0.0582  1.4475
  644SOL     OW 2615   1.169   6.795   5.124 -0.1987 -0.2365  0.1535
  644SOL    HW1 2616   1.170   6.717   5.068 -0.6693 -0.2472  0.1616
  644SOL    HW2 2617   1.111   6.773   5.196  0.1956 -0.1221  0.5123
  645SOL     OW 2618   4.522   1.959   3.034 -0.3608 -0.3577  0.1128
  645SOL    HW1 2619   4.603   1.960   3.084 -0.2841 -1.3609  0.0239
  645SOL    HW2 2620   4.455   1.931   3.096 -0.6983  0.6828  0.2452
  646SOL     OW 2621   6.119   3.435   3.579 -0.1112  0.0797  0.3692
  646SOL    HW1 2622   6.181   3.376   3.537  0.2475  1.4060 -1.0234
  646SOL    HW2 2623   6.173   3.501   3.622 -0.5354 -0.0683  1.1631
  647SOL     OW 2624   6.488   2.923   3.847 -0.0845 -0.3025 -0.1858
  647SOL    HW1 2625   6.434   2.844   3.849  0.7171 -0.8922 -0.8532
  647SOL    HW2 2626   6.521   2.932   3.937  0.3035 -1.0953 -0.2359
  648SOL     OW 2627   3.143   1.416   2.597  0.1031 -0.7726 -0.1890
  648SOL    HW1 2628   3.172   1.473   2.526 -4.2756  1.1592 -0.7607
  648SOL    HW2 2629   3.100   1.342   2.553 -0.6252 -0.7323  0.4247
  649SOL     OW 2630   3.656   2.074   0.600 -0.1852  0.4011 -0.1501
  649SOL    HW1 2631   3.617   2.002   0.649  0.9000 -0.3168 -0.3054
  649SOL    HW2 2632   3.597   2.147   0.614 -0.8290 -0.2706  0.7630
  650SOL     OW 2633   3.591   1.635   3.579  0.2170 -0.2631  0.3086
  650SOL    HW1 2634   3.595   1.682   3.662  1.7597 -0.2754  0.2638
  650SOL    HW2 2635   3.510   1.585   3.584 -0.5841  1.0398  1.0844
  651SOL     OW 2636   2.998   6.664   0.876 -0.0958  0.3309  0.1002
  651SOL    HW1 2637   2.943   6.742   0.889 -1.5466 -0.8683  1.8553
  651SOL    HW2 2638   2.945   6.607   0.820  0.6006  0.2638 -0.5002
  652SOL     OW 2639   5.538   1.125   2.645  0.2763 -0.3643 -0.4213
  652SOL    HW1 2640   5.482   1.067   2.594 -1.1901  0.8198 -0.2013
  652SOL    HW2 2641   5.623   1.121   2.600 -0.0598 -1.8896 -0.9791
  653SOL     OW 2642   2.047   3.039   4.431 -0.5746  0.2907 -0.1744
  653SOL    HW1 2643   2.121   3.006   4.481 -0.3119  2.1570  0.7366
  653SOL    HW2 2644   1.970   3.017   4.485 -0.6582 -1.0055 -0.7797
  654SOL     OW 2645   2.074   2.076   2.513 -0.3876 -0.0460  0.0193
  654SOL    HW1 2646   2.125   2.041   2.586 -1.0878 -0.5066  0.3007
  654SOL    HW2 2647   2.065   2.170   2.533 -0.7914 -0.2124  0.6779
  655SOL     OW 2648   0.051   5.797   1.276 -0.5859  0.2750 -0.4463
  655SOL    HW1 2649   0.056   5.727   1.211 -1.4264  0.0107 -0.2410
  655SOL    HW2 2650  -0.037   5.833   1.265 -0.8376  0.0532  0.7128
  656SOL     OW 2651   5.486   6.137   1.232 -0.0405  0.7580 -0.0937
  656SOL    HW1 2652   5.508   6.049   1.201  1.8490  1.6638 -1.5488
  656SOL    HW2 2653   5.444   6.179   1.156  1.4972  1.9260 -0.3301
  657SOL     OW 2654   4.301   4.335   0.987 -0.0845 -0.0841 -0.4263
  657SOL    HW1 2655   4.356   4.383   1.050 -0.4149  1.3341 -1.1698
  657SOL    HW2 2656   4.362   4.286   0.933  0.3601  0.3821 -0.3519
  658SOL     OW 2657   3.297   2.748   6.548  0.0282 -0.3572 -0.2812
  658SOL    HW1 2658   3.299   2.842   6.530 -2.3365 -0.2553 -0.2210
  658SOL    HW2 2659   3.371   2.714   6.498  0.6883  1.4637 -0.6464
  659SOL     OW 2660   2.472   0.685   1.396 -0.0315 -0.1266  0.1493
  659SOL    HW1 2661   2.399   0.720   1.448  0.0563 -1.3566  1.1639
  659SOL    HW2 2662   2.546   0.683   1.457  0.8029  0.8445 -0.7910
  660SOL     OW 2663   4.716   4.803   1.663  0.1310 -0.1886  0.2368
  660SOL    HW1 2664   4.711   4.888   1.705 -0.0915 -0.0983  0.0302
  660SOL    HW2 2665   4.709   4.822   1.569  0.4687 -0.3987  0.1676
  661SOL     OW 2666   1.979   5.700   4.679  0.4264  0.6836 -0.3783
  661SOL    HW1 2667   2.042   5.671   4.613  0.2153 -0.7028  0.0035
  661SOL    HW2 2668   2.033   5.717   4.756  0.4933  0.8547 -0.4615
  662SOL     OW 2669   3.609   2.269   3.302 -0.1810 -0.0261 -0.4035
  662SOL    HW1 2670   3.646   2.293   3.387 -1.3005 -0.2975  0.1767
  662SOL    HW2 2671   3.642   2.336   3.242 -1.2181  1.5590  0.6936
  663SOL     OW 2672   2.143   3.783   1.584 -0.0132  0.3392 -0.1713
  663SOL    HW1 2673   2.051   3.758   1.594 -0.0362 -0.1441 -1.4327
  663SOL    HW2 2674   2.144   3.878   1.592 -0.5190  0.2866  0.5552
  664SOL     OW 2675   2.096   3.234   0.962 -0.4117  0.0743  0.0321
  664SOL    HW1 2676   2.076   3.255   0.871  0.9604 -0.4038 -0.3994
  664SOL    HW2 2677   2.066   3.310   1.011  3.6341  2.8998 -1.3741
  665SOL     OW 2678   3.838   4.555   6.470  0.0180 -0.6552  0.0268
  665SOL    HW1 2679   3.843   4.469   6.427  0.6928 -0.5124 -0.1842
  665SOL    HW2 2680   3.795   4.611   6.406 -1.1221 -1.0067  0.4538
  666SOL     OW 2681   1.756   4.601   0.605  0.4663  0.4645  0.2854
  666SOL    HW1 2682   1.714   4.628   0.523 -0.1087 -1.7413 -0.2014
  666SOL    HW2 2683   1.849   4.600   0.584  0.3083 -0.2835 -0.4230
  667SOL     OW 2684   3.160   5.312   5.115  0.1958 -0.3248  0.2411
  667SOL    HW1 2685   3.208   5.295   5.196  0.1501 -1.1980  0.0972
  667SOL    HW2 2686   3.080   5.259   5.123  0.3447 -0.6751 -0.5078
  668SOL     OW 2687   2.688   3.489   3.554 -1.1795 -0.5886 -0.1340
  668SOL    HW1 2688   2.638   3.438   3.490  1.0249 -1.1488 -1.5279
  668SOL    HW2 2689   2.724   3.424   3.614 -0.5705 -0.4086 -0.2956
  669SOL     OW 2690   0.349   1.771   3.339  0.1420 -0.5548 -0.2653
  669SOL    HW1 2691   0.320   1.814   3.419  2.2618  0.4746  0.0093
  669SOL    HW2 2692   0.443   1.760   3.350  0.1297 -2.6365 -1.6033
  670SOL     OW 2693   0.850   1.081   2.863 -0.2535 -0.4838 -0.6735
  670SOL    HW1 2694   0.934   1.069   2.907  0.8276  1.0814 -2.2064
  670SOL    HW2 2695   0.785   1.059   2.930  1.3384 -0.3682  0.9875
  671SOL     OW 2696   0.208   4.111   3.911 -0.8451 -0.7721 -0.1462
  671SOL    HW1 2697   0.118   4.102   3.942 -0.5408  0.8166  1.3198
  671SOL    HW2 2698   0.202   4.170   3.837 -0.7654  1.8717  1.8040
  672SOL     OW 2699   4.657   2.613   1.771  0.1999  0.0358  0.0629
  672SOL    HW1 2700   4.723   2.671   1.809  0.5942 -1.0896  1.1589
  672SOL    HW2 2701   4.708   2.549   1.721 -0.1602 -0.0088 -0.2490
  673SOL     OW 2702   3.430   2.948   6.770  0.6146  0.0882  0.1988
  673SOL    HW1 2703   3.354   3.003   6.756 -0.5667 -1.6666 -0.6015
  673SOL    HW2 2704   3.505   3.006   6.758 -0.5741  1.7885  0.7658
  674SOL     OW 2705   5.227   0.823   5.933 -0.4802  0.6550  0.3320
  674SOL    HW1 2706   5.213   0.765   5.858 -0.6089  2.0296 -0.7433
  674SOL    HW2 2707   5.320   0.816   5.953 -0.2533  1.0128 -0.5844
  675SOL     OW 2708   0.165   2.632   3.617 -0.5685  0.7848 -0.4172
  675SOL    HW1 2709   0.210   2.643   3.701 -0.5185  1.8092 -0.5585
  675SOL    HW2 2710   0.212   2.562   3.573 -2.0895 -1.5353  1.3896
  676SOL     OW 2711   2.193   6.586   4.711 -0.0721 -0.0346 -0.1027
  676SOL    HW1 2712   2.105   6.608   4.743 -0.1502  1.0740 -0.9860
  676SOL    HW2 2713   2.180   6.560   4.620  0.6817  2.2780 -0.9724
  677SOL     OW 2714   6.725   5.739   5.176 -0.2074 -0.4259 -0.4847
  677SOL    HW1 2715   6.658   5.691   5.128 -0.3462 -0.3067 -0.4141
  677SOL    HW2 2716   6.805   5.727   5.125 -0.0349 -1.5005  0.0218
  678SOL     OW 2717   1.462   2.931   2.608  0.2462  0.2349  0.2617
  678SOL    HW1 2718   1.446   2.929   2.703 -3.0521  1.4225 -0.1528
  678SOL    HW2 2719   1.484   3.022   2.589 -0.7940  0.3908 -0.2843
  679SOL     OW 2720   5.859   5.719   4.257  0.0501  0.3416 -0.0113
  679SOL    HW1 2721   5.788   5.779   4.282  0.2660  0.4755  0.2965
  679SOL    HW2 2722   5.926   5.776   4.219 -0.8925 -0.0168 -2.3674
  680SOL     OW 2723   6.464   3.283   6.448 -0.3797 -0.4633 -0.3410
  680SOL    HW1 2724   6.547   3.234   6.439 -0.3418 -0.1477 -2.1425
  680SOL    HW2 2725   6.480   3.345   6.519  0.3526 -1.5136  0.4493
  681SOL     OW 2726   5.041   2.619   1.890 -0.1741 -0.1020  0.5163
  681SOL    HW1 2727   5.057   2.680   1.818 -0.0142 -0.8266 -0.0742
  681SOL    HW2 2728   5.043   2.674   1.969 -2.3448  1.0655 -0.1601
  682SOL     OW 2729   6.159   6.234   1.342 -0.1575  0.4106  0.0090
  682SOL    HW1 2730   6.255   6.233   1.343 -0.0936  0.7605  2.5641
  682SOL    HW2 2731   6.136   6.295   1.272  1.4184 -0.7290 -1.5761
  683SOL     OW 2732   6.114   3.599   0.214 -0.2888  0.1755  0.4706
  683SOL    HW1 2733   6.124   3.504   0.208 -2.7586 -0.1294  0.0400
  683SOL    HW2 2734   6.196   3.634   0.179  0.5458 -1.7768  0.3262
  684SOL     OW 2735   5.174   4.967   6.522 -0.1505  0.6572 -0.3208
  684SOL    HW1 2736   5.216   5.039   6.475 -2.1181  0.9654 -1.7063
  684SOL    HW2 2737   5.184   4.892   6.464 -2.3055  0.9664 -1.1696
  685SOL     OW 2738   4.220   2.465   4.641  0.5774 -0.2642  0.4067
  685SOL    HW1 2739   4.232   2.499   4.730  1.0434 -0.5420  0.4549
  685SOL    HW2 2740   4.292   2.503   4.591 -0.1261  0.5116 -0.0454
  686SOL     OW 2741   2.264   1.341   4.381  0.1610  0.3671 -0.5170
  686SOL    HW1 2742   2.239   1.423   4.422  0.4649  0.4403 -0.4740
  686SOL    HW2 2743   2.358   1.351   4.363  0.2037  0.0239 -0.4927
  687SOL     OW 2744   4.509   1.813   6.227 -0.4478  0.2135  0.1459
  687SOL    HW1 2745   4.502   1.889   6.284 -0.5288 -0.0779  0.5325
  687SOL    HW2 2746   4.592   1.772   6.250 -0.4114  0.1753 -0.0472
  688SOL     OW 2747   5.176   5.026   0.737  0.5071  0.1401 -0.2400
  688SOL    HW1 2748   5.179   5.107   0.686 -0.1203 -1.2478 -2.6278
  688SOL    HW2 2749   5.267   5.009   0.760  0.6703  1.3945  0.1363
  689SOL     OW 2750   1.450   0.983   2.807 -0.1024  0.4704  0.1189
  689SOL    HW1 2751   1.458   1.050   2.738 -1.0857  0.8666  0.3680
  689SOL    HW2 2752   1.361   0.995   2.841 -0.4887 -1.3255 -0.1858
  690SOL     OW 2753   2.341   5.339   3.123  0.1852  0.3449 -0.3375
  690SOL    HW1 2754   2.288   5.303   3.051  0.3982  0.7002 -0.6716
  690SOL    HW2 2755   2.318   5.285   3.199 -1.4396  1.1299 -0.2268
  691SOL     OW 2756   1.449   1.294   5.845  0.3710 -0.5398  0.3328
  691SOL    HW1 2757   1.423   1.385   5.856  0.0300 -0.5170 -0.5737
  691SOL    HW2 2758   1.436   1.254   5.931  1.9473  0.5988  1.1551
  692SOL     OW 2759   0.704   3.494   6.389  0.2278 -0.1700 -0.1551
  692SOL    HW1 2760   0.648   3.528   6.320 -0.9193 -0.8335  0.4243
  692SOL    HW2 2761   0.793   3.506   6.356 -0.2786  0.0160 -1.5107
  693SOL     OW 2762   6.077   5.735   3.983 -0.1057  0.2864  0.1101
  693SOL    HW1 2763   6.041   5.647   3.993 -2.0554  0.7773 -1.8025
  693SOL    HW2 2764   6.061   5.777   4.068  0.5877 -1.0636  0.9492
  694SOL     OW 2765   1.744   3.543   1.162  0.8575 -0.1212  0.1429
  694SOL    HW1 2766   1.737   3.570   1.071 -1.2351 -0.1102  0.2572
  694SOL    HW2 2767   1.687   3.604   1.209  1.6389 -0.3399  1.4254
  695SOL     OW 2768   5.037   5.168   1.730 -0.3398  0.3634 -0.0184
  695SOL    HW1 2769   5.100   5.227   1.771 -1.3975  1.7887 -0.3459
  695SOL    HW2 2770   4.999   5.219   1.659  0.0110 -1.3814 -1.5125
  696SOL     OW 2771   5.272   3.554   1.345 -0.9748  0.1397  0.1141
  696SOL    HW1 2772   5.344   3.608   1.378 -1.8249  1.2516  0.2322
  696SOL    HW2 2773   5.302   3.521   1.261 -0.8695  1.7837 -0.5153
  697SOL     OW 2774   4.638   5.646   2.717  0.5179  0.8072 -0.4408
  697SOL    HW1 2775   4.566   5.665   2.657  0.9417  1.6224 -0.7037
  697SOL    HW2 2776   4.611   5.684   2.800  0.5661  0.9677 -0.4973
  698SOL     OW 2777   4.523   3.878   4.311 -0.3132 -0.3278 -0.5213
  698SOL    HW1 2778   4.540   3.784   4.317  0.2921 -0.2128 -0.2974
  698SOL    HW2 2779   4.596   3.912   4.259  1.2385  0.4477  1.9887
  699SOL     OW 2780   4.877   5.954   2.383  0.2299 -0.2214  0.1371
  699SOL    HW1 2781   4.796   5.999   2.362 -0.0545  0.4711  2.4015
  699SOL    HW2 2782   4.944   5.997   2.329 -0.7653 -0.3105 -1.1994
  700SOL     OW 2783   2.760   5.349   1.918  0.1736 -0.2301 -0.2402
  700SOL    HW1 2784   2.806   5.273   1.953  1.8302 -0.0061 -1.8081
  700SOL    HW2 2785   2.783   5.421   1.977  2.1355 -0.0638 -1.1457
  701SOL     OW 2786   5.356   0.553   1.668 -0.5032  0.3244  0.4656
  701SOL    HW1 2787   5.358   0.468   1.712 -0.5399  0.6516  1.1195
  701SOL    HW2 2788   5.307   0.537   1.587 -0.7073 -0.2281  0.6911
  702SOL     OW 2789   0.153   1.933   2.601  0.2948 -0.0551 -0.1226
  702SOL    HW1 2790   0.076   1.978   2.637 -1.0493 -2.2206 -0.1005
  702SOL    HW2 2791   0.177   1.985   2.524  0.1447  1.8361  1.0430
  703SOL     OW 2792   0.992   5.007   5.927  0.3591 -0.0654 -0.1439
  703SOL    HW1 2793   1.086   4.992   5.937  1.7356  5.1515 -2.1530
  703SOL    HW2 2794   0.976   4.997   5.833 -1.5087 -1.9409  0.2804
  704SOL     OW 2795   5.424   4.066   2.183  0.8138 -0.2606 -0.8361
  704SOL    HW1 2796   5.471   4.020   2.253  0.0531  0.7155  0.3538
  704SOL    HW2 2797   5.334   4.071   2.214  0.0872 -1.1925 -2.6280
  705SOL     OW 2798   1.352   1.239   3.511 -0.3982  0.4308 -0.0018
  705SOL    HW1 2799   1.364   1.170   3.575  0.6796 -0.9206 -1.5604
  705SOL    HW2 2800   1.428   1.296   3.522 -0.2293  0.2148 -0.0506
  706SOL     OW 2801   5.298   5.774   1.981 -0.0993 -0.9231 -0.4113
  706SOL    HW1 2802   5.260   5.761   2.068 -0.3324  0.8138 -0.2157
  706SOL    HW2 2803   5.222   5.788   1.924  0.0968 -0.9207 -0.6720
  707SOL     OW 2804   0.044   4.883   0.428  0.3189  0.7395 -0.2666
  707SOL    HW1 2805   0.060   4.822   0.356  4.2599  0.5172  0.5887
  707SOL    HW2 2806   0.104   4.955   0.412  1.0572  0.8396  2.5534
  708SOL     OW 2807   5.496   5.304   5.085  0.6292  0.6391  0.0814
  708SOL    HW1 2808   5.455   5.390   5.096  0.8836  0.7890 -0.1398
  708SOL    HW2 2809   5.471   5.256   5.163  0.8015  1.0410  0.3884
  709SOL     OW 2810   1.268   1.177   1.560 -0.5668  0.2505  0.2712
  709SOL    HW1 2811   1.235   1.172   1.471 -0.0142  0.8142  0.0292
  709SOL    HW2 2812   1.302   1.267   1.568  0.4726 -0.1599  0.6560
  710SOL     OW 2813   2.218   4.023   1.420  0.0628 -0.1677  0.1235
  710SOL    HW1 2814   2.139   4.022   1.367  0.2057 -0.3887 -0.0845
  710SOL    HW2 2815   2.281   3.971   1.371 -0.0057 -0.9183  0.8168
  711SOL     OW 2816   0.437   5.519   5.955  0.1733  0.3248 -0.2993
  711SOL    HW1 2817   0.344   5.540   5.963  0.3242  1.1739 -0.6320
  711SOL    HW2 2818   0.444   5.478   5.868 -0.0262 -0.6020  0.1061
  712SOL     OW 2819   6.031   3.954   0.916  0.6143  0.0470  0.0711
  712SOL    HW1 2820   6.000   4.037   0.880  1.8944  0.5347  0.0330
  712SOL    HW2 2821   6.009   3.959   1.009 -0.7666 -0.2952 -0.2083
  713SOL     OW 2822   0.041   5.552   1.561  0.3684 -0.3536 -0.3235
  713SOL    HW1 2823   0.136   5.551   1.569  0.3171 -1.5169  0.3076
  713SOL    HW2 2824   0.013   5.464   1.587 -0.8602 -0.1249 -0.7844
  714SOL     OW 2825   5.633   2.403   1.691 -0.0765 -0.4064 -0.0107
  714SOL    HW1 2826   5.562   2.390   1.753  0.1940  0.0987  0.4061
  714SOL    HW2 2827   5.598   2.465   1.627 -0.6674 -1.5936 -0.8805
  715SOL     OW 2828   2.838   1.142   4.066  0.3613  0.2790  0.3096
  715SOL    HW1 2829   2.851   1.101   4.152  0.2135  0.5290  0.4524
  715SOL    HW2 2830   2.746   1.170   4.067  0.4412  0.5415  0.1777
  716SOL     OW 2831   5.144   3.040   3.690  0.4905 -0.3780 -0.0158
  716SOL    HW1 2832   5.077   3.085   3.637  0.2083 -0.7545  0.0208
  716SOL    HW2 2833   5.099   3.016   3.770  1.2379  1.3059  0.9719
  717SOL     OW 2834   1.249   5.910   2.052  0.0455 -0.1342  0.1184
  717SOL    HW1 2835   1.204   5.986   2.089  0.0396 -0.2422  0.3324
  717SOL    HW2 2836   1.272   5.856   2.127 -0.0521 -0.4028 -0.0405
  718SOL     OW 2837   4.944   2.474   2.622 -0.0645 -0.3006 -0.2228
  718SOL    HW1 2838   4.883   2.513   2.685  0.2677 -1.3122  0.7568
  718SOL    HW2 2839   5.031   2.493   2.658  0.1729  0.1079 -0.9889
  719SOL     OW 2840   0.182   6.038   4.758  0.0211  0.0205 -0.7280
  719SOL    HW1 2841   0.272   6.047   4.790 -0.2148 -0.6667  0.1926
  719SOL    HW2 2842   0.171   5.944   4.746 -1.4847 -0.2464  2.0523
  720SOL     OW 2843   0.794   0.423   5.857 -0.3284 -0.1707  0.1283
  720SOL    HW1 2844   0.792   0.358   5.927 -2.1635 -1.3116 -0.9001
  720SOL    HW2 2845   0.728   0.392   5.794  1.3231  0.7287 -2.1648
  721SOL     OW 2846   1.767   2.642   3.690 -0.5141 -0.1683 -0.3322
  721SOL    HW1 2847   1.747   2.581   3.619  0.1682 -1.2860  0.4076
  721SOL    HW2 2848   1.804   2.718   3.646  0.9201 -1.2677 -1.1478
  722SOL     OW 2849   3.902   0.684   6.437  0.6059  0.6198  0.2624
  722SOL    HW1 2850   3.882   0.703   6.345 -1.8274  1.4186  0.8747
  722SOL    HW2 2851   3.921   0.590   6.439  2.2176  0.8690 -1.2509
  723SOL     OW 2852   0.557   4.839   0.561  0.3098 -0.5227  0.7980
  723SOL    HW1 2853   0.651   4.856   0.552  0.4784 -1.7697  0.0576
  723SOL    HW2 2854   0.517   4.927   0.566  1.4756  0.0199  0.8676
  724SOL     OW 2855   5.648   4.938   2.266  0.2111 -0.5252 -0.2674
  724SOL    HW1 2856   5.630   4.864   2.209 -1.5389 -0.7072  0.4615
  724SOL    HW2 2857   5.646   4.901   2.355 -1.3226  0.4504  0.1523
  725SOL     OW 2858   1.726   3.806   4.746 -0.0357  0.1057 -0.0434
  725SOL    HW1 2859   1.698   3.806   4.838 -1.1605  0.5030 -0.3679
  725SOL    HW2 2860   1.697   3.891   4.712  1.1019  0.3026 -0.5672
  726SOL     OW 2861   1.994   4.439   3.503  0.1381 -0.1639 -0.2061
  726SOL    HW1 2862   1.998   4.344   3.513  1.6230 -0.1365 -0.2230
  726SOL    HW2 2863   1.914   4.455   3.454 -1.3398 -1.2059  1.7372
  727SOL     OW 2864   6.847   2.879   3.081  0.4513 -0.4263  0.0382
  727SOL    HW1 2865   6.755   2.872   3.056  0.5268  1.5037 -0.9658
  727SOL    HW2 2866   6.846   2.915   3.169  0.2605 -1.1670  0.3493
  728SOL     OW 2867   5.947   3.575   0.451 -0.5133  0.1778 -0.3760
  728SOL    HW1 2868   5.974   3.503   0.508 -0.5458 -0.0732 -0.6780
  728SOL    HW2 2869   6.014   3.579   0.383  0.3074  1.4065  0.4621
  729SOL     OW 2870   3.779   0.129   0.901 -0.2012 -0.7479  0.3280
  729SOL    HW1 2871   3.835   0.118   0.978 -0.6619 -3.1118  0.4001
  729SOL    HW2 2872   3.749   0.220   0.907  1.9819  0.0019  1.3666
  730SOL     OW 2873   2.130   6.426   3.214  0.3102 -0.5972 -0.1883
  730SOL    HW1 2874   2.078   6.385   3.284 -0.7466  2.9688  1.3760
  730SOL    HW2 2875   2.220   6.421   3.245 -0.0569  0.1854  1.0750
  731SOL     OW 2876   0.781   1.597   4.173  0.1969 -0.2653  0.3987
  731SOL    HW1 2877   0.690   1.602   4.141  0.2830 -1.0881  0.0083
  731SOL    HW2 2878   0.783   1.518   4.227  0.6357 -0.1299  0.5806
  732SOL     OW 2879   2.989   3.801   6.876  0.4545  0.6934  0.1721
  732SOL    HW1 2880   3.024   3.796   6.787 -0.5169 -2.7638 -0.1695
  732SOL    HW2 2881   3.062   3.835   6.929  1.2992  2.0611 -1.7547
  733SOL     OW 2882   1.943   1.664   2.774  0.1478  0.4810 -0.2179
  733SOL    HW1 2883   1.965   1.757   2.771  1.5152  0.1841 -0.0754
  733SOL    HW2 2884   1.853   1.659   2.742  0.7780  1.6256 -2.3399
  734SOL     OW 2885   4.566   4.745   0.961 -0.3250 -0.7430  0.1723
  734SOL    HW1 2886   4.548   4.776   0.872  2.4781  2.4504  0.5163
  734SOL    HW2 2887   4.646   4.693   0.952  0.1410 -0.1549  0.8436
  735SOL     OW 2888   6.085   6.117   6.886 -0.1026 -0.1911  0.0899
  735SOL    HW1 2889   6.151   6.186   6.888 -0.0845 -0.2072  0.0415
  735SOL    HW2 2890   6.010   6.154   6.933  0.0496 -0.2863  0.4050
  736SOL     OW 2891   4.084   4.702   4.392  0.0135 -0.1453 -0.5284
  736SOL    HW1 2892   4.164   4.755   4.395 -0.3949  0.4866 -0.7936
  736SOL    HW2 2893   4.037   4.725   4.472  0.4980 -1.1748  0.0789
  737SOL     OW 2894   0.886   4.929   2.645 -0.2903  0.1139  0.1161
  737SOL    HW1 2895   0.814   4.919   2.707  0.6251 -0.2033  1.1606
  737SOL    HW2 2896   0.904   4.840   2.614  1.1737 -0.1920  1.6737
  738SOL     OW 2897   1.329   0.396   1.899 -0.5671 -0.2378  0.1563
  738SOL    HW1 2898   1.252   0.418   1.847  0.2511 -1.4700 -1.6615
  738SOL    HW2 2899   1.296   0.336   1.965 -1.2141 -0.5758 -0.4616
  739SOL     OW 2900   2.396   0.622   4.822 -0.4385  0.5060  0.3952
  739SOL    HW1 2901   2.449   0.643   4.745  0.7482  1.8190  1.5137
  739SOL    HW2 2902   2.306   0.641   4.795 -0.1233  0.2973 -0.8636
  740SOL     OW 2903   5.552   4.736   1.558  0.4079  0.0166 -0.2451
  740SOL    HW1 2904   5.465   4.739   1.598  0.3708  1.5848 -0.3692
  740SOL    HW2 2905   5.552   4.655   1.507 -0.2912 -0.9438  1.2349
  741SOL     OW 2906   6.098   6.848   3.252 -0.2932 -0.1157  0.8098
  741SOL    HW1 2907   6.171   6.862   3.313  0.1619 -1.7360  0.6937
  741SOL    HW2 2908   6.136   6.792   3.183 -1.3954 -0.1700  0.2322
  742SOL     OW 2909   1.113   3.399   0.403  0.0602 -0.3355 -0.0337
  742SOL    HW1 2910   1.134   3.386   0.496 -0.5758 -3.0746 -0.1600
  742SOL    HW2 2911   1.198   3.416   0.362  0.5344 -0.3248  0.9028
  743SOL     OW 2912   3.834   0.041   3.386  0.2056  0.5267  0.4888
  743SOL    HW1 2913   3.881   0.015   3.307 -0.9760  0.9024 -0.3560
  743SOL    HW2 2914   3.888   0.111   3.423  0.8175  0.2869  0.0793
  744SOL     OW 2915   3.546   0.836   5.507 -0.4291  0.4192 -0.2247
  744SOL    HW1 2916   3.482   0.908   5.501 -1.3175 -0.3521 -0.3057
  744SOL    HW2 2917   3.607   0.853   5.436 -0.7315  1.0025 -0.3555
  745SOL     OW 2918   2.150   1.477   5.261  0.0946 -0.0585 -0.5074
  745SOL    HW1 2919   2.166   1.571   5.266  0.3492 -0.1709  1.7306
  745SOL    HW2 2920   2.055   1.470   5.248  0.1377  0.5032 -1.1643
  746SOL     OW 2921   0.982   3.198   4.049 -0.5262 -0.6691 -0.5306
  746SOL    HW1 2922   1.041   3.229   4.117  0.2479 -0.7679 -1.1379
  746SOL    HW2 2923   0.903   3.172   4.095 -0.4029  0.2516  0.2042
  747SOL     OW 2924   2.272   5.145   5.210  0.5557  0.1639 -0.4900
  747SOL    HW1 2925   2.290   5.051   5.220 -0.3294  0.0268 -0.0193
  747SOL    HW2 2926   2.177   5.153   5.225  1.0045  1.4649  2.2446
  748SOL     OW 2927   4.798   0.005   1.303 -0.0680 -0.3793 -0.3478
  748SOL    HW1 2928   4.779   0.071   1.369  3.2449 -0.2296  0.6147
  748SOL    HW2 2929   4.785   0.051   1.219 -1.8000  0.1837  0.1752
  749SOL     OW 2930   0.638   3.410   1.958  0.3799  0.1066 -0.0695
  749SOL    HW1 2931   0.729   3.391   1.936 -0.3352 -0.5740 -2.8112
  749SOL    HW2 2932   0.594   3.325   1.952 -0.5552  0.5190  0.6302
  750SOL     OW 2933   3.398   1.764   5.043  0.1561 -0.5288  0.1227
  750SOL    HW1 2934   3.354   1.720   5.116 -0.1021  2.2888  1.8189
  750SOL    HW2 2935   3.333   1.763   4.972 -0.4266 -1.4173  0.6427
  751SOL     OW 2936   5.211   0.093   3.665 -0.0270  0.4422 -0.1823
  751SOL    HW1 2937   5.205   0.110   3.571 -1.0981 -1.5828 -0.5256
  751SOL    HW2 2938   5.129   0.125   3.701 -0.0926  0.1996 -0.1143
  752SOL     OW 2939   5.417   4.303   0.331 -0.5089 -0.3781 -0.4162
  752SOL    HW1 2940   5.427   4.264   0.244 -0.9344 -1.2032 -0.1005
  752SOL    HW2 2941   5.435   4.231   0.392  1.0810  0.4958  0.2145
  753SOL     OW 2942   4.990   4.696   4.601 -0.1376 -0.8824 -0.9507
  753SOL    HW1 2943   4.925   4.738   4.658  1.7351  0.2090  0.4570
  753SOL    HW2 2944   5.023   4.622   4.652  2.8746  1.1583  0.2991
  754SOL     OW 2945   5.263   3.656   2.728 -0.2704 -0.5460 -0.0875
  754SOL    HW1 2946   5.246   3.594   2.657  0.9103 -0.0902 -0.8022
  754SOL    HW2 2947   5.261   3.742   2.686 -0.7028 -0.1764  0.6629
  755SOL     OW 2948   2.272   4.420   4.950  0.3730 -0.3743 -0.0657
  755SOL    HW1 2949   2.322   4.388   4.876  1.5229  0.6752  0.2349
  755SOL    HW2 2950   2.218   4.490   4.915  0.9032  0.1096  0.0782
  756SOL     OW 2951   5.766   5.098   5.318 -0.4911 -0.0880 -0.1329
  756SOL    HW1 2952   5.691   5.049   5.283  0.1640  0.1771 -2.0122
  756SOL    HW2 2953   5.728   5.151   5.388 -1.5431 -1.9006  0.7501
  757SOL     OW 2954   2.039   5.020   2.401 -0.2848  0.1012  0.7558
  757SOL    HW1 2955   2.120   5.068   2.384 -0.3367  0.2859  1.0190
  757SOL    HW2 2956   1.972   5.071   2.356 -0.0298 -0.9828 -0.9298
  758SOL     OW 2957   3.437   0.667   0.142 -0.1643 -0.0285  0.2796
  758SOL    HW1 2958   3.346   0.642   0.123  0.1382 -0.8150 -0.1926
  758SOL    HW2 2959   3.443   0.663   0.237 -0.3877 -0.9022  0.2750
  759SOL     OW 2960   4.305   6.489   6.257  0.2911  0.0912  0.1994
  759SOL    HW1 2961   4.290   6.395   6.254  0.7267 -0.0255  1.1135
  759SOL    HW2 2962   4.361   6.507   6.181  2.4979 -0.8684  1.4855
  760SOL     OW 2963   5.607   6.154   0.632 -0.0856  0.1985  0.0395
  760SOL    HW1 2964   5.542   6.141   0.564  2.0103 -1.1024 -1.8288
  760SOL    HW2 2965   5.659   6.228   0.602  1.2943 -0.8255 -0.1823
  761SOL     OW 2966   2.885   5.314   5.402  0.0521 -0.0538  0.0003
  761SOL    HW1 2967   2.850   5.365   5.475 -1.3114 -1.1854  0.1743
  761SOL    HW2 2968   2.888   5.224   5.434  0.4945 -0.4060 -0.9782
  762SOL     OW 2969   6.773   4.676   2.027 -0.0427 -0.5480 -0.9564
  762SOL    HW1 2970   6.681   4.687   2.054  0.2790  0.8589 -0.3556
  762SOL    HW2 2971   6.787   4.581   2.033 -0.4615 -0.5414  2.4776
  763SOL     OW 2972   6.067   2.255   2.091  0.6438  0.3862 -0.0247
  763SOL    HW1 2973   6.000   2.299   2.144  1.7385  1.1919  0.7345
  763SOL    HW2 2974   6.088   2.175   2.139  0.4582  0.2856 -0.1084
  764SOL     OW 2975   2.829   4.852   3.508 -0.3675  0.5761  0.5059
  764SOL    HW1 2976   2.903   4.803   3.544 -0.4963  0.7204  0.9716
  764SOL    HW2 2977   2.827   4.827   3.415  0.4634  0.8134  0.4122
  765SOL     OW 2978   3.271   2.310   5.334  0.0804  0.2272  0.5916
  765SOL    HW1 2979   3.190   2.301   5.384  0.3862 -2.0290  0.7741
  765SOL    HW2 2980   3.242   2.324   5.244 -0.4676  3.4305  1.1416
  766SOL     OW 2981   2.055   0.031   6.841 -0.4918 -0.1087  0.1378
  766SOL    HW1 2982   1.982  -0.012   6.886  1.0990 -1.7444  1.3436
  766SOL    HW2 2983   2.035   0.022   6.748 -1.1517 -1.8615  0.4056
  767SOL     OW 2984   4.105   3.496   4.778 -0.0959  0.3524 -0.5702
  767SOL    HW1 2985   4.066   3.562   4.721 -0.3656 -0.5018 -1.3959
  767SOL    HW2 2986   4.169   3.544   4.830 -2.5001  1.9100  1.1727
  768SOL     OW 2987   6.859   3.966   2.721  0.2397 -0.4503  0.0790
  768SOL    HW1 2988   6.834   3.998   2.634  0.4218 -2.1123 -0.6385
  768SOL    HW2 2989   6.877   3.873   2.707 -1.7505 -1.2650  2.2863
  769SOL     OW 2990   3.736   4.235   2.343  0.2304 -0.0652 -0.0449
  769SOL    HW1 2991   3.767   4.304   2.401  1.0618 -0.6720  0.2649
  769SOL    HW2 2992   3.816   4.188   2.317 -0.2922 -0.7994 -0.3830
  770SOL     OW 2993   1.510   2.895   6.703  0.3655 -0.2004 -0.0787
  770SOL    HW1 2994   1.547   2.878   6.790 -0.0164 -0.5163  0.0238
  770SOL    HW2 2995   1.485   2.988   6.706  0.3217 -0.2187  0.1586
  771SOL     OW 2996   0.349   2.320   0.311 -0.0587 -0.6224 -0.0492
  771SOL    HW1 2997   0.261   2.356   0.306  0.1451  0.1891  1.4785
  771SOL    HW2 2998   0.399   2.368   0.245 -0.2243  0.6329  0.7117
  772SOL     OW 2999   5.847   1.330   3.292  0.2327 -0.4118 -0.0155
  772SOL    HW1 3000   5.866   1.348   3.200  2.6703  0.5550  0.6010
  772SOL    HW2 3001   5.753   1.347   3.300 -0.4537 -2.2273 -2.6495
  773SOL     OW 3002   4.234   2.327   5.709 -0.7895  0.0491 -0.5528
  773SOL    HW1 3003   4.248   2.249   5.656  2.9489 -0.2353  0.5064
  773SOL    HW2 3004   4.236   2.400   5.646  2.8223 -0.3241 -1.0766
  774SOL     OW 3005   1.049   2.647   2.545 -0.2172  0.5501  0.2129
  774SOL    HW1 3006   0.973   2.616   2.595 -0.6420 -0.8914 -1.2625
  774SOL    HW2 3007   1.094   2.567   2.519  1.2136  1.3586  0.1337
  775SOL     OW 3008   2.118   0.160   1.764  0.2983  0.7752 -0.1311
  775SOL    HW1 3009   2.091   0.123   1.680  0.9745  0.8925 -0.4035
  775SOL    HW2 3010   2.187   0.222   1.742 -0.3662  1.7254  0.3848
  776SOL     OW 3011   5.434   4.338   4.500  0.1972  0.1412 -0.6025
  776SOL    HW1 3012   5.371   4.392   4.451 -1.9685 -0.8675  0.8784
  776SOL    HW2 3013   5.393   4.251   4.501 -0.4990  0.3112  3.8176
  777SOL     OW 3014   3.254   4.529   1.299 -0.7850  0.5458 -0.1138
  777SOL    HW1 3015   3.321   4.504   1.362 -1.1509 -0.8840 -0.2425
  777SOL    HW2 3016   3.172   4.525   1.349 -0.9057  1.0212 -0.2709
  778SOL     OW 3017   2.000   4.157   4.134  0.6089  0.5255  0.1818
  778SOL    HW1 3018   2.040   4.071   4.121  2.3842  1.2495  0.6480
  778SOL    HW2 3019   2.042   4.213   4.069  1.2314  1.5648  1.4253
  779SOL     OW 3020   2.261   4.695   5.991  0.1378  0.0292  0.7970
  779SOL    HW1 3021   2.301   4.698   6.078  0.2837  2.4763  0.6999
  779SOL    HW2 3022   2.167   4.707   6.008  0.3928  2.8648  0.5410
  780SOL     OW 3023   5.653   0.339   3.173  0.3010 -0.5262  0.4107
  780SOL    HW1 3024   5.667   0.249   3.202  0.8810 -0.5357  0.1100
  780SOL    HW2 3025   5.594   0.331   3.098 -0.8312 -0.5347  1.2641
  781SOL     OW 3026   6.662   1.471   1.491 -0.4642  0.0775 -0.2836
  781SOL    HW1 3027   6.739   1.454   1.436 -0.5747  0.2391 -0.4879
  781SOL    HW2 3028   6.616   1.387   1.493 -0.0218 -0.1610  0.2540
  782SOL     OW 3029   6.267   2.840   4.213  0.0381  0.0599 -0.4173
  782SOL    HW1 3030   6.187   2.880   4.245  0.5817  1.0475 -0.2451
  782SOL    HW2 3031   6.255   2.833   4.119 -0.0412  0.7059 -0.4590
  783SOL     OW 3032   6.447   1.441   0.448 -0.1998 -0.3717 -0.2940
  783SOL    HW1 3033   6.375   1.485   0.403 -0.2960  0.1917  0.3987
  783SOL    HW2 3034   6.514   1.508   0.458 -0.0509 -0.5758  0.1216
  784SOL     OW 3035   1.817   4.819   4.175 -0.0559  0.3409 -0.0498
  784SOL    HW1 3036   1.790   4.898   4.128  0.5854  0.4302 -0.2760
  784SOL    HW2 3037   1.800   4.748   4.114 -0.5307  0.3076  0.1130
  785SOL     OW 3038   5.128   4.398   0.247  0.2819  0.1818 -0.2361
  785SOL    HW1 3039   5.217   4.368   0.269  0.0869  0.4656  1.0372
  785SOL    HW2 3040   5.104   4.456   0.319 -0.2775  1.5262 -1.4513
  786SOL     OW 3041   1.354   4.443   2.280 -0.4574  0.1652 -0.4671
  786SOL    HW1 3042   1.443   4.455   2.247 -0.3749  1.3508  0.1240
  786SOL    HW2 3043   1.366   4.417   2.371 -0.7073  0.0848 -0.4573
  787SOL     OW 3044   6.251   3.536   6.748  0.3876 -0.1200 -0.2114
  787SOL    HW1 3045   6.203   3.610   6.710  0.4138 -0.8691 -1.7720
  787SOL    HW2 3046   6.268   3.478   6.674 -0.2034 -2.0261  1.1011
  788SOL     OW 3047   6.813   5.160   5.250 -0.0440 -0.2384  0.1262
  788SOL    HW1 3048   6.811   5.255   5.238 -0.6444 -0.3837 -0.9751
  788SOL    HW2 3049   6.748   5.144   5.318  0.3545  0.1658  0.6203
  789SOL     OW 3050   2.798   3.782   0.369  0.2161  0.5181 -0.3156
  789SOL    HW1 3051   2.774   3.837   0.443 -1.0768 -0.1524 -0.1880
  789SOL    HW2 3052   2.788   3.692   0.402 -0.3070  0.2124 -1.2552
  790SOL     OW 3053   0.350   0.184   0.038  0.3362 -0.4860 -0.5475
  790SOL    HW1 3054   0.436   0.179   0.079  0.3047  0.3997 -0.3678
  790SOL    HW2 3055   0.351   0.113  -0.026  0.9304 -0.9395 -0.0525
  791SOL     OW 3056   1.824   4.293   0.407 -0.3183  0.1116  0.3736
  791SOL    HW1 3057   1.908   4.263   0.373 -0.5324 -0.7976  0.6166
  791SOL    HW2 3058   1.769   4.304   0.329 -0.2189 -0.0867  0.2751
  792SOL     OW 3059   3.995   3.593   2.792 -0.4461  0.3446 -0.0231
  792SOL    HW1 3060   3.925   3.626   2.849 -1.4354 -1.8935  0.1955
  792SOL    HW2 3061   4.074   3.596   2.846 -1.0058  0.0522  0.8329
  793SOL     OW 3062   3.048   4.606   6.607 -0.3891  0.2169 -0.0831
  793SOL    HW1 3063   2.987   4.582   6.537 -0.3726  0.8333 -0.3149
  793SOL    HW2 3064   3.019   4.556   6.683 -1.2851  0.6289 -0.1441
  794SOL     OW 3065   6.635   5.278   0.990  0.3126 -0.3149  0.2497
  794SOL    HW1 3066   6.628   5.183   0.989  2.2394 -0.5174  1.0912
  794SOL    HW2 3067   6.725   5.295   1.019 -0.3421  1.7796  1.2539
  795SOL     OW 3068   0.709   3.887   6.539 -0.1770 -0.0418 -0.1008
  795SOL    HW1 3069   0.775   3.849   6.596  0.3704 -1.4645 -1.5844
  795SOL    HW2 3070   0.630   3.835   6.556 -0.3346  0.2858  0.1754
  796SOL     OW 3071   0.372   2.572   1.159 -0.7774  0.4975 -0.4454
  796SOL    HW1 3072   0.460   2.593   1.130  0.4008 -1.2083  1.6582
  796SOL    HW2 3073   0.331   2.530   1.083  0.7782 -0.1883 -0.9326
  797SOL     OW 3074   3.589   4.761   2.778 -0.9197 -0.3323 -0.3536
  797SOL    HW1 3075   3.553   4.820   2.845  1.2601 -0.3465  0.8918
  797SOL    HW2 3076   3.592   4.815   2.699  0.6093  1.1553  0.6495
  798SOL     OW 3077   4.681   6.110   1.258 -0.3825  0.6254 -0.4247
  798SOL    HW1 3078   4.655   6.147   1.174 -1.0060 -2.1271 -1.5519
  798SOL    HW2 3079   4.735   6.034   1.235  0.3464  0.4313  1.6953
  799SOL     OW 3080   3.462   0.627   6.142 -0.3155 -0.2436 -0.0313
  799SOL    HW1 3081   3.500   0.619   6.230 -0.3679 -0.2083 -0.0058
  799SOL    HW2 3082   3.511   0.563   6.089 -0.4728 -0.4631  0.0853
  800SOL     OW 3083   3.519   4.716   1.763 -0.4265 -0.0281  0.1677
  800SOL    HW1 3084   3.463   4.689   1.691 -1.8077  0.0317  1.1572
  800SOL    HW2 3085   3.572   4.787   1.727 -1.2018  0.1110 -0.7416
  801SOL     OW 3086   5.712   4.815   5.073  0.2312 -0.2345 -0.1460
  801SOL    HW1 3087   5.792   4.780   5.111  0.2865 -1.0262 -0.9449
  801SOL    HW2 3088   5.655   4.831   5.147  0.3910 -1.5805  0.3003
  802SOL     OW 3089   1.239   3.081   5.754  0.2428  0.1396 -0.0252
  802SOL    HW1 3090   1.251   3.140   5.829  0.3275  1.3726 -0.9609
  802SOL    HW2 3091   1.146   3.087   5.733 -0.0892 -1.4248  0.9264
  803SOL     OW 3092   2.975   5.468   1.702  0.0150  0.1844 -0.0858
  803SOL    HW1 3093   2.997   5.561   1.701 -1.3578  0.5483  0.7504
  803SOL    HW2 3094   2.970   5.446   1.795 -1.5137 -0.2517 -0.2551
  804SOL     OW 3095   2.056   6.368   1.821  0.4965 -0.9416 -0.2581
  804SOL    HW1 3096   2.021   6.294   1.871 -0.3898  0.5992  1.5586
  804SOL    HW2 3097   2.062   6.439   1.886  3.9749 -0.1618 -1.2339
  805SOL     OW 3098   0.422   4.797   6.161  0.3212 -0.0199 -0.0300
  805SOL    HW1 3099   0.368   4.795   6.081  1.8252  2.7657 -1.2508
  805SOL    HW2 3100   0.457   4.709   6.168 -0.3387 -0.5155 -2.1215
  806SOL     OW 3101   6.844   0.775   6.424  0.4012 -0.7018  0.4259
  806SOL    HW1 3102   6.770   0.833   6.441  1.3059  0.6169  0.0056
  806SOL    HW2 3103   6.812   0.713   6.359 -0.2683 -0.0221  0.0978
  807SOL     OW 3104   5.149   1.073   1.487  0.4378 -0.1005  0.0928
  807SOL    HW1 3105   5.114   1.160   1.507  0.4550 -0.3507  1.2408
  807SOL    HW2 3106   5.094   1.042   1.415 -0.7763  0.1041  0.9087
  808SOL     OW 3107   5.209   0.388   3.808 -0.0335  0.6754 -0.2473
  808SOL    HW1 3108   5.256   0.471   3.799 -0.5268  0.7986 -2.1326
  808SOL    HW2 3109   5.117   0.412   3.800 -0.2911  0.1338  0.9244
  809SOL     OW 3110   1.600   5.605   5.262  0.5643 -0.9232  0.3910
  809SOL    HW1 3111   1.690   5.618   5.291  0.9629 -0.8542 -0.8320
  809SOL    HW2 3112   1.595   5.511   5.241  0.2445 -0.9980  0.7884
  810SOL     OW 3113   6.340   1.400   5.844  0.0178 -0.0471  0.2583
  810SOL    HW1 3114   6.291   1.481   5.855  0.7223  0.4466 -0.1135
  810SOL    HW2 3115   6.368   1.402   5.752  1.9289  0.4114  0.7996
  811SOL     OW 3116   2.322   3.896   0.653 -0.0205  0.3157 -0.0723
  811SOL    HW1 3117   2.364   3.982   0.653 -0.5739  0.6069  1.0428
  811SOL    HW2 3118   2.371   3.846   0.719  0.4233 -0.2989 -0.8552
  812SOL     OW 3119   6.366   2.386   3.842  0.2974  0.0097 -0.2157
  812SOL    HW1 3120   6.429   2.341   3.786  0.1086  1.1775 -1.4298
  812SOL    HW2 3121   6.386   2.356   3.931  1.7928 -0.5272 -0.7104
  813SOL     OW 3122   6.431   4.204   0.754  0.6884 -0.2150 -0.2103
  813SOL    HW1 3123   6.344   4.238   0.733  0.2862 -0.0115  1.5719
  813SOL    HW2 3124   6.444   4.227   0.846  1.7429 -2.1270  0.1811
  814SOL     OW 3125   3.412   6.470   2.285  0.2848 -0.1069 -0.3019
  814SOL    HW1 3126   3.330   6.509   2.254  0.9247  0.4301 -1.3943
  814SOL    HW2 3127   3.387   6.422   2.364 -1.4054 -1.3698 -1.5131
  815SOL     OW 3128   2.742   1.506   4.363 -0.3102  0.3076 -0.2577
  815SOL    HW1 3129   2.678   1.435   4.368 -0.5932  0.5977  0.3088
  815SOL    HW2 3130   2.803   1.478   4.294  0.8112 -1.4994  1.3545
  816SOL     OW 3131   4.740   0.053   1.863  0.5958  0.6110 -0.0069
  816SOL    HW1 3132   4.648   0.041   1.841  0.8593 -0.1036 -0.7950
  816SOL    HW2 3133   4.756   0.147   1.853 -0.3045  0.9140  1.2334
  817SOL     OW 3134   4.277   5.274   6.392 -0.1416  0.0970 -0.0914
  817SOL    HW1 3135   4.197   5.316   6.423  0.4284  0.9875  0.2272
  817SOL    HW2 3136   4.268   5.273   6.297  0.0852  1.5159 -0.1468
  818SOL     OW 3137   5.057   4.269   4.023  0.0341  0.2503 -0.3988
  818SOL    HW1 3138   5.068   4.304   4.112 -0.9290  0.6425 -0.4192
  818SOL    HW2 3139   5.107   4.328   3.967 -0.9153  1.1517 -0.3338
  819SOL     OW 3140   3.084   2.718   3.968  0.2606  0.0828 -0.3190
  819SOL    HW1 3141   3.149   2.678   4.026  0.0680  0.8639  0.4416
  819SOL    HW2 3142   3.108   2.810   3.963  1.2121 -0.2141 -2.7545
  820SOL     OW 3143   5.297   0.155   0.298 -0.4658  0.3131 -0.1801
  820SOL    HW1 3144   5.297   0.066   0.334  2.8497  0.4424  0.3960
  820SOL    HW2 3145   5.271   0.211   0.372  2.7860  0.2344  1.1607
  821SOL     OW 3146   0.081   2.510   2.072  0.0776 -0.2990  0.0180
  821SOL    HW1 3147   0.075   2.432   2.017  0.6529 -1.1442  1.1118
  821SOL    HW2 3148  -0.009   2.525   2.102 -0.3389  0.4763 -1.5124
  822SOL     OW 3149   0.692   6.499   1.326  0.0637  0.3267  0.3730
  822SOL    HW1 3150   0.727   6.430   1.270  0.7568  0.1029  1.0768
  822SOL    HW2 3151   0.657   6.564   1.265 -0.6133 -0.6366 -0.3046
  823SOL     OW 3152   5.837   6.109   2.879 -0.3473 -0.1422 -0.3224
  823SOL    HW1 3153   5.746   6.080   2.885 -0.1345 -1.6584 -2.8437
  823SOL    HW2 3154   5.887   6.033   2.909  0.1396  0.7729  1.2961
  824SOL     OW 3155   4.076   4.940   6.177 -0.7593  0.4011  0.2497
  824SOL    HW1 3156   4.066   4.847   6.200  0.4933  0.5370  1.4411
  824SOL    HW2 3157   4.070   4.986   6.260 -0.7864  1.3437 -0.2658
  825SOL     OW 3158   3.121   0.430   1.942 -0.5359  0.5990 -0.8417
  825SOL    HW1 3159   3.114   0.337   1.963  0.4651  0.8676  0.8088
  825SOL    HW2 3160   3.040   0.450   1.894 -0.9706 -1.0035 -0.8259
  826SOL     OW 3161   2.928   4.251   6.828  0.4809  0.2418  0.2327
  826SOL    HW1 3162   2.919   4.346   6.813 -0.1436 -0.0683 -1.6961
  826SOL    HW2 3163   2.841   4.223   6.857  0.2522  0.0577 -0.6022
  827SOL     OW 3164   5.132   4.298   6.341  0.0822 -0.0597 -0.2170
  827SOL    HW1 3165   5.099   4.299   6.431  1.9956  0.7388  0.5350
  827SOL    HW2 3166   5.227   4.290   6.351  0.5311  2.1332 -2.0918
  828SOL     OW 3167   5.964   6.410   1.755  0.4803 -0.3423 -0.0873
  828SOL    HW1 3168   6.034   6.452   1.706 -0.0625 -0.9054 -1.3974
  828SOL    HW2 3169   5.959   6.321   1.720 -1.6828  0.0372 -0.9448
  829SOL     OW 3170   3.839   5.201   4.855  0.1984  0.8108 -0.7492
  829SOL    HW1 3171   3.746   5.212   4.874  0.3842  1.9686 -0.4387
  829SOL    HW2 3172   3.878   5.175   4.938 -0.1459 -1.9510 -1.3504
  830SOL     OW 3173   5.792   1.052   1.169  0.4148  0.1374  0.3931
  830SOL    HW1 3174   5.736   1.005   1.230  0.2289 -0.9756 -0.5973
  830SOL    HW2 3175   5.741   1.129   1.144 -0.3354 -0.4327  0.1332
  831SOL     OW 3176   2.127   3.088   2.092  0.5921  0.2116 -0.5579
  831SOL    HW1 3177   2.178   3.153   2.044  1.7130 -0.6280 -0.5312
  831SOL    HW2 3178   2.051   3.136   2.124  0.7948  1.2220 -1.5544
  832SOL     OW 3179   4.080   4.740   0.807 -0.2985 -0.6685 -0.2914
  832SOL    HW1 3180   4.099   4.744   0.713  1.0508 -2.7932 -0.1898
  832SOL    HW2 3181   4.038   4.655   0.819  1.7483 -1.5583  1.3009
  833SOL     OW 3182   6.776   1.059   0.103  0.4338 -0.3223  0.0679
  833SOL    HW1 3183   6.792   0.986   0.163  1.0435  0.3834  0.7855
  833SOL    HW2 3184   6.798   1.137   0.154  2.8841  0.2265 -1.6689
  834SOL     OW 3185   2.737   3.514   0.434  1.1402 -0.3209  0.2747
  834SOL    HW1 3186   2.761   3.422   0.443 -0.7739 -1.0702 -1.5079
  834SOL    HW2 3187   2.645   3.512   0.407  0.2957  2.1914  2.4719
  835SOL     OW 3188   2.375   0.804   5.469  0.0973 -0.2767 -0.0645
  835SOL    HW1 3189   2.442   0.735   5.473  1.0925  0.4449 -2.3650
  835SOL    HW2 3190   2.388   0.855   5.550  1.8452 -0.6182 -0.0863
  836SOL     OW 3191   2.618   3.755   3.619 -0.3185 -0.2170 -0.1342
  836SOL    HW1 3192   2.641   3.665   3.596 -1.7765 -0.4589 -0.7200
  836SOL    HW2 3193   2.545   3.747   3.681 -0.8865  0.5608 -0.6813
  837SOL     OW 3194   5.606   3.271   0.894 -0.1412 -0.2290  0.2920
  837SOL    HW1 3195   5.649   3.317   0.822  0.5782 -0.7846  0.3523
  837SOL    HW2 3196   5.644   3.310   0.973 -0.0476 -0.4305  0.3492
  838SOL     OW 3197   0.395   0.925   1.657  0.4381 -0.4884  0.5721
  838SOL    HW1 3198   0.328   0.972   1.706  0.4132 -0.0115  0.0924
  838SOL    HW2 3199   0.413   0.981   1.581  0.4946 -1.1887  0.0556
  839SOL     OW 3200   1.730   2.655   3.229  0.5927 -0.0376  0.2189
  839SOL    HW1 3201   1.635   2.651   3.217  0.6760  2.2123 -2.0565
  839SOL    HW2 3202   1.766   2.619   3.147  1.7178 -0.7039  0.9792
  840SOL     OW 3203   1.864   2.840   5.836  0.5218  0.3171 -0.3210
  840SOL    HW1 3204   1.950   2.821   5.874  0.3165  0.9327  0.5045
  840SOL    HW2 3205   1.874   2.927   5.797  0.0234  0.8553  0.6851
  841SOL     OW 3206   4.223   4.001   0.307  0.3405 -0.1404  0.5774
  841SOL    HW1 3207   4.144   3.952   0.282  0.3604  0.5626 -0.9748
  841SOL    HW2 3208   4.279   3.936   0.350 -0.1517 -1.1834 -0.3125
  842SOL     OW 3209   0.173   4.123   0.115 -0.0398 -0.1959 -0.2848
  842SOL    HW1 3210   0.081   4.150   0.123 -0.5753 -1.8305 -0.4856
  842SOL    HW2 3211   0.196   4.093   0.203  0.2219 -0.0240 -0.2959
  843SOL     OW 3212   0.502   3.363   6.589  1.1584  0.0675  0.3961
  843SOL    HW1 3213   0.508   3.421   6.513  1.9238  1.5706  1.5491
  843SOL    HW2 3214   0.417   3.319   6.579  2.0279 -1.2034 -2.2570
  844SOL     OW 3215   3.633   6.685   6.572 -0.3191  0.6344  0.8640
  844SOL    HW1 3216   3.670   6.751   6.514 -1.1756  1.0269  0.7489
  844SOL    HW2 3217   3.686   6.689   6.651  0.5554  0.4321  0.2980
  845SOL     OW 3218   2.135   6.294   1.509  0.5898  0.4747 -0.0008
  845SOL    HW1 3219   2.067   6.228   1.495  0.9830 -0.4184  1.9807
  845SOL    HW2 3220   2.091   6.366   1.554  0.2704  1.4268 -1.7289
  846SOL     OW 3221   1.523   3.892   6.759 -0.0293 -0.1559  0.4579
  846SOL    HW1 3222   1.470   3.886   6.679  1.0622 -0.5901 -0.2669
  846SOL    HW2 3223   1.530   3.802   6.790  2.7119 -0.6483 -1.1669
  847SOL     OW 3224   1.386   5.497   0.509  0.0379  0.1464 -0.2422
  847SOL    HW1 3225   1.358   5.515   0.599  0.9541 -0.8743  0.2702
  847SOL    HW2 3226   1.330   5.425   0.481  0.2328 -0.0065 -0.2374
  848SOL     OW 3227   4.523   6.664   1.995 -0.9401 -0.0254 -0.1622
  848SOL    HW1 3228   4.575   6.706   2.063 -0.9855 -1.1317  0.5817
  848SOL    HW2 3229   4.561   6.576   1.987 -0.6812  0.2051 -1.8465
  849SOL     OW 3230   3.313   5.040   3.109 -0.3314 -0.3165 -0.0579
  849SOL    HW1 3231   3.285   4.968   3.164  0.9563  1.1895  2.7989
  849SOL    HW2 3232   3.232   5.086   3.086 -0.8902 -0.7580  0.9670
  850SOL     OW 3233   0.626   1.763   2.972  0.0436 -0.8624 -0.2638
  850SOL    HW1 3234   0.554   1.811   3.015 -0.6236 -0.1022 -2.1146
  850SOL    HW2 3235   0.589   1.678   2.952 -0.4194 -0.4149 -1.3607
  851SOL     OW 3236   6.886   6.566   0.126 -0.0630 -0.5017  0.2673
  851SOL    HW1 3237   6.897   6.607   0.040  2.5919  0.9624  1.1930
  851SOL    HW2 3238   6.836   6.629   0.177  0.2550 -0.3717  0.4210
  852SOL     OW 3239   0.455   6.416   5.109 -0.2132 -0.0435  0.0538
  852SOL    HW1 3240   0.508   6.366   5.047  0.3665  0.2395  0.3120
  852SOL    HW2 3241   0.451   6.504   5.071 -2.4387 -0.5832 -1.1498
  853SOL     OW 3242   2.189   0.804   2.452 -0.1375  0.1516  0.3547
  853SOL    HW1 3243   2.199   0.844   2.538  0.5980  0.5682  0.0804
  853SOL    HW2 3244   2.097   0.820   2.429 -0.2422  0.3516  0.8962
  854SOL     OW 3245   5.327   2.970   3.139  0.1659 -0.4557  0.4765
  854SOL    HW1 3246   5.405   3.011   3.102 -0.6995  1.6348  0.7884
  854SOL    HW2 3247   5.265   2.967   3.066  0.1929 -1.1907  0.4764
  855SOL     OW 3248   5.994   2.993   6.833 -0.1664 -0.0490  0.7661
  855SOL    HW1 3249   6.017   3.086   6.833 -1.0421  0.1867  0.1357
  855SOL    HW2 3250   5.931   2.984   6.904 -0.5627 -0.0264  0.4210
  856SOL     OW 3251   6.661   5.455   3.715 -0.4651 -0.0276  0.2321
  856SOL    HW1 3252   6.745   5.409   3.707 -0.5895 -0.0595 -1.2540
  856SOL    HW2 3253   6.678   5.523   3.780  1.7690  2.1081 -2.3484
  857SOL     OW 3254   2.028   4.126   2.807  0.3726 -0.2454 -0.1383
  857SOL    HW1 3255   2.116   4.090   2.821  1.2590  1.9106  0.2675
  857SOL    HW2 3256   2.037   4.183   2.730 -0.8462 -0.5424 -0.5142
  858SOL     OW 3257   1.316   4.582   3.954  0.4751  0.1360  0.0929
  858SOL    HW1 3258   1.325   4.631   4.035 -0.2004  0.8799 -0.2730
  858SOL    HW2 3259   1.266   4.639   3.896 -1.0104 -1.2629 -0.0835
  859SOL     OW 3260   2.964   1.385   5.236 -0.1282 -0.4157  0.2069
  859SOL    HW1 3261   2.996   1.300   5.206 -0.8792 -0.5038 -0.3595
  859SOL    HW2 3262   2.939   1.370   5.327  2.2577 -0.1220  1.0040
  860SOL     OW 3263   5.286   5.283   0.607 -0.4880 -0.3864  0.7020
  860SOL    HW1 3264   5.217   5.321   0.553  0.6487 -2.0407 -2.1309
  860SOL    HW2 3265   5.344   5.358   0.627 -0.3098  0.1357 -1.4866
  861SOL     OW 3266   5.821   4.157   0.545  0.0227  0.2312  0.6782
  861SOL    HW1 3267   5.774   4.074   0.542 -0.7892  0.6083  2.0639
  861SOL    HW2 3268   5.813   4.192   0.456  0.4047 -1.1704  0.0763
  862SOL     OW 3269   0.404   4.372   4.458  0.3487 -0.0242 -0.1048
  862SOL    HW1 3270   0.379   4.358   4.549 -2.8318 -1.6120 -1.0584
  862SOL    HW2 3271   0.344   4.441   4.427  2.0158  1.1931 -0.8339
  863SOL     OW 3272   5.168   2.758   1.241 -0.3467  0.3550 -0.1976
  863SOL    HW1 3273   5.137   2.711   1.164  2.7204 -2.3653  0.0456
  863SOL    HW2 3274   5.243   2.809   1.209 -0.5809  1.1818  0.5434
  864SOL     OW 3275   6.724   0.802   3.334 -0.4841 -0.6336 -0.3911
  864SOL    HW1 3276   6.729   0.877   3.393 -0.0081 -0.4669 -0.6319
  864SOL    HW2 3277   6.744   0.838   3.248 -0.5666 -0.9827 -0.5598
  865SOL     OW 3278   0.285   0.056   1.958  0.0803  0.1647 -0.2579
  865SOL    HW1 3279   0.291  -0.001   1.882 -0.3402 -1.0077  0.5599
  865SOL    HW2 3280   0.347   0.019   2.021 -0.8411  0.0744  0.6161
  866SOL     OW 3281   2.755   0.632   5.763  0.1579  0.6323  0.1631
  866SOL    HW1 3282   2.801   0.714   5.745  0.6909  0.2317 -0.3094
  866SOL    HW2 3283   2.662   0.654   5.750  0.3896  0.8084 -1.3974
  867SOL     OW 3284   3.755   3.324   6.098  0.0968  0.4245  0.2462
  867SOL    HW1 3285   3.827   3.265   6.122 -0.7111 -0.8544 -0.3678
  867SOL    HW2 3286   3.798   3.398   6.055  1.3498  1.4737  3.0466
  868SOL     OW 3287   6.064   4.100   3.366  0.0100  0.1094 -0.0038
  868SOL    HW1 3288   6.129   4.137   3.426  2.2254 -0.1539 -2.0761
  868SOL    HW2 3289   6.007   4.173   3.344  0.7221  0.8187  0.4585
  869SOL     OW 3290   0.157   2.171   5.952 -0.3025  0.1297  0.2398
  869SOL    HW1 3291   0.140   2.213   5.868 -0.1516  0.9967  0.6276
  869SOL    HW2 3292   0.104   2.092   5.951 -0.0234 -0.0561 -0.8180
  870SOL     OW 3293   6.213   4.233   3.936  0.1968  0.1513 -0.0752
  870SOL    HW1 3294   6.203   4.213   3.843 -1.2188  0.0244  0.0881
  870SOL    HW2 3295   6.262   4.158   3.970  1.2183  0.4625 -0.8040
  871SOL     OW 3296   2.659   6.228   2.619 -0.1002 -0.3915 -0.1351
  871SOL    HW1 3297   2.598   6.196   2.552 -1.0680 -1.1269  1.0558
  871SOL    HW2 3298   2.607   6.232   2.699  1.4582 -1.2354  0.9742
  872SOL     OW 3299   3.087   1.619   4.298  0.5532 -0.1696 -0.4429
  872SOL    HW1 3300   2.996   1.640   4.275  0.8571 -0.9602 -2.5938
  872SOL    HW2 3301   3.099   1.657   4.385 -1.7394  0.2088 -0.2338
  873SOL     OW 3302   5.575   3.739   3.782  0.5158  0.0565 -0.6870
  873SOL    HW1 3303   5.573   3.826   3.822  2.3799 -0.5133  0.7968
  873SOL    HW2 3304   5.579   3.755   3.688 -2.1734  1.4879 -0.6554
  874SOL     OW 3305   2.912   4.330   4.767 -0.4836 -0.3074 -0.2120
  874SOL    HW1 3306   2.933   4.274   4.693 -0.6618  0.3263 -0.7575
  874SOL    HW2 3307   2.826   4.367   4.744  0.7529  2.2192 -1.1398
  875SOL     OW 3308   4.970   4.472   2.779 -0.5269 -0.3102  0.3324
  875SOL    HW1 3309   5.008   4.390   2.751  1.1968 -0.0218  1.6344
  875SOL    HW2 3310   4.969   4.467   2.875 -1.0261  0.9051  0.4183
  876SOL     OW 3311   3.074   2.619   0.134  0.6054 -0.3778  0.4520
  876SOL    HW1 3312   3.117   2.616   0.049 -0.4199  1.3112 -0.1768
  876SOL    HW2 3313   3.102   2.703   0.172 -0.6465 -0.1004  0.8062
  877SOL     OW 3314   4.331   1.422   5.322  0.0373 -0.2346  0.0495
  877SOL    HW1 3315   4.422   1.450   5.307 -0.1719 -0.3222 -1.4472
  877SOL    HW2 3316   4.326   1.334   5.285 -0.0170 -1.3174  2.4166
  878SOL     OW 3317   0.679   5.125   1.093  0.6532 -0.1102 -0.2247
  878SOL    HW1 3318   0.679   5.220   1.086 -1.7006  0.0039  0.1738
  878SOL    HW2 3319   0.698   5.108   1.186 -0.0712  0.0596 -0.0357
  879SOL     OW 3320   0.744   4.505   2.400  0.3143 -0.9993  1.2744
  879SOL    HW1 3321   0.678   4.574   2.394  2.2775  0.8692 -0.3018
  879SOL    HW2 3322   0.728   4.449   2.324  0.5811 -0.4710  0.8183
  880SOL     OW 3323   2.630   1.082   2.403  0.1782  0.2384  0.1011
  880SOL    HW1 3324   2.566   1.018   2.373  0.7853  0.2599 -1.3187
  880SOL    HW2 3325   2.652   1.133   2.325  1.0504  0.9940  0.8089
  881SOL     OW 3326   3.722   6.112   6.835 -1.5523  0.0956 -0.5503
  881SOL    HW1 3327   3.813   6.089   6.855 -1.8547 -0.6621 -0.0106
  881SOL    HW2 3328   3.713   6.095   6.741 -0.6321  1.9429 -1.0062
  882SOL     OW 3329   2.452   4.411   0.049  0.6298 -0.5005 -0.0700
  882SOL    HW1 3330   2.495   4.415   0.134 -0.2371 -2.5317  0.5270
  882SOL    HW2 3331   2.365   4.376   0.068  0.5585 -1.3910 -1.8233
  883SOL     OW 3332   3.907   0.675   1.645  0.1223  0.6831 -0.0385
  883SOL    HW1 3333   3.814   0.665   1.624  0.2479  2.4646 -1.8266
  883SOL    HW2 3334   3.924   0.768   1.632  2.4731  0.1560 -1.2551
  884SOL     OW 3335   5.538   1.545   3.283 -0.0837 -0.4307 -0.4528
  884SOL    HW1 3336   5.598   1.509   3.349 -0.5208 -1.1506 -0.4300
  884SOL    HW2 3337   5.458   1.565   3.332  0.5091  1.6558 -0.2493
  885SOL     OW 3338   4.165   4.371   6.455 -0.0099  0.0141  0.9422
  885SOL    HW1 3339   4.181   4.365   6.549 -1.6639 -1.1336  1.1982
  885SOL    HW2 3340   4.071   4.356   6.446  0.1964 -0.3897 -0.9381
  886SOL     OW 3341   0.089   0.399   4.497  0.3679  0.5812 -0.2752
  886SOL    HW1 3342   0.175   0.360   4.513  0.5827  1.4491  0.8592
  886SOL    HW2 3343   0.050   0.345   4.428  0.3799 -2.0557  1.6324
  887SOL     OW 3344   2.907   2.756   5.616 -0.3625 -0.5437 -0.0860
  887SOL    HW1 3345   2.907   2.844   5.653  2.1114 -1.1798  1.6540
  887SOL    HW2 3346   2.846   2.707   5.672 -0.1514 -0.4074  0.2710
  888SOL     OW 3347   6.310   4.488   4.782 -0.0879 -0.2227 -0.2065
  888SOL    HW1 3348   6.225   4.490   4.826 -2.2012  2.8576 -3.7750
  888SOL    HW2 3349   6.295   4.434   4.704  1.2473  0.2230 -0.8075
  889SOL     OW 3350   0.082   3.043   1.226  0.2651 -0.4792 -0.1663
  889SOL    HW1 3351  -0.009   3.013   1.235  0.4133 -0.3895  2.3559
  889SOL    HW2 3352   0.113   3.002   1.145 -2.1161 -0.2160 -1.2856
  890SOL     OW 3353   6.518   5.197   2.647 -0.0020  0.5680 -0.3271
  890SOL    HW1 3354   6.565   5.122   2.609 -1.2461 -0.6580  0.4543
  890SOL    HW2 3355   6.427   5.182   2.625 -0.3870  1.3815  0.6150
  891SOL     OW 3356   2.206   3.930   4.782  0.0739  0.9139 -0.1951
  891SOL    HW1 3357   2.229   3.989   4.853  0.5083  0.5940 -0.0666
  891SOL    HW2 3358   2.254   3.850   4.801  0.3182  0.8803 -0.9362
  892SOL     OW 3359   4.969   2.692   4.333  0.1669 -0.6146  0.2919
  892SOL    HW1 3360   4.925   2.617   4.292  0.6270 -0.7010 -0.0524
  892SOL    HW2 3361   5.006   2.741   4.259 -0.3310  0.0776  0.5053
  893SOL     OW 3362   2.121   5.022   3.562 -0.4268 -0.6318 -0.3109
  893SOL    HW1 3363   2.194   4.991   3.509  0.2623  1.5493 -0.7525
  893SOL    HW2 3364   2.111   4.955   3.630  1.8316 -1.1274 -0.3766
  894SOL     OW 3365   3.763   4.719   6.237  0.2181 -0.1991 -0.3303
  894SOL    HW1 3366   3.697   4.659   6.203 -1.0316  0.5206  0.7404
  894SOL    HW2 3367   3.733   4.806   6.212  0.6914  0.1482  0.2823
  895SOL     OW 3368   1.506   4.210   4.090 -0.2968  0.0413  0.2270
  895SOL    HW1 3369   1.473   4.259   4.014  1.0914  0.0929 -0.3743
  895SOL    HW2 3370   1.523   4.122   4.056 -0.7816 -0.2732  0.7846
  896SOL     OW 3371   0.946   3.372   3.169 -1.0633 -0.0415  0.3370
  896SOL    HW1 3372   0.863   3.376   3.216 -1.4062 -1.3553 -0.1052
  896SOL    HW2 3373   0.921   3.347   3.080 -0.3351  1.3484 -0.2821
  897SOL     OW 3374   2.757   1.854   1.574  0.5345 -0.2296  0.3045
  897SOL    HW1 3375   2.833   1.796   1.568  0.4579 -0.5476  1.9131
  897SOL    HW2 3376   2.790   1.941   1.551  0.8301 -0.7320 -1.3326
  898SOL     OW 3377   3.847   6.015   4.439 -0.1264  0.3580 -0.2460
  898SOL    HW1 3378   3.772   6.036   4.494  0.0474  1.0133 -0.2583
  898SOL    HW2 3379   3.901   6.094   4.441  1.0117 -0.4044  0.5027
  899SOL     OW 3380   1.225   3.636   3.495  0.6726 -0.0010  0.1920
  899SOL    HW1 3381   1.242   3.718   3.541  3.5077  0.0040 -0.6757
  899SOL    HW2 3382   1.187   3.663   3.412  1.4086  0.4388 -0.0108
  900SOL     OW 3383   3.855   0.875   0.759  0.5640 -0.1489  0.4154
  900SOL    HW1 3384   3.768   0.841   0.738  0.9172 -0.9169  0.1666
  900SOL    HW2 3385   3.842   0.928   0.838  0.0516 -1.1693  1.0351
  901SOL     OW 3386   0.546   6.015   1.778 -0.3265  0.1249 -0.2377
  901SOL    HW1 3387   0.633   5.985   1.805 -0.3226  0.1401 -0.2338
  901SOL    HW2 3388   0.563   6.096   1.729 -0.5202  1.3588  1.6492
  902SOL     OW 3389   1.249   1.150   3.823  0.3168 -0.1778 -0.5189
  902SOL    HW1 3390   1.217   1.070   3.864 -3.2200  1.2391 -0.1420
  902SOL    HW2 3391   1.303   1.192   3.890  0.1660 -1.0871  0.1914
  903SOL     OW 3392   5.605   5.463   6.719  0.1476 -0.2965 -0.7667
  903SOL    HW1 3393   5.685   5.423   6.684  0.1680 -0.8607 -0.1010
  903SOL    HW2 3394   5.577   5.404   6.789  0.9535  1.5272  1.2205
  904SOL     OW 3395   3.450   6.303   5.076 -0.5022  0.3972 -0.3449
  904SOL    HW1 3396   3.375   6.338   5.123 -0.0099 -0.7327  1.3737
  904SOL    HW2 3397   3.431   6.321   4.984 -2.1216  1.5168  0.1577
  905SOL     OW 3398   1.489   0.698   2.791 -0.5322 -0.3016 -0.0398
  905SOL    HW1 3399   1.482   0.785   2.830  1.2337 -0.4783  0.7729
  905SOL    HW2 3400   1.538   0.647   2.855  0.0150 -1.4072 -1.2872
  906SOL     OW 3401   1.405   4.598   6.698  0.2160  0.6903  0.1386
  906SOL    HW1 3402   1.393   4.553   6.615 -0.2271 -0.6661  0.9103
  906SOL    HW2 3403   1.356   4.680   6.688  1.9123  1.5743 -1.6622
  907SOL     OW 3404   5.315   0.978   6.549 -0.3165  0.1922  0.4317
  907SOL    HW1 3405   5.219   0.983   6.552 -0.4546 -1.7335  0.8008
  907SOL    HW2 3406   5.338   1.008   6.461 -1.3494 -0.2218  0.0040
  908SOL     OW 3407   0.874   6.788   1.013 -0.1527  0.2603 -0.2536
  908SOL    HW1 3408   0.941   6.780   1.081  1.3517  1.0902 -1.5575
  908SOL    HW2 3409   0.827   6.869   1.035  0.8758  0.9766 -0.6368
  909SOL     OW 3410   1.566   5.871   3.104 -0.2613 -0.6997  0.4257
  909SOL    HW1 3411   1.520   5.828   3.177  0.4477  0.7383  1.7881
  909SOL    HW2 3412   1.643   5.816   3.089 -0.4958 -1.0978  0.6436
  910SOL     OW 3413   0.754   4.129   6.661  0.0039 -0.4100  0.2315
  910SOL    HW1 3414   0.711   4.067   6.603  0.2460 -0.8293  0.5006
  910SOL    HW2 3415   0.685   4.162   6.718 -0.3221  0.3242 -0.5652
  911SOL     OW 3416   0.002   5.099   1.606 -0.0786  0.1487  0.1878
  911SOL    HW1 3417   0.071   5.032   1.608 -0.3496 -0.2799 -2.0461
  911SOL    HW2 3418  -0.079   5.050   1.617 -0.1757  0.3433  0.3380
  912SOL     OW 3419   0.778   5.696   2.988 -0.2877  0.0917  0.5413
  912SOL    HW1 3420   0.811   5.773   2.943  1.6652 -0.6584  0.6083
  912SOL    HW2 3421   0.697   5.674   2.941  0.0172  1.1862 -0.5553
  913SOL     OW 3422   4.235   0.090   6.849  0.5274 -0.0891 -0.4535
  913SOL    HW1 3423   4.200   0.081   6.938  0.1219  0.4588 -0.5539
  913SOL    HW2 3424   4.324   0.123   6.862  0.8240 -0.9293 -0.2225
  914SOL     OW 3425   1.485   1.408   2.876 -0.1042 -0.0289  0.5036
  914SOL    HW1 3426   1.501   1.500   2.853 -0.1900 -0.3579 -0.9614
  914SOL    HW2 3427   1.401   1.409   2.922 -1.0851  0.4247 -1.1903
  915SOL     OW 3428   1.575   6.415   4.396 -0.2431 -0.2797  0.1479
  915SOL    HW1 3429   1.654   6.415   4.341 -1.1981  0.1382 -1.2825
  915SOL    HW2 3430   1.608   6.425   4.485  1.3157 -0.0662 -0.4204
  916SOL     OW 3431   3.268   1.227   0.343  0.5725 -0.5031 -0.2173
  916SOL    HW1 3432   3.322   1.170   0.288  1.5470  0.9323 -0.8145
  916SOL    HW2 3433   3.316   1.310   0.345 -0.0470 -0.1393  1.8412
  917SOL     OW 3434   0.074   6.582   5.437 -0.7983 -0.0662 -0.1861
  917SOL    HW1 3435   0.136   6.645   5.473  0.7973 -0.6731 -1.6848
  917SOL    HW2 3436   0.004   6.576   5.502  0.6764  0.7179  1.5479
  918SOL     OW 3437   3.753   3.943   2.571 -0.4830 -0.5064 -0.2604
  918SOL    HW1 3438   3.832   3.900   2.604 -0.5484  0.8538  1.8601
  918SOL    HW2 3439   3.700   3.872   2.534  2.4774 -1.2533 -3.5909
  919SOL     OW 3440   5.567   0.751   1.585 -0.0417 -0.0146  0.1417
  919SOL    HW1 3441   5.475   0.774   1.598 -0.3068  1.4301 -3.2921
  919SOL    HW2 3442   5.568   0.655   1.586 -1.4383 -0.0466  0.9244
  920SOL     OW 3443   3.747   0.788   2.408  0.4211  0.4762 -0.3810
  920SOL    HW1 3444   3.724   0.696   2.401  0.2954  0.5181 -0.5342
  920SOL    HW2 3445   3.780   0.799   2.497  1.0041  0.1552 -0.5534
  921SOL     OW 3446   1.593   0.238   6.088  0.1104 -0.1578  0.0534
  921SOL    HW1 3447   1.633   0.161   6.129 -1.4422 -0.8539  0.3545
  921SOL    HW2 3448   1.647   0.312   6.117  0.1336 -0.8408  1.8851
  922SOL     OW 3449   1.463   0.819   0.732  0.4197  0.0095 -0.0664
  922SOL    HW1 3450   1.558   0.827   0.735  0.3904  0.0385  1.4028
  922SOL    HW2 3451   1.432   0.862   0.812 -0.8093 -0.2917 -0.3491
  923SOL     OW 3452   2.364   1.732   0.659  0.2507 -0.3598  0.6021
  923SOL    HW1 3453   2.355   1.653   0.712  2.9027  0.0426  1.7900
  923SOL    HW2 3454   2.427   1.708   0.591 -0.8258  0.0396 -0.5775
  924SOL     OW 3455   2.109   3.658   3.304  0.4365  0.4666  0.1753
  924SOL    HW1 3456   2.147   3.731   3.254  0.9592 -0.0218 -0.1620
  924SOL    HW2 3457   2.031   3.633   3.255 -0.1040  1.2164  0.6475
  925SOL     OW 3458   1.624   4.795   5.539 -0.6458 -0.2200 -0.3996
  925SOL    HW1 3459   1.691   4.728   5.534 -0.1531  0.3431 -1.7158
  925SOL    HW2 3460   1.545   4.748   5.566 -0.7986 -1.7227 -3.0931
  926SOL     OW 3461   1.622   3.007   0.177  0.0990  0.6302  0.2834
  926SOL    HW1 3462   1.608   2.940   0.111 -1.2816  1.9133 -0.7915
  926SOL    HW2 3463   1.714   2.998   0.202  0.4197 -0.4382 -1.1750
  927SOL     OW 3464   2.957   0.702   6.795 -0.2507 -0.3660 -0.0508
  927SOL    HW1 3465   2.960   0.678   6.703  0.2513 -0.3879 -0.0286
  927SOL    HW2 3466   2.988   0.793   6.798 -0.2824 -0.3586  0.0929
  928SOL     OW 3467   0.792   4.248   1.169 -0.3457  0.0572  0.5168
  928SOL    HW1 3468   0.727   4.189   1.206 -0.7093  0.6721  0.8607
  928SOL    HW2 3469   0.745   4.296   1.100 -0.4756  1.0491  1.2785
  929SOL     OW 3470   1.134   0.926   3.940  0.2390  0.5322 -0.3004
  929SOL    HW1 3471   1.050   0.929   3.894  0.6265  1.0391 -0.9756
  929SOL    HW2 3472   1.161   0.834   3.934  1.4394  0.9646 -3.2197
  930SOL     OW 3473   0.593   6.404   6.665  0.3084  0.4483 -0.0492
  930SOL    HW1 3474   0.515   6.443   6.626  0.2228 -0.1023 -0.4430
  930SOL    HW2 3475   0.657   6.402   6.594  0.1396 -0.5904 -0.1933
  931SOL     OW 3476   0.324   1.961   1.089 -0.2306  0.1379  0.5492
  931SOL    HW1 3477   0.384   2.032   1.069  1.3127 -1.2554 -0.0091
  931SOL    HW2 3478   0.314   1.913   1.007 -0.5561 -0.7701  1.0954
  932SOL     OW 3479   4.745   0.374   2.098  0.0949  0.2575  0.1395
  932SOL    HW1 3480   4.820   0.342   2.149  0.4837  1.0642  0.0825
  932SOL    HW2 3481   4.764   0.347   2.008 -0.8391 -1.6220  0.4601
  933SOL     OW 3482   2.613   6.121   0.066  0.2427 -0.6111  0.1234
  933SOL    HW1 3483   2.620   6.026   0.057 -1.6585 -0.6864 -0.8840
  933SOL    HW2 3484   2.654   6.139   0.150 -0.1575 -2.4302  0.7646
  934SOL     OW 3485   2.967   6.245   2.536 -0.5477 -0.1444 -0.4357
  934SOL    HW1 3486   2.877   6.255   2.568 -0.5917  0.4740 -0.7493
  934SOL    HW2 3487   2.983   6.323   2.484 -0.0134 -0.5126 -0.8357
  935SOL     OW 3488   2.195   1.347   1.551 -0.8090  0.0963 -0.1084
  935SOL    HW1 3489   2.268   1.321   1.607 -2.2217 -0.5160  1.5543
  935SOL    HW2 3490   2.220   1.432   1.517  0.5585  0.0296  0.6420
  936SOL     OW 3491   3.010   2.579   4.797  0.0477  0.1154 -0.1199
  936SOL    HW1 3492   3.101   2.551   4.804  0.1481  0.8063  2.8061
  936SOL    HW2 3493   3.004   2.623   4.713  2.3857 -0.0346 -0.4232
  937SOL     OW 3494   3.147   1.471   5.027 -0.2912  0.3343  0.2207
  937SOL    HW1 3495   3.111   1.397   4.979  1.9152 -1.1544  0.7138
  937SOL    HW2 3496   3.096   1.475   5.108 -1.3081  0.2454 -0.3986
  938SOL     OW 3497   2.497   0.384   1.045  0.1207 -0.1331 -0.4434
  938SOL    HW1 3498   2.477   0.467   1.001 -3.7694 -1.4500 -1.6440
  938SOL    HW2 3499   2.539   0.410   1.127 -2.4797  3.2455  0.0873
  939SOL     OW 3500   1.840   0.147   3.602 -0.1959  0.3639 -0.4067
  939SOL    HW1 3501   1.916   0.152   3.545 -0.2422 -1.6298 -0.7374
  939SOL    HW2 3502   1.868   0.189   3.684  1.3501 -0.4972 -0.4549
  940SOL     OW 3503   5.303   6.834   2.153 -0.6973 -0.1446 -0.6025
  940SOL    HW1 3504   5.334   6.752   2.114  1.0001  0.1020  0.1291
  940SOL    HW2 3505   5.231   6.809   2.209  0.9180 -1.4506  0.9893
  941SOL     OW 3506   2.309   1.331   4.121 -0.1250  0.3523 -0.6080
  941SOL    HW1 3507   2.238   1.291   4.070 -0.0821  0.6458 -0.9042
  941SOL    HW2 3508   2.272   1.343   4.209 -0.0277 -0.6253 -0.4276
  942SOL     OW 3509   3.923   4.533   1.415 -0.2000  0.9259 -0.3535
  942SOL    HW1 3510   3.980   4.602   1.452 -1.1428  1.0040  1.0332
  942SOL    HW2 3511   3.984   4.467   1.382  0.7205  1.2075  0.7146
  943SOL     OW 3512   5.898   3.150   4.006 -0.4119  0.1478  0.3081
  943SOL    HW1 3513   5.915   3.194   3.922  0.4428 -0.1925  0.2929
  943SOL    HW2 3514   5.895   3.221   4.070 -2.5439  0.5611 -0.2030
  944SOL     OW 3515   0.175   4.213   5.269 -0.2463  0.2042  0.4918
  944SOL    HW1 3516   0.203   4.140   5.214  0.9055  0.1601  1.0938
  944SOL    HW2 3517   0.230   4.205   5.348 -0.7026  1.2234  0.9216
  945SOL     OW 3518   6.370   3.097   3.435 -0.3047  0.3445  0.4279
  945SOL    HW1 3519   6.387   3.189   3.453  0.6452  0.9877 -2.9712
  945SOL    HW2 3520   6.448   3.051   3.467  0.0800  1.0008  0.4347
  946SOL     OW 3521   4.935   4.356   5.443  0.2036  0.2891  0.0840
  946SOL    HW1 3522   4.933   4.378   5.349 -0.8050 -1.8527 -0.4379
  946SOL    HW2 3523   5.024   4.324   5.458 -0.5431 -2.5271 -0.9837
  947SOL     OW 3524   4.984   1.668   4.639 -0.2729 -0.2922 -0.0766
  947SOL    HW1 3525   5.060   1.713   4.603 -0.2668 -0.4094 -0.2111
  947SOL    HW2 3526   5.022   1.600   4.696 -0.2843  0.4524  0.8524
  948SOL     OW 3527   6.711   3.079   0.537  0.4922 -0.0942  0.3181
  948SOL    HW1 3528   6.643   3.048   0.477  0.5313 -1.2987  0.8662
  948SOL    HW2 3529   6.791   3.078   0.484  0.2064  0.6774 -0.1385
  949SOL     OW 3530   5.536   0.367   6.614 -0.4130 -0.2626  0.3616
  949SOL    HW1 3531   5.629   0.383   6.630 -0.6748 -0.1318  1.9119
  949SOL    HW2 3532   5.531   0.274   6.591  0.3504  0.2493 -2.1784
  950SOL     OW 3533   2.439   2.237   4.936  0.0118  0.4393  0.3712
  950SOL    HW1 3534   2.463   2.326   4.911  0.4512  0.2662  0.1666
  950SOL    HW2 3535   2.421   2.193   4.853  2.4056 -0.4091  0.2181
  951SOL     OW 3536   4.723   2.322   1.733  0.2950  0.0517  0.0479
  951SOL    HW1 3537   4.811   2.353   1.713 -0.0228  0.7769 -0.2381
  951SOL    HW2 3538   4.738   2.238   1.778  1.1036 -0.2488 -0.7283
  952SOL     OW 3539   3.765   0.127   3.651 -0.6624 -0.8024 -0.2212
  952SOL    HW1 3540   3.735   0.113   3.562  0.6668  0.0057 -0.8261
  952SOL    HW2 3541   3.826   0.055   3.668  1.6853  0.8230 -1.2355
  953SOL     OW 3542   5.431   0.084   6.077  0.2871 -0.1185 -0.1253
  953SOL    HW1 3543   5.388   0.153   6.028 -0.4298 -1.6496 -1.7429
  953SOL    HW2 3544   5.363   0.018   6.091  1.3879 -1.3429 -0.2948
  954SOL     OW 3545   2.643   1.730   4.532  0.2110 -0.4729  0.1034
  954SOL    HW1 3546   2.687   1.676   4.465  1.4515  0.3260  0.2588
  954SOL    HW2 3547   2.569   1.769   4.485  0.6794 -0.4426 -0.6307
  955SOL     OW 3548   1.223   1.947   5.295  0.0842 -0.1577  0.2607
  955SOL    HW1 3549   1.313   1.918   5.285 -0.0034 -0.0685 -0.9831
  955SOL    HW2 3550   1.189   1.896   5.369  0.2780 -2.4019 -1.1153
  956SOL     OW 3551   0.219   1.266   1.698  0.2053 -0.4187  0.2908
  956SOL    HW1 3552   0.208   1.256   1.603  0.5145  1.7355 -0.0335
  956SOL    HW2 3553   0.131   1.279   1.731  0.2494  0.9341 -0.0450
  957SOL     OW 3554   4.542   6.891   4.363  0.0411  0.9827 -0.3319
  957SOL    HW1 3555   4.476   6.822   4.365 -1.0171  1.8841 -1.7829
  957SOL    HW2 3556   4.500   6.967   4.402  0.6917  1.2180 -0.0660
  958SOL     OW 3557   2.383   3.748   5.569  0.1890  0.1286 -0.5206
  958SOL    HW1 3558   2.409   3.656   5.582 -0.1390  0.3137  2.1244
  958SOL    HW2 3559   2.458   3.788   5.525  1.0839 -1.0442 -0.1209
  959SOL     OW 3560   3.747   0.120   2.108 -0.2887 -0.3131  0.2573
  959SOL    HW1 3561   3.842   0.112   2.106 -0.2950 -0.6968  0.9456
  959SOL    HW2 3562   3.716   0.031   2.126 -0.8695 -0.5206 -1.5798
  960SOL     OW 3563   4.256   0.886   6.134  0.0989 -0.4346 -0.4456
  960SOL    HW1 3564   4.325   0.890   6.201 -1.2239  2.1407  0.9147
  960SOL    HW2 3565   4.296   0.926   6.056  0.1487  1.3534  0.4324
  961SOL     OW 3566   2.289   6.023   0.189  0.6121  0.6844 -0.5313
  961SOL    HW1 3567   2.280   6.024   0.284  1.9958  0.5668 -0.3714
  961SOL    HW2 3568   2.320   5.935   0.169  1.8013  1.1639 -0.9076
  962SOL     OW 3569   3.568   3.666   6.804 -0.4440  0.7482  0.3984
  962SOL    HW1 3570   3.663   3.664   6.820 -0.1320 -0.2004 -1.2643
  962SOL    HW2 3571   3.550   3.756   6.777  0.0594  0.8617  0.4327
  963SOL     OW 3572   1.575   0.393   3.031  0.6282  0.4038  0.5596
  963SOL    HW1 3573   1.592   0.487   3.026 -0.6444  0.6029 -0.9100
  963SOL    HW2 3574   1.632   0.361   3.101 -0.1054  2.5237  2.2249
  964SOL     OW 3575   3.416   6.386   4.368  0.0948 -0.0618  0.0662
  964SOL    HW1 3576   3.489   6.355   4.421  0.1920 -1.2729 -0.7507
  964SOL    HW2 3577   3.440   6.364   4.278 -0.9465  0.1753 -0.2871
  965SOL     OW 3578   5.876   0.406   4.576 -0.0488  0.3372  0.5617
  965SOL    HW1 3579   5.904   0.320   4.607  0.6279 -0.5790 -2.2756
  965SOL    HW2 3580   5.954   0.461   4.586 -0.1198  0.3168  1.2873
  966SOL     OW 3581   3.847   3.664   2.563 -0.7854  0.1392 -0.3961
  966SOL    HW1 3582   3.860   3.600   2.493 -0.7502 -0.0272 -0.2356
  966SOL    HW2 3583   3.917   3.646   2.625 -0.0558  1.0878 -0.9163
  967SOL     OW 3584   6.108   2.126   3.810  0.1820  0.3473  1.0479
  967SOL    HW1 3585   6.038   2.137   3.874  0.1191  0.8765  0.8964
  967SOL    HW2 3586   6.166   2.060   3.848 -0.8851 -0.7956  0.7489
  968SOL     OW 3587   5.291   3.044   6.217  0.0858 -0.7169  0.3482
  968SOL    HW1 3588   5.279   3.109   6.286  3.9430  1.1337 -0.4939
  968SOL    HW2 3589   5.253   3.084   6.139  1.5097  0.1174  0.0607
  969SOL     OW 3590   6.633   2.674   4.745 -0.1072  0.3931 -0.2247
  969SOL    HW1 3591   6.610   2.612   4.815 -0.7476 -2.6520 -2.8808
  969SOL    HW2 3592   6.697   2.732   4.785 -0.9093 -0.7404  3.0455
  970SOL     OW 3593   2.979   5.189   5.738  0.2215 -0.3700 -0.6835
  970SOL    HW1 3594   2.953   5.170   5.648  0.9040 -0.2942 -0.9010
  970SOL    HW2 3595   3.074   5.184   5.737  0.3642  1.5543 -0.4271
  971SOL     OW 3596   2.425   4.374   3.625 -0.5478  0.2923  0.1791
  971SOL    HW1 3597   2.391   4.285   3.616  1.0113 -0.2942 -0.1037
  971SOL    HW2 3598   2.435   4.386   3.720 -1.0933  0.3146  0.2398
  972SOL     OW 3599   0.220   0.365   4.888 -0.3711  0.3768  0.0258
  972SOL    HW1 3600   0.149   0.351   4.825  0.1683  1.6022 -0.8925
  972SOL    HW2 3601   0.297   0.324   4.847 -0.0991  0.8660  0.0381
  973SOL     OW 3602   5.132   4.902   4.897 -0.3070 -0.5410  0.4307
  973SOL    HW1 3603   5.101   4.978   4.848  0.1880 -0.7836 -0.2811
  973SOL    HW2 3604   5.114   4.923   4.988 -0.2663  0.3818  0.2356
  974SOL     OW 3605   0.620   0.436   6.850  0.1293 -0.2597  0.4127
  974SOL    HW1 3606   0.545   0.464   6.902 -1.4744  0.8394 -2.2931
  974SOL    HW2 3607   0.625   0.342   6.865 -1.7082 -0.3359  0.7838
  975SOL     OW 3608   1.192   5.807   2.917 -0.6089  0.6827  0.3453
  975SOL    HW1 3609   1.265   5.845   2.869  0.1949 -0.4676  0.6093
  975SOL    HW2 3610   1.182   5.719   2.879 -1.9272  0.8602  0.2401
  976SOL     OW 3611   6.828   5.326   6.352 -0.0721 -0.1924  0.2411
  976SOL    HW1 3612   6.765   5.254   6.359  1.1044 -1.1573  1.3477
  976SOL    HW2 3613   6.801   5.374   6.274 -0.8449 -1.9003 -0.5907
  977SOL     OW 3614   4.403   1.740   5.025  0.4643  0.1533  0.4490
  977SOL    HW1 3615   4.368   1.711   5.110 -0.9508 -0.7226 -0.4003
  977SOL    HW2 3616   4.387   1.834   5.024 -1.1276 -0.0915  0.4578
  978SOL     OW 3617   6.266   1.590   4.778  0.5276  0.0456  0.4193
  978SOL    HW1 3618   6.209   1.643   4.722 -0.3676 -0.9928  0.3092
  978SOL    HW2 3619   6.228   1.598   4.865  0.7212  0.0211  0.5072
  979SOL     OW 3620   6.487   0.967   3.222  0.4471 -0.8789  0.6644
  979SOL    HW1 3621   6.460   0.877   3.204 -0.8161 -0.6819  1.4659
  979SOL    HW2 3622   6.556   0.959   3.287 -0.3480 -1.2401  1.4766
  980SOL     OW 3623   3.816   5.692   4.731 -0.1972  0.4989 -0.0921
  980SOL    HW1 3624   3.862   5.619   4.773 -0.0394 -0.7664 -2.3208
  980SOL    HW2 3625   3.883   5.737   4.680 -1.0692 -0.5794 -2.3314
  981SOL     OW 3626   5.647   6.480   0.306 -0.0734 -0.0214 -0.2164
  981SOL    HW1 3627   5.640   6.474   0.211  1.2915  2.3605 -0.5656
  981SOL    HW2 3628   5.680   6.569   0.322 -0.5176 -0.2479  2.5070
  982SOL     OW 3629   4.276   3.660   2.682  0.4545 -0.1415  0.1976
  982SOL    HW1 3630   4.205   3.691   2.737  0.0475 -0.5267 -0.1087
  982SOL    HW2 3631   4.355   3.693   2.725  0.0437  1.3211 -0.1210
  983SOL     OW 3632   2.800   5.464   6.777 -0.1974 -0.3792  0.2030
  983SOL    HW1 3633   2.893   5.448   6.793  0.0453 -0.5379 -1.2787
  983SOL    HW2 3634   2.790   5.558   6.790  0.6923  0.0583 -1.9490
  984SOL     OW 3635   5.798   5.071   2.628 -0.0745  0.6687  0.0819
  984SOL    HW1 3636   5.763   5.112   2.549  0.1213 -0.4741 -0.6087
  984SOL    HW2 3637   5.766   4.981   2.625 -0.2286  0.6601  1.4112
  985SOL     OW 3638   0.151   0.682   0.793  0.4770 -0.0089  0.2700
  985SOL    HW1 3639   0.098   0.751   0.752 -0.6275 -0.9616  0.0272
  985SOL    HW2 3640   0.104   0.662   0.874 -0.8732 -2.4110 -1.0000
  986SOL     OW 3641   1.994   5.374   5.008  0.1231 -0.0303  0.1325
  986SOL    HW1 3642   1.971   5.374   4.915  2.1173  1.5018 -0.4368
  986SOL    HW2 3643   1.999   5.467   5.032  1.0309 -0.3648  1.3743
  987SOL     OW 3644   1.965   3.385   2.777  0.1863 -0.0906 -0.1990
  987SOL    HW1 3645   1.961   3.305   2.724  0.9512  0.3750 -0.9887
  987SOL    HW2 3646   1.959   3.355   2.867 -1.3086 -0.9003 -0.5304
  988SOL     OW 3647   2.780   0.609   1.079 -0.1123  0.1743  0.5139
  988SOL    HW1 3648   2.774   0.545   1.008  0.4349 -0.3941  0.9680
  988SOL    HW2 3649   2.801   0.691   1.035 -3.0355  0.5894 -0.3261
  989SOL     OW 3650   0.696   3.280   1.436 -0.7755  0.3868 -0.1734
  989SOL    HW1 3651   0.616   3.328   1.459  0.3541  2.2163  0.0801
  989SOL    HW2 3652   0.718   3.231   1.515 -2.3506 -1.2720 -0.6718
  990SOL     OW 3653   2.121   0.871   6.477  0.0068  0.8065  0.4415
  990SOL    HW1 3654   2.210   0.885   6.446 -0.1069  1.0119  0.2049
  990SOL    HW2 3655   2.081   0.958   6.474 -0.8130  0.4032 -1.3550
  991SOL     OW 3656   1.479   4.136   6.365  0.1700 -0.0972  0.5718
  991SOL    HW1 3657   1.541   4.198   6.327 -1.6125  1.9878  0.8512
  991SOL    HW2 3658   1.505   4.128   6.457 -1.3445  2.8399  1.3961
  992SOL     OW 3659   2.707   5.431   3.778 -0.0189 -0.1453  0.1801
  992SOL    HW1 3660   2.791   5.390   3.757  0.2044  1.1597 -1.7746
  992SOL    HW2 3661   2.646   5.359   3.790  0.9511 -1.0883 -0.4226
  993SOL     OW 3662   5.871   5.789   0.315 -0.0381 -0.0027  0.1723
  993SOL    HW1 3663   5.821   5.736   0.377  1.5831  0.0153  1.5724
  993SOL    HW2 3664   5.832   5.876   0.320 -2.0609 -0.7514 -1.3850
  994SOL     OW 3665   0.820   5.542   5.137  0.3243 -0.6388 -0.1440
  994SOL    HW1 3666   0.795   5.562   5.228 -0.7045 -3.4697  0.2781
  994SOL    HW2 3667   0.898   5.596   5.122 -0.7982  1.6345  1.5932
  995SOL     OW 3668   1.292   0.328   1.294 -0.2881  0.3888 -0.4394
  995SOL    HW1 3669   1.273   0.412   1.253 -1.0129  0.5340  0.1522
  995SOL    HW2 3670   1.247   0.263   1.239  0.3456  0.3757 -0.9454
  996SOL     OW 3671   3.911   1.381   0.343 -0.0642  0.4453 -0.4639
  996SOL    HW1 3672   3.930   1.297   0.300  0.4499  0.4235 -0.1971
  996SOL    HW2 3673   3.825   1.406   0.309 -0.7758 -0.7753  0.3735
  997SOL     OW 3674   0.270   2.908   4.033 -0.4311 -0.1172  0.1369
  997SOL    HW1 3675   0.298   2.817   4.043 -0.6297 -0.2652 -0.6388
  997SOL    HW2 3676   0.294   2.949   4.116  0.5606 -0.6392  0.1240
  998SOL     OW 3677   2.588   3.046   4.445 -1.0197 -0.1725  0.2212
  998SOL    HW1 3678   2.565   3.136   4.423  1.9899  0.6619  0.0874
  998SOL    HW2 3679   2.596   3.046   4.540 -0.1659 -0.0176  0.1625
  999SOL     OW 3680   0.482   3.047   1.598  0.1161 -0.1641 -0.0722
  999SOL    HW1 3681   0.412   3.109   1.574 -0.6423 -0.1569  1.9741
  999SOL    HW2 3682   0.456   2.964   1.558 -1.3808 -0.2915  1.0936
 1000SOL     OW 3683   6.370   0.181   0.530 -0.4338 -0.5908 -0.0343
 1000SOL    HW1 3684   6.313   0.121   0.577  0.4956 -0.4605  1.2921
 1000SOL    HW2 3685   6.424   0.125   0.474  0.0460 -0.9570  0.7877
 1001SOL     OW 3686   3.160   4.107   0.326  0.5024 -0.0161 -0.1886
 1001SOL    HW1 3687   3.073   4.081   0.295 -0.3112 -0.9972  2.5444
 1001SOL    HW2 3688   3.201   4.149   0.251 -3.0216  2.2044 -1.1093
 1002SOL     OW 3689   2.053   5.801   4.284  0.1839 -0.0935 -0.0053
 1002SOL    HW1 3690   2.090   5.755   4.359 -0.1956 -1.0157 -0.3746
 1002SOL    HW2 3691   2.090   5.758   4.208 -0.3957  0.0207 -0.3621
 1003SOL     OW 3692   4.688   2.890   5.457  0.6793  0.1130  0.0022
 1003SOL    HW1 3693   4.597   2.893   5.427  0.2825  1.2470  1.1549
 1003SOL    HW2 3694   4.702   2.799   5.484 -0.4189  0.0954  0.6019
 1004SOL     OW 3695   3.186   0.897   6.238  0.5799 -0.4131  0.1855
 1004SOL    HW1 3696   3.091   0.890   6.240  0.5789 -0.8790 -0.9890
 1004SOL    HW2 3697   3.206   0.966   6.302 -0.6941  1.0857 -0.9473
 1005SOL     OW 3698   3.989   2.854   0.920  0.4652 -0.1363  0.0731
 1005SOL    HW1 3699   4.011   2.761   0.927 -0.5319 -0.2750  2.4150
 1005SOL    HW2 3700   4.064   2.899   0.959 -0.0755 -0.1582  1.1970
 1006SOL     OW 3701   2.512   3.242   0.178 -0.0613  0.7073 -0.5447
 1006SOL    HW1 3702   2.559   3.247   0.095 -0.7927  1.3285 -0.9384
 1006SOL    HW2 3703   2.421   3.227   0.153 -0.0443 -0.8499  0.2139
 1007SOL     OW 3704   4.928   3.051   3.987  0.4698 -0.5515 -0.1756
 1007SOL    HW1 3705   4.895   3.070   3.899 -1.5419 -0.4347  0.5373
 1007SOL    HW2 3706   4.886   3.117   4.042  4.2378  1.5119  0.5186
 1008SOL     OW 3707   5.737   3.642   3.113  0.2239  0.2625  0.0132
 1008SOL    HW1 3708   5.660   3.694   3.090 -0.2369 -0.1810  0.5293
 1008SOL    HW2 3709   5.766   3.679   3.197 -0.0448 -0.2342  0.3321
 1009SOL     OW 3710   5.422   5.455   2.046  0.0220  0.1299  0.5492
 1009SOL    HW1 3711   5.332   5.437   2.018  0.8884 -1.4030 -1.4972
 1009SOL    HW2 3712   5.441   5.542   2.010 -0.5991  0.4217  0.9079
 1010SOL     OW 3713   4.710   4.373   4.475  0.3278  0.0045 -0.0372
 1010SOL    HW1 3714   4.667   4.324   4.406  0.6424 -1.5889  0.8500
 1010SOL    HW2 3715   4.643   4.383   4.543  0.6473 -0.3811  0.3417
 1011SOL     OW 3716   4.161   0.114   0.980 -0.1791  0.0541  0.3190
 1011SOL    HW1 3717   4.083   0.096   1.031 -0.0664 -1.4000  0.0090
 1011SOL    HW2 3718   4.129   0.161   0.903 -0.2148  3.5311  2.2200
 1012SOL     OW 3719   4.056   3.029   3.016 -0.7209  0.0455 -0.0589
 1012SOL    HW1 3720   3.967   3.024   2.981 -2.6196 -2.0341  4.2079
 1012SOL    HW2 3721   4.095   2.944   2.994  0.3569  0.9451 -1.9057
 1013SOL     OW 3722   2.649   4.759   5.668 -0.1123  0.1055  0.5848
 1013SOL    HW1 3723   2.640   4.854   5.675  0.5256  0.1225  1.2608
 1013SOL    HW2 3724   2.579   4.725   5.722  0.5118  0.2063  1.4734
 1014SOL     OW 3725   2.605   2.882   1.801  0.4912 -0.0389  0.2856
 1014SOL    HW1 3726   2.545   2.858   1.729  0.2119 -0.4186  0.6430
 1014SOL    HW2 3727   2.627   2.974   1.783 -3.9329  1.7896  2.6273
 1015SOL     OW 3728   6.016   2.950   4.243  0.5886 -0.2631  0.3643
 1015SOL    HW1 3729   5.947   2.965   4.179  0.2249  0.8787  1.0137
 1015SOL    HW2 3730   5.975   2.895   4.310  1.0142 -1.5966 -0.4099
 1016SOL     OW 3731   0.743   2.977   0.739 -0.2702  0.2885 -0.0716
 1016SOL    HW1 3732   0.678   3.016   0.681  0.8598  0.8359 -1.0219
 1016SOL    HW2 3733   0.816   3.040   0.739  0.9150 -1.0229 -0.3034
 1017SOL     OW 3734   5.411   5.117   3.300 -0.2210 -0.1533  0.6592
 1017SOL    HW1 3735   5.415   5.151   3.389  2.0915 -1.5291  1.1610
 1017SOL    HW2 3736   5.361   5.182   3.252 -0.0647  1.4949  2.5824
 1018SOL     OW 3737   3.213   6.062   6.704 -0.2266  0.7536  0.2425
 1018SOL    HW1 3738   3.285   6.007   6.734 -0.6259 -0.2731 -0.6324
 1018SOL    HW2 3739   3.251   6.116   6.635  0.2665  1.9038  1.3740
 1019SOL     OW 3740   1.579   1.308   0.718 -0.4957 -0.1661 -0.2152
 1019SOL    HW1 3741   1.555   1.232   0.664  0.5504  0.5576 -1.7743
 1019SOL    HW2 3742   1.594   1.378   0.655  0.4078  0.8319  1.0569
 1020SOL     OW 3743   1.772   0.301   2.361  0.2113 -0.1321  0.1045
 1020SOL    HW1 3744   1.739   0.253   2.438  0.3473 -2.1196 -1.0008
 1020SOL    HW2 3745   1.795   0.232   2.299 -0.8272  1.4217 -2.1212
 1021SOL     OW 3746   3.918   3.335   2.879  0.2045  0.1687 -0.1479
 1021SOL    HW1 3747   3.928   3.423   2.843  0.5852  0.2705  0.1962
 1021SOL    HW2 3748   3.871   3.348   2.961 -0.5190 -0.0456 -0.5209
 1022SOL     OW 3749   5.180   4.107   6.174  0.3582  0.1206 -0.2170
 1022SOL    HW1 3750   5.273   4.095   6.192  0.3759  0.4953 -0.0356
 1022SOL    HW2 3751   5.153   4.176   6.236 -0.3793 -1.0076  0.7629
 1023SOL     OW 3752   4.370   0.217   6.068 -0.2054 -0.1072  0.0638
 1023SOL    HW1 3753   4.315   0.241   6.142 -0.1952 -0.9359  0.3530
 1023SOL    HW2 3754   4.453   0.261   6.084 -0.5161  0.5007  0.0384
 1024SOL     OW 3755   3.043   1.443   6.054  0.3945  0.1303  0.1327
 1024SOL    HW1 3756   3.062   1.535   6.074  0.4439 -0.1573  1.4438
 1024SOL    HW2 3757   2.948   1.438   6.051  0.3927  0.4797 -1.2703
 1025SOL     OW 3758   6.544   5.738   6.892  0.9389  0.1741  0.2368
 1025SOL    HW1 3759   6.503   5.785   6.820  0.0055 -1.6031 -0.4791
 1025SOL    HW2 3760   6.606   5.800   6.930 -0.7455  2.2062 -0.1285
 1026SOL     OW 3761   3.723   1.909   1.513 -0.5168  0.8198 -0.7868
 1026SOL    HW1 3762   3.748   1.954   1.593 -0.3772  0.0937 -0.4176
 1026SOL    HW2 3763   3.748   1.969   1.443  0.7413  0.8305 -0.3533
 1027SOL     OW 3764   6.384   4.334   5.164  0.1861 -0.3146 -0.1301
 1027SOL    HW1 3765   6.339   4.331   5.080  1.1910 -0.3195 -0.6884
 1027SOL    HW2 3766   6.384   4.243   5.195 -0.2922 -0.2928 -0.0620
 1028SOL     OW 3767   0.888   2.905   3.665  0.2542 -0.4437 -0.7621
 1028SOL    HW1 3768   0.901   2.821   3.708 -0.5179 -0.0515  0.2799
 1028SOL    HW2 3769   0.920   2.970   3.728 -0.1509  0.0966 -1.1006
 1029SOL     OW 3770   1.824   5.004   5.527  0.4514 -0.5329  0.5905
 1029SOL    HW1 3771   1.778   5.062   5.588  2.0707 -0.7658  2.1261
 1029SOL    HW2 3772   1.765   4.930   5.515 -1.1193  0.8198 -0.4397
 1030SOL     OW 3773   3.313   5.114   4.044 -0.5860  0.0152  0.0178
 1030SOL    HW1 3774   3.247   5.047   4.024  0.5283 -0.5890 -1.9599
 1030SOL    HW2 3775   3.379   5.067   4.094 -0.8331  0.1990  0.5229
 1031SOL     OW 3776   4.207   2.275   2.579 -0.3920 -0.0181 -0.6381
 1031SOL    HW1 3777   4.118   2.302   2.603 -0.8973 -1.3564 -0.8795
 1031SOL    HW2 3778   4.214   2.293   2.486 -1.0563 -1.4538 -1.0025
 1032SOL     OW 3779   6.758   3.211   6.522  0.5128 -0.0349 -0.1020
 1032SOL    HW1 3780   6.781   3.282   6.582  1.6229 -0.1187 -0.3923
 1032SOL    HW2 3781   6.725   3.141   6.579  1.3745 -0.0466  0.4136
 1033SOL     OW 3782   1.828   2.286   3.238  0.0929 -0.0795 -0.3175
 1033SOL    HW1 3783   1.761   2.300   3.170  0.1941  1.6641 -0.1074
 1033SOL    HW2 3784   1.804   2.202   3.278 -2.7858  1.0439  0.6181
 1034SOL     OW 3785   4.115   4.134   0.046 -0.1865 -0.0707 -0.0128
 1034SOL    HW1 3786   4.061   4.180   0.112 -0.7153 -0.8932  0.1444
 1034SOL    HW2 3787   4.137   4.050   0.087  1.1784  0.2175 -0.1062
 1035SOL     OW 3788   0.801   0.328   1.331 -0.0004 -0.1030  0.6536
 1035SOL    HW1 3789   0.875   0.349   1.389 -0.4551 -0.7374  1.4883
 1035SOL    HW2 3790   0.783   0.235   1.348  1.4692 -1.0497 -2.3918
 1036SOL     OW 3791   4.901   0.245   0.880  0.4475  0.4493  0.0064
 1036SOL    HW1 3792   4.971   0.303   0.909  0.0856  0.9557 -0.1169
 1036SOL    HW2 3793   4.837   0.303   0.839 -0.8686  0.2416  1.6508
 1037SOL     OW 3794   1.643   5.873   1.559 -0.0402  0.6231  0.1149
 1037SOL    HW1 3795   1.608   5.870   1.648 -0.8698 -0.9602 -0.2227
 1037SOL    HW2 3796   1.614   5.791   1.519  1.4373  0.6950 -1.2083
 1038SOL     OW 3797   3.823   2.289   0.085  0.1824  0.1818 -0.3359
 1038SOL    HW1 3798   3.823   2.267   0.178  1.9441 -0.5219 -0.4653
 1038SOL    HW2 3799   3.731   2.280   0.058 -0.0338 -1.6763  0.8541
 1039SOL     OW 3800   2.424   4.811   0.856  0.8505  0.2400  0.2591
 1039SOL    HW1 3801   2.508   4.830   0.897  1.1996  1.2067 -0.8391
 1039SOL    HW2 3802   2.389   4.737   0.905  1.7464  0.6395  1.5575
 1040SOL     OW 3803   4.104   0.223   4.766  0.0397  0.2688  0.3538
 1040SOL    HW1 3804   4.195   0.244   4.743  0.0397  0.1441  0.2360
 1040SOL    HW2 3805   4.068   0.185   4.686  0.1596 -0.5554  0.6811
 1041SOL     OW 3806   5.002   1.387   0.784 -0.1476  0.0596  0.5372
 1041SOL    HW1 3807   4.958   1.304   0.805 -0.1939  0.1928  0.9902
 1041SOL    HW2 3808   5.093   1.362   0.770 -0.1105 -0.0413  0.9200
 1042SOL     OW 3809   2.307   5.949   3.382 -0.6765 -0.0409  0.2403
 1042SOL    HW1 3810   2.290   5.984   3.295  0.9745 -1.7172 -0.8112
 1042SOL    HW2 3811   2.392   5.985   3.407 -0.6516 -0.4069  0.7092
 1043SOL     OW 3812   2.791   2.717   1.924 -0.0801 -0.3544  0.0155
 1043SOL    HW1 3813   2.767   2.762   2.006 -0.4791 -0.1129 -0.2313
 1043SOL    HW2 3814   2.743   2.765   1.856 -1.3020 -1.7500 -0.1562
 1044SOL     OW 3815   2.378   0.022   6.794 -0.0029 -0.0289  0.8148
 1044SOL    HW1 3816   2.335  -0.003   6.875 -1.4288 -1.5494 -0.3438
 1044SOL    HW2 3817   2.391  -0.060   6.747  2.5178  0.5810  0.2541
 1045SOL     OW 3818   5.111   3.397   0.994  0.0474 -0.2460 -0.2412
 1045SOL    HW1 3819   5.155   3.427   0.914  0.3068  2.4814  0.8022
 1045SOL    HW2 3820   5.173   3.418   1.064 -1.7709  1.3319  1.0244
 1046SOL     OW 3821   3.052   1.502   1.334  0.3735  0.1962 -0.2319
 1046SOL    HW1 3822   3.107   1.580   1.333  0.9294 -0.1758 -1.9713
 1046SOL    HW2 3823   2.963   1.536   1.332  0.4844  0.7941  2.1656
 1047SOL     OW 3824   0.526   4.434   5.876 -0.6727  0.1843  0.2882
 1047SOL    HW1 3825   0.522   4.513   5.821  0.3321  1.0197  1.3550
 1047SOL    HW2 3826   0.532   4.467   5.965  0.3593 -1.0753  0.7265
 1048SOL     OW 3827   0.327   5.074   2.452  0.1360 -0.2809  0.0190
 1048SOL    HW1 3828   0.319   5.156   2.501 -0.1987 -1.0828  1.3876
 1048SOL    HW2 3829   0.302   5.006   2.516  1.2011 -1.5111 -0.8280
 1049SOL     OW 3830   3.434   2.488   5.463  0.7530  0.1616 -0.0204
 1049SOL    HW1 3831   3.497   2.525   5.402  1.6765  0.2447  0.9637
 1049SOL    HW2 3832   3.375   2.435   5.409  3.5091 -2.5133 -0.6438
 1050SOL     OW 3833   6.802   4.965   1.077  0.0124  0.5388  0.3594
 1050SOL    HW1 3834   6.714   5.001   1.087  0.3381  1.8230 -1.0078
 1050SOL    HW2 3835   6.804   4.931   0.987  1.4137  2.0720 -0.2312
 1051SOL     OW 3836   1.497   3.640   6.868  0.2746 -0.6081 -0.4649
 1051SOL    HW1 3837   1.579   3.607   6.832  0.1835 -1.1309 -0.2116
 1051SOL    HW2 3838   1.435   3.568   6.857  0.0230 -0.4639 -0.0492
 1052SOL     OW 3839   2.668   0.077   0.219  0.5507  0.0654  0.1293
 1052SOL    HW1 3840   2.599   0.123   0.171  1.6420  2.0620  0.3793
 1052SOL    HW2 3841   2.746   0.129   0.205  1.8791 -1.7325  0.4759
 1053SOL     OW 3842   0.559   5.022   1.710  0.3654 -0.2946 -0.2218
 1053SOL    HW1 3843   0.642   4.997   1.751  0.2966  2.3036  1.7203
 1053SOL    HW2 3844   0.508   4.941   1.708  1.7407 -1.2684  1.5886
 1054SOL     OW 3845   1.020   4.414   2.446  0.2182 -0.4382 -0.0311
 1054SOL    HW1 3846   1.059   4.372   2.369 -0.3608 -1.6400  0.3105
 1054SOL    HW2 3847   0.936   4.448   2.415 -0.0634 -1.0177  0.0909
 1055SOL     OW 3848   2.100   3.058   4.174 -0.0311  0.2487  0.4740
 1055SOL    HW1 3849   2.156   2.980   4.177 -0.5095 -0.1901 -1.0656
 1055SOL    HW2 3850   2.028   3.038   4.235 -0.2495 -0.6182 -0.0502
 1056SOL     OW 3851   2.707   3.856   6.574 -0.3174 -0.2182  0.5616
 1056SOL    HW1 3852   2.744   3.919   6.634  0.1285 -0.8949  1.0100
 1056SOL    HW2 3853   2.781   3.826   6.521  0.1356 -2.5941  2.3748
 1057SOL     OW 3854   4.049   5.683   1.136  0.1849  0.1678  0.0810
 1057SOL    HW1 3855   3.977   5.745   1.122 -0.0913 -0.2278 -0.2834
 1057SOL    HW2 3856   4.008   5.606   1.173  0.5497  0.2383  0.6521
 1058SOL     OW 3857   3.757   3.322   1.920 -0.2030  0.3168 -0.0399
 1058SOL    HW1 3858   3.806   3.264   1.863  0.3359 -0.3909  1.1065
 1058SOL    HW2 3859   3.713   3.383   1.861 -0.9343 -1.3576 -1.2891
 1059SOL     OW 3860   2.493   6.042   5.350 -0.0181  0.3827 -0.0576
 1059SOL    HW1 3861   2.411   5.998   5.373 -0.1207  0.8013  0.4100
 1059SOL    HW2 3862   2.559   6.002   5.407 -0.2682  1.4058  0.9862
 1060SOL     OW 3863   0.312   5.778   4.410  0.1620 -0.1017  0.1279
 1060SOL    HW1 3864   0.231   5.820   4.380 -0.0818 -0.7032 -0.0732
 1060SOL    HW2 3865   0.367   5.850   4.440 -0.5315  0.2951  0.4636
 1061SOL     OW 3866   2.899   0.865   1.889 -0.4256  1.1273 -0.5882
 1061SOL    HW1 3867   2.933   0.829   1.807 -1.4598 -1.1982 -0.0556
 1061SOL    HW2 3868   2.965   0.843   1.954 -1.6199 -1.0857 -0.0315
 1062SOL     OW 3869   5.552   0.649   3.113  0.2518  0.4080 -0.2869
 1062SOL    HW1 3870   5.513   0.562   3.106 -0.7849  0.8199  0.1585
 1062SOL    HW2 3871   5.509   0.689   3.188  1.3799  0.9806  0.0858
 1063SOL     OW 3872   5.209   6.687   3.657  0.0834 -0.4260  0.5396
 1063SOL    HW1 3873   5.122   6.682   3.617  0.3220 -0.5660  0.0267
 1063SOL    HW2 3874   5.220   6.779   3.680 -1.0987 -0.7554  2.6694
 1064SOL     OW 3875   0.138   6.395   0.706  0.4437  0.1402 -0.0948
 1064SOL    HW1 3876   0.189   6.462   0.660  0.3057 -0.3061 -0.9037
 1064SOL    HW2 3877   0.143   6.318   0.650  1.2698 -0.7908  1.2072
 1065SOL     OW 3878   5.065   6.239   4.785 -0.5875  0.3778 -0.3585
 1065SOL    HW1 3879   5.017   6.319   4.763  0.5287  1.6208  1.4676
 1065SOL    HW2 3880   5.156   6.266   4.791 -0.2845 -0.8182  1.1880
 1066SOL     OW 3881   5.024   2.283   6.181 -0.7279 -0.3973 -0.1419
 1066SOL    HW1 3882   5.057   2.331   6.257 -0.1195 -1.1496  0.0879
 1066SOL    HW2 3883   4.951   2.231   6.215 -1.1360  0.0631 -0.3061
 1067SOL     OW 3884   0.249   4.922   2.222 -0.2087  0.4877 -0.4007
 1067SOL    HW1 3885   0.273   4.962   2.305  0.0226 -0.2022 -0.1330
 1067SOL    HW2 3886   0.321   4.945   2.163  1.1235 -1.4866  0.3734
 1068SOL     OW 3887   1.063   3.295   1.694  0.5019 -0.5496  0.7688
 1068SOL    HW1 3888   1.003   3.267   1.764  0.1847  1.5785  1.4044
 1068SOL    HW2 3889   1.126   3.224   1.688 -0.6666 -1.7403  1.7756
 1069SOL     OW 3890   4.367   5.041   5.538 -0.4069 -0.4142 -0.3599
 1069SOL    HW1 3891   4.344   4.948   5.542 -0.6729 -0.3233  0.3986
 1069SOL    HW2 3892   4.345   5.067   5.448 -0.7143 -0.9832 -0.4537
 1070SOL     OW 3893   5.109   1.288   4.058 -0.0208 -0.0120  0.4303
 1070SOL    HW1 3894   5.135   1.196   4.054  0.3478 -0.0546  2.4554
 1070SOL    HW2 3895   5.189   1.336   4.039  0.4568 -0.1461  1.9634
 1071SOL     OW 3896   3.379   3.571   4.915 -0.2348  0.6676  0.1684
 1071SOL    HW1 3897   3.407   3.566   4.824 -0.1597 -0.9288  0.2459
 1071SOL    HW2 3898   3.295   3.525   4.917 -0.2417  0.6942  0.8947
 1072SOL     OW 3899   6.144   4.376   4.997 -0.3159 -0.0501 -0.3874
 1072SOL    HW1 3900   6.109   4.295   5.033  0.9654  0.1088  1.3344
 1072SOL    HW2 3901   6.067   4.422   4.962 -1.2148 -1.4586 -0.3455
 1073SOL     OW 3902   1.041   5.598   4.656 -0.3790 -0.3662 -0.1877
 1073SOL    HW1 3903   1.103   5.525   4.654  0.7182  0.4650  1.5498
 1073SOL    HW2 3904   1.082   5.663   4.712 -3.1037 -0.0007  1.5509
 1074SOL     OW 3905   1.686   1.119   5.861 -0.2765  0.0811 -0.1181
 1074SOL    HW1 3906   1.630   1.196   5.853  0.0706  0.1928 -1.6378
 1074SOL    HW2 3907   1.658   1.061   5.790 -0.1301 -0.9590  0.6390
 1075SOL     OW 3908   4.730   6.609   1.178  0.1670  0.0909  0.4792
 1075SOL    HW1 3909   4.723   6.541   1.245 -0.4954  1.0013  1.3688
 1075SOL    HW2 3910   4.652   6.664   1.191 -0.4957 -0.2453 -1.6644
 1076SOL     OW 3911   2.845   1.914   4.292  0.2159  0.0841  0.1648
 1076SOL    HW1 3912   2.844   1.844   4.227 -0.1119 -0.6610  0.9460
 1076SOL    HW2 3913   2.753   1.938   4.303  0.2778  0.2734  0.2784
 1077SOL     OW 3914   0.931   3.642   3.630 -0.0449 -0.3766  0.1202
 1077SOL    HW1 3915   0.866   3.619   3.696  0.1767 -0.5391  0.2818
 1077SOL    HW2 3916   1.012   3.603   3.662  0.2898  0.4562  0.2924
 1078SOL     OW 3917   3.994   0.491   0.486  0.1330  0.2308 -0.1243
 1078SOL    HW1 3918   3.918   0.544   0.507 -0.4887 -0.4677 -0.5404
 1078SOL    HW2 3919   4.068   0.538   0.523 -0.3444  1.6028 -0.8469
 1079SOL     OW 3920   5.089   0.557   2.654  0.3349 -0.5733  0.1071
 1079SOL    HW1 3921   5.013   0.499   2.658 -1.1438  1.1263 -1.3578
 1079SOL    HW2 3922   5.066   0.630   2.711  0.8144 -0.0258 -0.3859
 1080SOL     OW 3923   2.198   4.830   4.827  0.0041 -0.1536  0.1140
 1080SOL    HW1 3924   2.253   4.851   4.752 -0.2796 -1.5162 -0.4989
 1080SOL    HW2 3925   2.260   4.803   4.895  0.1702 -0.2808 -0.0890
 1081SOL     OW 3926   1.503   6.895   2.602  0.1880  0.4300  0.5610
 1081SOL    HW1 3927   1.454   6.867   2.525  1.2243  2.7835 -1.0936
 1081SOL    HW2 3928   1.436   6.928   2.663 -0.5784 -0.5723  0.2737
 1082SOL     OW 3929   2.671   2.922   6.021 -0.2250  0.9160  0.0808
 1082SOL    HW1 3930   2.692   2.984   6.091  0.8350  3.3685 -2.2318
 1082SOL    HW2 3931   2.726   2.846   6.039 -0.0262  1.4338  1.8972
 1083SOL     OW 3932   5.617   0.782   4.742  0.0210  0.2131  0.2448
 1083SOL    HW1 3933   5.624   0.710   4.679  1.3485  0.3696  0.1846
 1083SOL    HW2 3934   5.676   0.849   4.708  1.6904 -0.1487  2.2206
 1084SOL     OW 3935   2.857   6.407   3.100 -0.3755  0.4097  0.2883
 1084SOL    HW1 3936   2.852   6.347   3.025 -2.3729  3.1116 -1.9373
 1084SOL    HW2 3937   2.819   6.357   3.173 -0.9006 -1.4000 -1.1425
 1085SOL     OW 3938   1.099   0.253   0.172 -0.0091 -0.0179 -0.1615
 1085SOL    HW1 3939   1.120   0.329   0.226 -0.9837 -0.4807  0.8982
 1085SOL    HW2 3940   1.152   0.182   0.210  1.3993  0.2314 -1.5470
 1086SOL     OW 3941   4.034   1.219   6.230 -0.1710  0.4562 -0.3711
 1086SOL    HW1 3942   3.939   1.207   6.226 -0.0658 -0.3759 -0.7134
 1086SOL    HW2 3943   4.050   1.256   6.317 -0.7983  0.4598 -0.2504
 1087SOL     OW 3944   3.286   6.733   2.947  0.4773  0.2867  0.1029
 1087SOL    HW1 3945   3.269   6.809   3.003 -1.3342 -0.7653  1.0916
 1087SOL    HW2 3946   3.205   6.722   2.897  1.6122  0.4437 -1.8658
 1088SOL     OW 3947   2.497   1.094   1.463  0.5337 -0.0600 -0.3588
 1088SOL    HW1 3948   2.483   1.124   1.373 -1.5078 -2.3109 -0.8707
 1088SOL    HW2 3949   2.464   1.166   1.517  2.6382  1.7403 -1.2700
 1089SOL     OW 3950   2.100   1.137   3.932  0.2737 -0.1693 -0.3251
 1089SOL    HW1 3951   2.180   1.172   3.894  2.2688 -1.7115  2.1296
 1089SOL    HW2 3952   2.090   1.185   4.014  2.4665 -4.1146  2.5817
 1090SOL     OW 3953   4.707   2.425   3.454  0.2074 -0.4210 -0.1636
 1090SOL    HW1 3954   4.797   2.408   3.429  0.2841 -0.5148  0.1789
 1090SOL    HW2 3955   4.711   2.508   3.502 -0.0012 -0.0132 -0.8320
 1091SOL     OW 3956   3.577   1.632   2.977 -0.7553  0.4707 -0.3894
 1091SOL    HW1 3957   3.630   1.706   2.946 -1.8873  0.9483 -1.2481
 1091SOL    HW2 3958   3.493   1.671   3.000 -0.8392 -0.3201  0.6970
 1092SOL     OW 3959   6.743   2.990   2.334 -0.0265 -0.3119 -0.6009
 1092SOL    HW1 3960   6.697   3.016   2.413  0.1522  0.0176 -0.6043
 1092SOL    HW2 3961   6.752   2.895   2.342 -1.7274 -0.5614 -1.1438
 1093SOL     OW 3962   4.558   4.036   1.071  0.6121 -0.4569  0.2052
 1093SOL    HW1 3963   4.617   3.963   1.089  0.9006 -0.1858  0.3710
 1093SOL    HW2 3964   4.471   4.001   1.085  0.7553 -0.7497  0.3565
 1094SOL     OW 3965   3.667   6.214   3.461  0.3125 -0.4135  0.5589
 1094SOL    HW1 3966   3.685   6.287   3.402 -1.3985 -0.2200  0.2128
 1094SOL    HW2 3967   3.645   6.255   3.545  0.2546 -0.5772  0.6246
 1095SOL     OW 3968   6.511   2.638   2.882 -0.6420 -0.5474 -0.2669
 1095SOL    HW1 3969   6.506   2.553   2.839 -2.1454  0.9311 -3.2928
 1095SOL    HW2 3970   6.432   2.685   2.854  1.1111  2.5963 -0.4723
 1096SOL     OW 3971   2.012   3.778   2.004  0.2877  0.6435 -0.0438
 1096SOL    HW1 3972   1.959   3.792   1.926 -0.5449  0.2777  0.4414
 1096SOL    HW2 3973   2.088   3.835   1.992 -0.3838  1.4422 -0.5903
 1097SOL     OW 3974   3.830   3.675   5.005 -0.3609 -0.0753 -0.3842
 1097SOL    HW1 3975   3.831   3.754   5.061 -2.1104 -0.2284 -0.0746
 1097SOL    HW2 3976   3.805   3.707   4.919 -0.4416 -0.2040 -0.4088
 1098SOL     OW 3977   2.056   3.693   4.998 -0.2646  0.3104 -0.5964
 1098SOL    HW1 3978   1.998   3.740   5.058 -0.7322 -0.2331 -0.6135
 1098SOL    HW2 3979   2.141   3.696   5.040 -0.9982 -2.0404  1.2971
 1099SOL     OW 3980   2.667   6.475   0.298 -0.1675  0.9383 -0.3269
 1099SOL    HW1 3981   2.595   6.514   0.349 -1.6999  0.1078 -1.7343
 1099SOL    HW2 3982   2.645   6.495   0.207  1.3844  0.6012 -0.8037
 1100SOL     OW 3983   6.396   0.721   1.368 -0.8035  0.5800  0.0269
 1100SOL    HW1 3984   6.341   0.673   1.429 -0.3736 -0.3485 -0.3003
 1100SOL    HW2 3985   6.343   0.796   1.342 -1.2731  0.5886  0.9649
 1101SOL     OW 3986   0.981   4.977   1.018  0.0909  0.7931  0.1417
 1101SOL    HW1 3987   0.965   4.934   0.934 -3.8520 -0.9530  1.5329
 1101SOL    HW2 3988   0.904   5.032   1.033  1.1174  1.8065  2.1890
 1102SOL     OW 3989   5.033   1.101   4.399  0.3818 -0.6114  0.2203
 1102SOL    HW1 3990   5.103   1.065   4.346  1.0052  0.1158  0.5323
 1102SOL    HW2 3991   5.027   1.193   4.372  0.2353 -0.4124  0.9135
 1103SOL     OW 3992   4.278   6.107   2.996  0.0708  0.1617  1.0454
 1103SOL    HW1 3993   4.185   6.116   2.978  0.2396  0.4631  0.2847
 1103SOL    HW2 3994   4.290   6.143   3.084 -0.7200 -1.0071  1.6642
 1104SOL     OW 3995   3.697   4.877   3.649 -0.1388 -0.0913  0.4093
 1104SOL    HW1 3996   3.786   4.902   3.673  1.6211 -4.0816 -1.0842
 1104SOL    HW2 3997   3.674   4.936   3.578  0.0718  2.8267  2.6107
 1105SOL     OW 3998   5.324   4.562   3.235  0.5653 -0.6349 -0.3247
 1105SOL    HW1 3999   5.342   4.468   3.243  0.5916 -0.5308  1.1043
 1105SOL    HW2 4000   5.306   4.591   3.325 -0.5966  0.4998 -0.8775
 1106SOL     OW 4001   0.727   6.036   0.877 -0.5646 -0.4285  0.0554
 1106SOL    HW1 4002   0.763   6.116   0.914  0.0415 -0.9457  0.6246
 1106SOL    HW2 4003   0.682   5.994   0.951  0.4096 -1.3309  0.1578
 1107SOL     OW 4004   6.820   4.334   3.630 -0.2421 -0.1561  0.1343
 1107SOL    HW1 4005   6.726   4.315   3.640  0.1564 -1.3957  2.0111
 1107SOL    HW2 4006   6.842   4.387   3.706  0.9865 -1.6956  0.9110
 1108SOL     OW 4007   6.133   2.989   3.387 -0.2409  0.2208  0.5956
 1108SOL    HW1 4008   6.170   2.905   3.416 -0.1932  0.8508  2.4742
 1108SOL    HW2 4009   6.206   3.050   3.389 -0.4892  0.5401  0.2103
 1109SOL     OW 4010   0.935   4.344   6.035  0.2118 -0.5250  0.4146
 1109SOL    HW1 4011   0.894   4.431   6.030  1.3590 -0.0095 -0.3432
 1109SOL    HW2 4012   0.864   4.286   6.062 -0.5593  0.6594  1.0250
 1110SOL     OW 4013   6.845   1.404   6.450 -0.7761  0.2157  0.5498
 1110SOL    HW1 4014   6.878   1.335   6.393 -2.1820 -0.1611  0.1533
 1110SOL    HW2 4015   6.801   1.465   6.390  0.6652  1.6302  0.8512
 1111SOL     OW 4016   5.889   6.578   5.259  0.1647  0.8091  0.5128
 1111SOL    HW1 4017   5.936   6.522   5.198 -1.6088 -0.4081  0.1671
 1111SOL    HW2 4018   5.880   6.662   5.214 -2.9734 -0.6558 -2.0368
 1112SOL     OW 4019   4.214   1.547   2.007  0.3052  0.0989 -0.3441
 1112SOL    HW1 4020   4.225   1.524   2.100  1.4092  0.1822 -0.4348
 1112SOL    HW2 4021   4.302   1.572   1.979 -0.2438  1.2059 -1.1173
 1113SOL     OW 4022   1.053   6.167   4.648 -0.2359 -0.3217 -0.1470
 1113SOL    HW1 4023   0.980   6.115   4.680 -0.0567 -0.3719  0.1906
 1113SOL    HW2 4024   1.118   6.163   4.719 -0.4280  0.7945  0.1078
 1114SOL     OW 4025   6.165   1.245   2.787 -0.3190  0.1358  0.5285
 1114SOL    HW1 4026   6.235   1.205   2.839 -0.6895 -2.5515 -0.8925
 1114SOL    HW2 4027   6.210   1.306   2.729  0.5341  0.3365  1.3825
 1115SOL     OW 4028   1.155   4.071   4.275  0.2592  0.0511  0.2091
 1115SOL    HW1 4029   1.213   4.147   4.272 -0.4328  0.6673  1.4803
 1115SOL    HW2 4030   1.162   4.031   4.188 -0.7072  2.5919 -1.1326
 1116SOL     OW 4031   1.298   1.650   1.399 -0.4944  0.2118 -0.5368
 1116SOL    HW1 4032   1.233   1.647   1.469 -1.1855 -0.4677 -1.1879
 1116SOL    HW2 4033   1.381   1.631   1.443 -0.5856  1.8763  0.4325
 1117SOL     OW 4034   0.975   5.725   1.971  0.0868 -0.4070 -0.3039
 1117SOL    HW1 4035   1.046   5.735   1.907  1.2120 -1.2305  0.7708
 1117SOL    HW2 4036   0.987   5.638   2.007  1.3018  0.9925  3.0764
 1118SOL     OW 4037   4.451   2.579   0.631 -0.0978  0.1416 -0.0806
 1118SOL    HW1 4038   4.516   2.541   0.690 -1.2555 -0.9625  0.5406
 1118SOL    HW2 4039   4.471   2.672   0.630  0.7614 -0.0077  1.0184
 1119SOL     OW 4040   6.808   2.778   2.101 -0.2449  0.0381  0.6482
 1119SOL    HW1 4041   6.773   2.789   2.189 -1.9328 -0.1215  0.0365
 1119SOL    HW2 4042   6.750   2.715   2.059  0.3630  0.3139 -0.6691
 1120SOL     OW 4043   4.280   1.878   1.090  0.0271  0.2470  0.1557
 1120SOL    HW1 4044   4.234   1.809   1.043 -0.3265 -0.8024  1.9524
 1120SOL    HW2 4045   4.366   1.881   1.049 -0.7825  0.5841 -1.6665
 1121SOL     OW 4046   3.240   6.038   1.784 -0.5691 -0.0661 -0.1108
 1121SOL    HW1 4047   3.297   5.961   1.787  0.2180  0.5066 -0.2101
 1121SOL    HW2 4048   3.216   6.054   1.875 -0.2825 -0.0950 -0.0312
 1122SOL     OW 4049   1.816   4.583   4.002  0.2036  0.4597 -0.2920
 1122SOL    HW1 4050   1.906   4.599   4.034  0.5830 -2.7917  0.6141
 1122SOL    HW2 4051   1.828   4.534   3.921 -0.8494  2.5800 -1.8280
 1123SOL     OW 4052   5.665   1.786   3.381 -0.2653 -0.3748 -0.5031
 1123SOL    HW1 4053   5.639   1.712   3.326  0.8805 -2.1353  1.2118
 1123SOL    HW2 4054   5.760   1.795   3.366 -0.3465  0.6141 -0.5110
 1124SOL     OW 4055   0.326   1.574   5.775 -0.2522 -0.0803  0.0985
 1124SOL    HW1 4056   0.240   1.532   5.776 -0.9293  1.2208 -0.9186
 1124SOL    HW2 4057   0.309   1.665   5.798  1.3189 -0.4590  3.3511
 1125SOL     OW 4058   3.467   6.386   1.977 -0.3620  0.1491 -0.3827
 1125SOL    HW1 4059   3.546   6.333   1.990 -0.3168  0.2116 -0.4047
 1125SOL    HW2 4060   3.414   6.369   2.055  0.9077  2.3141  1.0617
 1126SOL     OW 4061   5.988   1.355   4.274 -0.2738 -0.0049  0.6940
 1126SOL    HW1 4062   5.899   1.339   4.242  0.0872  1.7466 -1.3830
 1126SOL    HW2 4063   6.037   1.277   4.250 -0.6678  0.1086 -0.5237
 1127SOL     OW 4064   6.549   4.808   6.766 -0.5107 -0.2338  0.3366
 1127SOL    HW1 4065   6.566   4.720   6.800 -0.9585 -0.7537 -0.7591
 1127SOL    HW2 4066   6.456   4.806   6.741  0.3739 -0.8132 -3.5223
 1128SOL     OW 4067   3.805   1.786   4.723 -0.0446  0.6113 -0.5455
 1128SOL    HW1 4068   3.840   1.719   4.664 -1.2869 -0.4983 -0.0813
 1128SOL    HW2 4069   3.711   1.788   4.705 -0.5797 -0.1810  1.6943
 1129SOL     OW 4070   6.175   0.576   2.765  0.3608  0.3335  0.2054
 1129SOL    HW1 4071   6.088   0.613   2.776  0.2107  1.5007 -3.4306
 1129SOL    HW2 4072   6.234   0.651   2.780  0.6185  0.0455  0.6563
 1130SOL     OW 4073   3.330   4.821   5.727 -0.3954  0.1200 -0.0493
 1130SOL    HW1 4074   3.345   4.861   5.641 -0.1747  0.4568  0.1429
 1130SOL    HW2 4075   3.409   4.843   5.777  0.2048 -1.4221 -0.2641
 1131SOL     OW 4076   4.022   5.506   2.327 -0.3466  0.8019 -0.3136
 1131SOL    HW1 4077   4.108   5.545   2.312  0.1351 -0.1148 -0.0189
 1131SOL    HW2 4078   3.991   5.548   2.408  0.5943 -0.0958  0.5444
 1132SOL     OW 4079   1.082   5.541   6.581 -0.2245 -0.0699  0.2073
 1132SOL    HW1 4080   1.045   5.582   6.503 -0.7297 -0.7216  0.0955
 1132SOL    HW2 4081   1.031   5.576   6.654  0.7292  1.1048  0.3325
 1133SOL     OW 4082   5.762   4.927   1.748  0.2565  0.3724 -0.5498
 1133SOL    HW1 4083   5.774   4.992   1.816 -0.8311 -1.3934  1.4567
 1133SOL    HW2 4084   5.849   4.890   1.733  0.1649 -1.1375  2.0219
 1134SOL     OW 4085   5.915   0.337   2.645 -0.3237 -0.5329 -0.2165
 1134SOL    HW1 4086   5.837   0.388   2.665  0.6534  0.5047  1.1897
 1134SOL    HW2 4087   5.885   0.247   2.641 -1.8106 -0.0355 -1.0827
 1135SOL     OW 4088   2.726   5.301   3.396  0.1243  0.3645  0.4673
 1135SOL    HW1 4089   2.721   5.245   3.474 -1.4659  0.2038  0.2999
 1135SOL    HW2 4090   2.767   5.245   3.329  2.4534  0.8510  1.4301
 1136SOL     OW 4091   6.316   1.714   6.633  0.0813 -0.4148  0.2234
 1136SOL    HW1 4092   6.345   1.673   6.715  1.2674 -0.0493  0.0025
 1136SOL    HW2 4093   6.295   1.804   6.658  1.1871 -0.0790  0.0049
 1137SOL     OW 4094   5.421   6.210   4.677  0.1249 -0.5417 -0.2298
 1137SOL    HW1 4095   5.515   6.212   4.658  0.2891 -0.4336  0.5747
 1137SOL    HW2 4096   5.384   6.279   4.622  0.7024  0.2973  0.4156
 1138SOL     OW 4097   1.217   6.526   5.645  0.0268  0.8904  0.1232
 1138SOL    HW1 4098   1.131   6.567   5.651 -0.1650  0.7012 -1.2125
 1138SOL    HW2 4099   1.237   6.525   5.552  1.0269 -0.0003  0.3346
 1139SOL     OW 4100   4.124   4.233   2.771  0.3084 -0.2513 -0.0580
 1139SOL    HW1 4101   4.061   4.184   2.719  0.6684 -0.3548 -0.4008
 1139SOL    HW2 4102   4.153   4.304   2.714  0.8147 -0.4513 -0.0534
 1140SOL     OW 4103   2.957   5.473   0.731  0.0315 -0.8893  0.1870
 1140SOL    HW1 4104   2.993   5.393   0.771  0.7072 -0.4935  0.3981
 1140SOL    HW2 4105   2.898   5.441   0.662  1.2976 -1.5893 -0.6294
 1141SOL     OW 4106   1.622   1.973   3.633  0.2619 -0.0530 -0.3251
 1141SOL    HW1 4107   1.632   1.975   3.728  3.0315  0.8131 -0.5702
 1141SOL    HW2 4108   1.660   1.889   3.607  1.4713  0.6365 -0.8245
 1142SOL     OW 4109   2.764   3.597   2.279 -0.6075  0.3715  0.3785
 1142SOL    HW1 4110   2.845   3.645   2.293 -1.4787  1.8774  0.5889
 1142SOL    HW2 4111   2.758   3.587   2.184  0.9215 -1.8349  0.4562
 1143SOL     OW 4112   5.046   6.424   1.228 -0.2912 -0.4951  0.1594
 1143SOL    HW1 4113   5.025   6.514   1.205  1.7069 -0.3166 -1.1049
 1143SOL    HW2 4114   5.141   6.419   1.224 -0.3974 -3.4150 -2.9092
 1144SOL     OW 4115   0.256   6.826   3.215 -0.0805 -0.5804  0.5315
 1144SOL    HW1 4116   0.304   6.782   3.285 -1.6350 -2.0703  0.7170
 1144SOL    HW2 4117   0.173   6.778   3.208  0.1897 -0.8039 -2.6454
 1145SOL     OW 4118   3.500   1.359   0.471 -0.2793 -0.8588 -0.4257
 1145SOL    HW1 4119   3.544   1.398   0.396 -2.8365  2.7542 -0.2980
 1145SOL    HW2 4120   3.567   1.356   0.539  0.8622  0.4609 -1.4440
 1146SOL     OW 4121   6.479   3.624   0.686 -0.4654 -0.1510  0.1555
 1146SOL    HW1 4122   6.403   3.649   0.738 -0.6171 -1.0070  0.3634
 1146SOL    HW2 4123   6.543   3.693   0.703 -0.6240 -0.2509  1.2341
 1147SOL     OW 4124   4.336   3.098   1.785 -0.5290  0.0776  0.3908
 1147SOL    HW1 4125   4.243   3.088   1.805 -0.8843  1.5855 -0.4107
 1147SOL    HW2 4126   4.351   3.192   1.785  0.6161 -0.0689 -1.2221
 1148SOL     OW 4127   5.928   4.107   4.750  0.1509 -0.1911 -0.3906
 1148SOL    HW1 4128   5.885   4.104   4.665  0.0300 -3.1218 -0.3048
 1148SOL    HW2 4129   5.865   4.152   4.807  0.0150  1.3151 -1.6658
 1149SOL     OW 4130   6.476   4.673   3.538  0.0352  0.1940 -0.2767
 1149SOL    HW1 4131   6.516   4.630   3.462 -1.0615 -1.6784  0.1254
 1149SOL    HW2 4132   6.401   4.720   3.502 -1.0082 -1.4083 -0.3258
 1150SOL     OW 4133   4.350   2.823   4.774 -0.3171  0.1476  0.4317
 1150SOL    HW1 4134   4.406   2.793   4.702  1.7730  1.2430  1.5066
 1150SOL    HW2 4135   4.336   2.916   4.756 -1.9113 -0.1142  0.1587
 1151SOL     OW 4136   0.395   2.332   4.191  0.4086  0.4490 -0.0322
 1151SOL    HW1 4137   0.478   2.343   4.238  0.4687 -0.9916  0.2441
 1151SOL    HW2 4138   0.345   2.270   4.244 -0.8184  1.2139 -0.2549
 1152SOL     OW 4139   3.708   2.626   5.453  0.0696 -0.1636 -0.1445
 1152SOL    HW1 4140   3.714   2.532   5.435 -0.8770 -0.2748  0.0487
 1152SOL    HW2 4141   3.752   2.668   5.379  0.2696 -0.7497 -0.3638
 1153SOL     OW 4142   2.769   6.718   3.925  0.6361  0.0137 -0.0719
 1153SOL    HW1 4143   2.780   6.727   3.830 -0.8576  0.7478 -0.1981
 1153SOL    HW2 4144   2.825   6.644   3.948  0.5399 -0.5910 -1.6290
 1154SOL     OW 4145   6.666   0.454   6.451  0.6558 -0.3671 -0.0938
 1154SOL    HW1 4146   6.690   0.531   6.400 -0.7997  0.9027  1.0712
 1154SOL    HW2 4147   6.580   0.429   6.419  0.3910 -0.4826  0.6895
 1155SOL     OW 4148   0.978   2.117   5.083  0.1440  0.1590 -0.1488
 1155SOL    HW1 4149   0.988   2.092   4.991 -0.2901  0.0504 -0.1686
 1155SOL    HW2 4150   1.051   2.074   5.127  2.1175  2.5327 -0.8658
 1156SOL     OW 4151   5.439   6.799   0.161 -0.1397 -0.1599  0.4403
 1156SOL    HW1 4152   5.368   6.814   0.223 -0.7144 -0.1528 -0.2063
 1156SOL    HW2 4153   5.517   6.834   0.204 -0.3010 -1.2491  1.6697
 1157SOL     OW 4154   2.553   2.236   4.425  0.2405 -0.0949 -0.1134
 1157SOL    HW1 4155   2.484   2.256   4.362 -0.3134 -2.5690 -0.3725
 1157SOL    HW2 4156   2.510   2.242   4.511  0.4175  0.9672 -0.0782
 1158SOL     OW 4157   3.724   5.827   2.982  0.4099 -0.4977 -0.3700
 1158SOL    HW1 4158   3.667   5.818   3.059  1.9121  1.3733  1.0883
 1158SOL    HW2 4159   3.798   5.878   3.014  1.2675  0.0647 -3.0215
 1159SOL     OW 4160   4.661   6.388   1.338  0.5224  0.8263 -0.2744
 1159SOL    HW1 4161   4.573   6.402   1.302 -0.0296  1.6495  1.2822
 1159SOL    HW2 4162   4.685   6.300   1.309 -1.4001  0.0317  0.3788
 1160SOL     OW 4163   4.274   3.135   6.785  0.0774  0.0698 -0.3223
 1160SOL    HW1 4164   4.360   3.174   6.795 -0.2355  0.7257 -0.1571
 1160SOL    HW2 4165   4.218   3.206   6.754 -0.2131 -0.5604 -1.3040
 1161SOL     OW 4166   0.736   6.218   1.883 -0.3975 -0.8309  0.5685
 1161SOL    HW1 4167   0.731   6.244   1.975 -0.8691  1.1519  0.0308
 1161SOL    HW2 4168   0.760   6.125   1.886 -0.7235 -0.9057  2.6801
 1162SOL     OW 4169   6.688   6.896   3.415  0.4584  0.5951 -1.2259
 1162SOL    HW1 4170   6.627   6.832   3.377  0.9294 -0.0241 -0.9571
 1162SOL    HW2 4171   6.692   6.966   3.350  1.1924 -0.4155 -2.3115
 1163SOL     OW 4172   0.374   0.098   4.452  0.1939  0.9420  0.1928
 1163SOL    HW1 4173   0.288   0.061   4.433 -0.2754  2.0488  0.0846
 1163SOL    HW2 4174   0.418   0.032   4.506  0.0686 -0.5553 -1.4409
 1164SOL     OW 4175   3.117   0.818   4.310  0.3544 -0.1960  0.1269
 1164SOL    HW1 4176   3.108   0.739   4.257  0.4597  0.5418 -1.0399
 1164SOL    HW2 4177   3.193   0.863   4.273  1.1223 -0.2036  1.6530
 1165SOL     OW 4178   0.933   1.247   6.639 -0.4677 -0.0902  0.1662
 1165SOL    HW1 4179   1.002   1.192   6.675  1.5844  2.3381  0.2092
 1165SOL    HW2 4180   0.877   1.267   6.714 -0.5796 -1.1489  0.3772
 1166SOL     OW 4181   1.416   1.198   2.638  0.0059  0.3879  0.3951
 1166SOL    HW1 4182   1.445   1.265   2.701 -0.2170  0.1947  0.7082
 1166SOL    HW2 4183   1.322   1.191   2.653 -0.0214  0.2271  0.1448
 1167SOL     OW 4184   6.545   4.448   4.449  0.0225 -0.3944  0.1223
 1167SOL    HW1 4185   6.566   4.431   4.541  0.5764  1.4502  0.3866
 1167SOL    HW2 4186   6.630   4.454   4.406  0.0006  2.5620  0.2957
 1168SOL     OW 4187   2.055   0.492   4.014 -0.3713 -0.6184 -0.4196
 1168SOL    HW1 4188   2.109   0.465   4.088  0.4426 -0.2897 -0.8758
 1168SOL    HW2 4189   2.107   0.471   3.937 -0.9248 -0.3482 -0.8795
 1169SOL     OW 4190   2.687   5.433   5.205  0.1716  0.0148  0.0391
 1169SOL    HW1 4191   2.769   5.397   5.239  0.3236 -0.4925 -0.8498
 1169SOL    HW2 4192   2.683   5.403   5.115 -0.2380  1.3324 -0.4060
 1170SOL     OW 4193   6.187   5.442   6.535 -0.3938  1.1424 -0.1976
 1170SOL    HW1 4194   6.107   5.463   6.486 -1.4244  1.2076  1.4179
 1170SOL    HW2 4195   6.156   5.428   6.625  1.4061  1.0098  0.4326
 1171SOL     OW 4196   6.681   3.782   1.003  0.6401  0.0686  0.0456
 1171SOL    HW1 4197   6.734   3.770   1.082  1.6738 -1.3354 -0.8167
 1171SOL    HW2 4198   6.683   3.697   0.959  1.0479  1.0889 -2.0482
 1172SOL     OW 4199   5.949   3.276   6.893  0.0321 -0.2165  0.3834
 1172SOL    HW1 4200   6.035   3.316   6.874 -0.0910  0.4355  1.1372
 1172SOL    HW2 4201   5.889   3.351   6.898 -0.4125 -0.5924  0.7424
 1173SOL     OW 4202   0.325   0.524   5.726 -0.4668  0.1409  0.1509
 1173SOL    HW1 4203   0.296   0.571   5.648 -0.4015  0.2144  0.1698
 1173SOL    HW2 4204   0.287   0.574   5.799 -0.9459 -0.2176  0.1510
 1174SOL     OW 4205   6.695   4.911   3.506  0.1798  0.2617 -0.7186
 1174SOL    HW1 4206   6.615   4.859   3.518  0.5361 -0.1257  0.0241
 1174SOL    HW2 4207   6.737   4.873   3.428  0.1938 -0.2547 -0.4654
 1175SOL     OW 4208   3.293   2.247   4.425 -0.0470 -0.3415  0.0526
 1175SOL    HW1 4209   3.357   2.267   4.356  0.9969  1.2619  1.3955
 1175SOL    HW2 4210   3.230   2.319   4.420 -0.3098 -0.5476  0.4019
 1176SOL     OW 4211   4.690   4.623   3.298  0.5623 -0.0468  0.2144
 1176SOL    HW1 4212   4.697   4.654   3.388  0.8263 -1.4456  0.7055
 1176SOL    HW2 4213   4.624   4.679   3.258  0.1750  0.3646  1.3856
 1177SOL     OW 4214   0.624   4.982   3.785 -0.0170 -0.0715  0.2009
 1177SOL    HW1 4215   0.712   4.962   3.817 -0.7945 -1.4578  1.6129
 1177SOL    HW2 4216   0.607   5.071   3.815  0.9735  0.2862 -0.2698
 1178SOL     OW 4217   0.158   5.434   5.814  0.0851  0.0461 -0.3322
 1178SOL    HW1 4218   0.245   5.402   5.790 -0.7193 -2.4911 -0.1030
 1178SOL    HW2 4219   0.147   5.407   5.905 -0.2440  2.0504  0.2772
 1179SOL     OW 4220   1.787   5.096   4.540  0.0068 -0.2777  0.0414
 1179SOL    HW1 4221   1.829   5.108   4.455 -0.2761  0.9422  0.0683
 1179SOL    HW2 4222   1.853   5.049   4.592  2.4853  3.6888  0.8783
 1180SOL     OW 4223   2.815   0.569   6.579 -0.5242  0.3727  0.0510
 1180SOL    HW1 4224   2.770   0.486   6.596 -0.9454  0.5916 -0.0028
 1180SOL    HW2 4225   2.880   0.547   6.513 -1.5155  0.3615 -0.9448
 1181SOL     OW 4226   1.385   6.405   6.371  0.1762  0.5053  0.3576
 1181SOL    HW1 4227   1.460   6.446   6.415 -1.3937  2.1741  1.6303
 1181SOL    HW2 4228   1.379   6.318   6.410  1.7830  0.0885 -0.2271
 1182SOL     OW 4229   4.157   4.844   5.834  0.0770  0.2394  0.4681
 1182SOL    HW1 4230   4.093   4.781   5.868 -0.6492  0.0020 -1.2388
 1182SOL    HW2 4231   4.107   4.926   5.824 -0.0680 -0.0117 -1.1053
 1183SOL     OW 4232   0.961   6.535   1.591 -0.2497 -0.3127  0.1479
 1183SOL    HW1 4233   0.996   6.622   1.569  0.8430 -0.1165  2.4279
 1183SOL    HW2 4234   1.037   6.486   1.623 -1.2315 -1.4495  0.8092
 1184SOL     OW 4235   6.246   6.178   6.327  0.1871 -0.1378  0.5780
 1184SOL    HW1 4236   6.328   6.216   6.297  0.2416 -0.5928  0.1333
 1184SOL    HW2 4237   6.234   6.214   6.415  1.1493 -0.4914  0.8746
 1185SOL     OW 4238   4.040   1.713   1.406  0.1291 -0.1010 -0.4731
 1185SOL    HW1 4239   4.114   1.771   1.388 -0.0076 -0.2383 -1.5794
 1185SOL    HW2 4240   4.058   1.678   1.493  0.5990  1.0103 -0.0985
 1186SOL     OW 4241   3.067   5.954   2.981  0.7170 -0.3276  0.0579
 1186SOL    HW1 4242   3.143   5.896   2.982 -0.4254 -1.8776  0.1491
 1186SOL    HW2 4243   2.992   5.895   2.973 -0.4947  1.1432  0.2175
 1187SOL     OW 4244   0.783   5.937   1.916  0.3401 -0.1874 -0.3750
 1187SOL    HW1 4245   0.732   5.901   1.989  1.2780 -1.0500 -0.1252
 1187SOL    HW2 4246   0.855   5.876   1.904  0.1377 -0.1434 -2.1347
 1188SOL     OW 4247   2.755   4.908   2.022  0.0122 -0.1161 -0.5259
 1188SOL    HW1 4248   2.692   4.968   1.983 -0.2815 -0.1829 -0.1629
 1188SOL    HW2 4249   2.735   4.823   1.982 -1.0166 -0.4130  0.5538
 1189SOL     OW 4250   1.055   1.742   1.226 -0.3483  0.4039  0.0791
 1189SOL    HW1 4251   1.115   1.692   1.282 -0.9774 -1.5148 -0.8860
 1189SOL    HW2 4252   0.991   1.779   1.287 -0.8047 -1.3392  0.7139
 1190SOL     OW 4253   6.289   5.058   0.531  0.6585  0.6342  0.1561
 1190SOL    HW1 4254   6.308   5.140   0.485  0.7993  0.0848 -0.8008
 1190SOL    HW2 4255   6.294   4.991   0.463  0.0331 -0.1085  0.8201
 1191SOL     OW 4256   6.307   2.145   2.288  0.0883 -0.0603  0.5565
 1191SOL    HW1 4257   6.387   2.097   2.264  0.9798  0.7312  1.8319
 1191SOL    HW2 4258   6.238   2.099   2.241  1.2987 -0.6695 -0.7270
 1192SOL     OW 4259   5.857   2.692   6.877 -0.5674  0.2073 -0.5174
 1192SOL    HW1 4260   5.931   2.646   6.917 -1.7884 -1.7415 -0.3587
 1192SOL    HW2 4261   5.897   2.750   6.813  1.2167  0.7556  0.9941
 1193SOL     OW 4262   5.355   4.600   5.603 -0.2302 -0.5465  0.0739
 1193SOL    HW1 4263   5.319   4.645   5.679 -1.8563  0.5789 -1.2929
 1193SOL    HW2 4264   5.282   4.593   5.542  0.9737 -1.5913 -1.3228
 1194SOL     OW 4265   4.336   1.936   3.651  0.5866  0.9863  0.2634
 1194SOL    HW1 4266   4.342   1.858   3.595  0.0668  1.0145  0.1697
 1194SOL    HW2 4267   4.319   1.902   3.738  2.0183  0.9043  0.5383
 1195SOL     OW 4268   1.627   2.271   4.242 -0.2695 -0.0393 -0.5402
 1195SOL    HW1 4269   1.614   2.193   4.189  1.9795 -0.2208 -0.9150
 1195SOL    HW2 4270   1.622   2.343   4.179  0.1178 -0.0799 -0.6196
 1196SOL     OW 4271   6.203   1.101   6.117  0.4813 -0.0176  0.0060
 1196SOL    HW1 4272   6.287   1.148   6.115  0.0824  0.6860 -0.5752
 1196SOL    HW2 4273   6.138   1.166   6.090 -0.1923 -0.6924 -0.0339
 1197SOL     OW 4274   2.407   2.685   1.917  0.0757  0.1990  0.2012
 1197SOL    HW1 4275   2.392   2.739   1.995 -0.2155  2.7612 -1.4945
 1197SOL    HW2 4276   2.486   2.722   1.878 -0.0284 -0.7349 -0.9424
 1198SOL     OW 4277   5.452   2.494   4.374 -0.3470  0.0567 -0.1504
 1198SOL    HW1 4278   5.503   2.414   4.364  1.5888  1.1484  0.4353
 1198SOL    HW2 4279   5.368   2.466   4.409 -0.8081 -1.9864 -2.5908
 1199SOL     OW 4280   4.955   5.319   5.998  0.7815 -0.0262 -0.4542
 1199SOL    HW1 4281   4.912   5.280   6.075 -0.6476  0.5791 -0.8956
 1199SOL    HW2 4282   5.035   5.357   6.033  0.5936 -0.5260  0.5824
 1200SOL     OW 4283   6.702   3.725   3.488  0.2511 -0.1388  0.0387
 1200SOL    HW1 4284   6.683   3.789   3.420 -0.2679  1.0502  1.2755
 1200SOL    HW2 4285   6.755   3.659   3.443 -0.6709  0.2238 -1.6920
 1201SOL     OW 4286   2.031   6.122   5.526 -0.4528 -0.1138  0.2480
 1201SOL    HW1 4287   2.111   6.172   5.508 -1.0210  1.9978  2.9602
 1201SOL    HW2 4288   2.063   6.042   5.568  0.3561 -1.3668 -2.4891
 1202SOL     OW 4289   4.873   5.582   6.770  0.4255 -0.2720 -0.3876
 1202SOL    HW1 4290   4.851   5.595   6.678 -1.8132 -1.1576 -0.0530
 1202SOL    HW2 4291   4.964   5.553   6.769  0.6934  0.4735 -2.2474
 1203SOL     OW 4292   3.961   2.900   0.295  0.3775 -0.0848  0.0895
 1203SOL    HW1 4293   3.938   2.816   0.255 -2.3120  0.3294  0.5954
 1203SOL    HW2 4294   3.967   2.880   0.389  0.5546  0.1555  0.1304
 1204SOL     OW 4295   3.817   2.353   2.338  0.2634  0.2762 -0.2275
 1204SOL    HW1 4296   3.807   2.305   2.255 -3.7141 -0.8849  0.7000
 1204SOL    HW2 4297   3.763   2.431   2.327 -1.4065 -0.5340  1.6051
 1205SOL     OW 4298   5.071   4.360   2.082  0.1641  0.2126 -0.4082
 1205SOL    HW1 4299   5.098   4.360   1.990 -0.3084 -1.3274 -0.5837
 1205SOL    HW2 4300   5.097   4.273   2.114  1.5140  1.1919  1.2958
 1206SOL     OW 4301   3.295   3.249   2.561 -0.4815  0.0758  0.2749
 1206SOL    HW1 4302   3.373   3.281   2.516 -0.3595  0.6981  0.9000
 1206SOL    HW2 4303   3.239   3.216   2.491 -0.5351  1.5097 -0.4064
 1207SOL     OW 4304   6.154   5.936   6.413 -0.4275  0.0818 -0.4849
 1207SOL    HW1 4305   6.193   6.016   6.376 -0.4058 -0.1148 -0.8883
 1207SOL    HW2 4306   6.146   5.877   6.338 -1.4654  0.1029 -0.4004
 1208SOL     OW 4307   2.204   1.391   2.263 -0.0538 -0.0204  0.4448
 1208SOL    HW1 4308   2.298   1.381   2.253 -0.0769  0.1173  0.0683
 1208SOL    HW2 4309   2.167   1.346   2.187 -0.2976 -0.1723  0.6492
 1209SOL     OW 4310   5.054   1.675   3.484 -0.1845 -0.6061 -0.0114
 1209SOL    HW1 4311   4.959   1.677   3.470  0.0394 -2.4920 -2.6077
 1209SOL    HW2 4312   5.066   1.712   3.571 -3.2627  0.0054  0.2865
 1210SOL     OW 4313   6.881   1.813   4.838  0.3444  0.2557 -0.1064
 1210SOL    HW1 4314   6.893   1.908   4.835  1.5786  0.1603  0.9034
 1210SOL    HW2 4315   6.880   1.793   4.932 -2.2298 -0.4779 -0.2235
 1211SOL     OW 4316   1.401   0.573   4.028 -0.5323  0.2375 -0.0426
 1211SOL    HW1 4317   1.485   0.566   3.981 -0.0487 -1.2817  0.9790
 1211SOL    HW2 4318   1.353   0.641   3.980  0.9543  0.5787 -1.1435
 1212SOL     OW 4319   0.083   4.706   2.520 -0.1137 -0.0232 -0.1730
 1212SOL    HW1 4320   0.021   4.691   2.449 -1.6184  0.7562  0.9311
 1212SOL    HW2 4321   0.030   4.705   2.599  1.2495  0.8337  0.7986
 1213SOL     OW 4322   0.794   0.910   0.100  0.1257  0.2625 -1.0203
 1213SOL    HW1 4323   0.761   0.838   0.047  0.1163  1.4587 -2.7228
 1213SOL    HW2 4324   0.721   0.972   0.106  0.5463  0.7451 -0.7358
 1214SOL     OW 4325   3.602   3.067   6.006 -0.3736 -0.1578  0.1096
 1214SOL    HW1 4326   3.509   3.070   5.985 -0.5885  0.4977  1.1070
 1214SOL    HW2 4327   3.612   3.128   6.079  0.9855  0.4424 -0.5479
 1215SOL     OW 4328   2.352   3.606   4.135 -0.1075  0.7929 -0.1213
 1215SOL    HW1 4329   2.402   3.686   4.155  0.1369  0.5568  0.2239
 1215SOL    HW2 4330   2.314   3.581   4.219  1.2570 -0.4408  0.1723
 1216SOL     OW 4331   4.112   4.269   3.062 -0.1840 -0.5674 -0.5293
 1216SOL    HW1 4332   4.131   4.277   2.969 -1.0884  1.5840 -0.6031
 1216SOL    HW2 4333   4.066   4.350   3.084 -0.0214 -1.0197  1.7853
 1217SOL     OW 4334   5.918   2.003   0.554  0.5849 -0.1984  0.0298
 1217SOL    HW1 4335   5.890   2.003   0.645  0.4061  0.0606 -0.0239
 1217SOL    HW2 4336   5.920   2.095   0.529  0.0303 -0.3022 -0.4115
 1218SOL     OW 4337   0.941   4.043   0.155 -0.1682  0.3435  0.1429
 1218SOL    HW1 4338   0.930   4.066   0.248  0.0108 -1.6577  0.7082
 1218SOL    HW2 4339   0.869   3.983   0.137  0.5223 -0.2567 -0.6648
 1219SOL     OW 4340   3.214   5.734   3.568  0.2748 -0.4776  0.1488
 1219SOL    HW1 4341   3.268   5.795   3.617 -0.0846  0.2220 -0.3004
 1219SOL    HW2 4342   3.261   5.651   3.572  1.9893  0.3579 -1.2041
 1220SOL     OW 4343   1.529   3.261   1.652  0.0366  0.0640 -0.3921
 1220SOL    HW1 4344   1.499   3.226   1.736  0.4699 -3.0633 -1.4220
 1220SOL    HW2 4345   1.619   3.229   1.644  0.4788  1.4762 -1.4620
 1221SOL     OW 4346   3.124   4.858   4.724 -0.3346  0.2753  0.4104
 1221SOL    HW1 4347   3.121   4.763   4.730 -0.1228  0.2599  0.2688
 1221SOL    HW2 4348   3.188   4.884   4.791  2.4147  0.0736 -1.9576
 1222SOL     OW 4349   4.143   4.003   2.524  0.0001  0.8186 -0.2965
 1222SOL    HW1 4350   4.169   4.002   2.616 -1.1328  0.3509  0.0326
 1222SOL    HW2 4351   4.163   3.915   2.491 -2.2675 -0.0036  0.3177
 1223SOL     OW 4352   3.466   1.780   1.628 -0.4134 -0.3154 -0.0801
 1223SOL    HW1 4353   3.450   1.874   1.623 -0.1264 -0.1353  1.7307
 1223SOL    HW2 4354   3.381   1.740   1.608 -0.4053  0.2711 -1.4336
 1224SOL     OW 4355   2.207   4.305   6.371  0.2270  0.1051 -0.5239
 1224SOL    HW1 4356   2.225   4.316   6.464  3.3648 -0.7269 -0.8988
 1224SOL    HW2 4357   2.214   4.211   6.356 -1.3572  0.1008 -1.4490
 1225SOL     OW 4358   0.283   2.010   4.932  0.0025 -0.0879 -0.2947
 1225SOL    HW1 4359   0.216   2.016   5.000  0.7124 -1.2184  0.5477
 1225SOL    HW2 4360   0.234   2.007   4.850 -1.0825 -1.9042  0.3540
 1226SOL     OW 4361   0.723   4.287   2.761  0.3603 -0.4069 -0.1126
 1226SOL    HW1 4362   0.712   4.236   2.841  1.6526 -1.1331 -0.3725
 1226SOL    HW2 4363   0.809   4.261   2.727  0.7037  1.3178 -0.7015
 1227SOL     OW 4364   3.033   0.696   2.475  0.3843 -0.9844 -0.1316
 1227SOL    HW1 4365   3.083   0.772   2.442  1.0130 -1.1862  0.3372
 1227SOL    HW2 4366   2.945   0.708   2.439  0.1370  0.6211  0.9440
 1228SOL     OW 4367   0.311   5.517   1.640  0.4780  0.3276  0.6752
 1228SOL    HW1 4368   0.346   5.497   1.727  0.0746  3.2444  1.6279
 1228SOL    HW2 4369   0.343   5.605   1.621 -0.4650  0.2605 -1.6170
 1229SOL     OW 4370   4.417   4.840   5.950  0.1436 -0.1980  0.2634
 1229SOL    HW1 4371   4.449   4.756   5.916  1.6800  1.1682 -1.9326
 1229SOL    HW2 4372   4.325   4.843   5.923  0.3581 -0.7406 -0.5599
 1230SOL     OW 4373   1.066   1.818   6.726  0.6299 -0.5242  0.4644
 1230SOL    HW1 4374   1.154   1.792   6.698  0.7491 -0.4264  0.7432
 1230SOL    HW2 4375   1.024   1.849   6.646  0.9558 -0.2797  0.3834
 1231SOL     OW 4376   0.227   3.629   4.049  0.3062  0.6942 -0.0100
 1231SOL    HW1 4377   0.135   3.634   4.023  0.5116 -2.3045 -1.7966
 1231SOL    HW2 4378   0.266   3.710   4.016 -1.3640  1.3175 -0.5868
 1232SOL     OW 4379   3.734   1.085   3.641 -0.6595  0.3998 -0.6273
 1232SOL    HW1 4380   3.675   1.161   3.642  0.5002  1.3449  0.3159
 1232SOL    HW2 4381   3.799   1.106   3.574  0.1642  0.6643  0.2345
 1233SOL     OW 4382   5.850   4.811   6.722 -0.1002  0.5046 -0.0886
 1233SOL    HW1 4383   5.861   4.803   6.627 -0.8196  2.0769 -0.3368
 1233SOL    HW2 4384   5.903   4.740   6.758  0.5624  0.1586 -1.6467
 1234SOL     OW 4385   6.329   5.035   0.255 -0.0187 -0.0198 -0.2198
 1234SOL    HW1 4386   6.397   4.968   0.240 -1.0061 -0.9429 -0.6985
 1234SOL    HW2 4387   6.375   5.118   0.243  1.4805 -0.5445  1.3513
 1235SOL     OW 4388   6.527   2.115   3.631  0.0409 -0.1997  0.0053
 1235SOL    HW1 4389   6.576   2.089   3.709  1.5147  0.6243 -0.5972
 1235SOL    HW2 4390   6.594   2.124   3.563 -1.0812  0.1193 -1.0902
 1236SOL     OW 4391   3.731   4.070   1.565 -0.0094 -0.0733  0.3290
 1236SOL    HW1 4392   3.826   4.064   1.559  0.0598 -1.9688  2.1106
 1236SOL    HW2 4393   3.716   4.148   1.619  0.5578 -0.0107  0.4074
 1237SOL     OW 4394   1.953   4.547   1.285 -0.2621  0.0910  0.2450
 1237SOL    HW1 4395   1.888   4.617   1.281 -0.8191 -0.3251  1.5327
 1237SOL    HW2 4396   1.903   4.466   1.292  0.3623 -0.2399  1.2413
 1238SOL     OW 4397   5.462   6.376   5.131  0.3309  0.0095 -0.8083
 1238SOL    HW1 4398   5.423   6.357   5.046  0.4283  0.8321 -1.0424
 1238SOL    HW2 4399   5.395   6.427   5.177  0.6593  0.3918 -0.7538
 1239SOL     OW 4400   5.129   4.081   2.086  0.0571 -0.2286  0.3167
 1239SOL    HW1 4401   5.039   4.049   2.077 -0.3720  1.4093 -2.2383
 1239SOL    HW2 4402   5.182   4.019   2.035  0.3555 -0.8399  1.3179
 1240SOL     OW 4403   6.173   2.909   0.469 -0.3118 -0.0628 -0.0210
 1240SOL    HW1 4404   6.118   2.902   0.547 -0.1139 -0.3855  0.0951
 1240SOL    HW2 4405   6.224   2.827   0.469 -0.2027  0.0037 -0.4045
 1241SOL     OW 4406   2.918   4.002   0.215 -0.5323  0.0138  0.7539
 1241SOL    HW1 4407   2.922   3.986   0.121 -2.0101  1.0088  0.4831
 1241SOL    HW2 4408   2.893   3.918   0.253  0.5220 -0.5112  0.3292
 1242SOL     OW 4409   5.064   4.553   5.966 -0.0719  0.0613 -0.2525
 1242SOL    HW1 4410   5.033   4.497   6.037 -0.7928  0.6326 -0.0941
 1242SOL    HW2 4411   5.017   4.636   5.980 -0.4357  0.0942 -1.5516
 1243SOL     OW 4412   4.735   0.626   1.757  0.5988  0.2619 -0.3084
 1243SOL    HW1 4413   4.754   0.683   1.832 -0.5023 -0.1303  0.2849
 1243SOL    HW2 4414   4.652   0.658   1.722  0.8219  0.0840 -1.0322
 1244SOL     OW 4415   1.746   1.610   0.915 -0.0318  0.1707  0.4549
 1244SOL    HW1 4416   1.816   1.675   0.913  0.8643 -0.7620  0.4472
 1244SOL    HW2 4417   1.778   1.543   0.975 -0.7464 -0.4597  0.1451
 1245SOL     OW 4418   5.863   3.026   1.751  0.0966 -0.2455  0.0632
 1245SOL    HW1 4419   5.868   3.092   1.681 -0.3444 -0.8407 -0.5405
 1245SOL    HW2 4420   5.866   2.942   1.705  0.7368 -0.6522  0.8341
 1246SOL     OW 4421   2.798   5.754   1.738  0.7099  0.3869 -0.3608
 1246SOL    HW1 4422   2.733   5.813   1.699  1.3282  1.9449  0.8640
 1246SOL    HW2 4423   2.772   5.748   1.830  1.3228 -0.3561 -0.2303
 1247SOL     OW 4424   1.179   5.537   2.824  0.2620 -0.4045  0.6272
 1247SOL    HW1 4425   1.266   5.517   2.857 -0.1799 -2.8322  0.4877
 1247SOL    HW2 4426   1.187   5.528   2.729 -0.2878 -1.2930  0.6615
 1248SOL     OW 4427   2.701   5.756   5.147  0.1548 -0.0082  0.2853
 1248SOL    HW1 4428   2.708   5.731   5.239 -1.4891 -0.6767  0.2717
 1248SOL    HW2 4429   2.679   5.674   5.102  0.1341  0.4670 -0.5845
 1249SOL     OW 4430   3.479   2.266   1.148  0.0976 -0.5343  0.0140
 1249SOL    HW1 4431   3.486   2.176   1.180  0.3241 -0.1721  1.0181
 1249SOL    HW2 4432   3.539   2.269   1.073  0.4149 -1.1078  0.2350
 1250SOL     OW 4433   1.930   2.388   5.823  0.1177 -1.2277  0.0051
 1250SOL    HW1 4434   1.879   2.357   5.898 -0.2045  0.7855  0.6730
 1250SOL    HW2 4435   1.877   2.457   5.785  0.1759 -2.3319 -2.2752
 1251SOL     OW 4436   6.716   1.438   2.034  0.2188 -0.2384 -0.3382
 1251SOL    HW1 4437   6.663   1.409   1.959  2.6310  1.9884 -3.1361
 1251SOL    HW2 4438   6.765   1.361   2.060 -0.5690 -1.0284 -1.1166
 1252SOL     OW 4439   4.458   3.962   2.115  0.0180  0.2495  0.1997
 1252SOL    HW1 4440   4.387   3.898   2.107 -1.5059  1.7256  1.2494
 1252SOL    HW2 4441   4.441   4.025   2.045  0.7999  0.1742 -0.0662
 1253SOL     OW 4442   2.798   5.396   0.273 -0.5333 -0.1400  0.8332
 1253SOL    HW1 4443   2.884   5.361   0.298 -1.3179 -1.8887  1.2432
 1253SOL    HW2 4444   2.814   5.488   0.255  1.2151 -0.1574  2.0608
 1254SOL     OW 4445   4.787   0.848   0.145 -0.1464  0.1103  0.3933
 1254SOL    HW1 4446   4.714   0.792   0.118 -1.0297  2.0125 -1.4391
 1254SOL    HW2 4447   4.783   0.848   0.240 -1.1993 -1.5053  0.4014
 1255SOL     OW 4448   6.019   3.867   4.798 -0.2168  0.0394  0.1995
 1255SOL    HW1 4449   5.982   3.955   4.791 -2.3657 -0.8473 -0.1219
 1255SOL    HW2 4450   5.958   3.819   4.854 -0.9408 -2.1647 -2.2938
 1256SOL     OW 4451   3.371   2.649   0.992  0.7321  0.0874 -0.1824
 1256SOL    HW1 4452   3.318   2.618   1.066  0.8977  0.8272  0.2562
 1256SOL    HW2 4453   3.360   2.581   0.925 -3.2785  1.5475 -1.3256
 1257SOL     OW 4454   6.258   1.503   0.730  0.2626  0.0290  0.0796
 1257SOL    HW1 4455   6.292   1.437   0.790  2.6964  2.1227  1.2250
 1257SOL    HW2 4456   6.263   1.461   0.644  0.6525 -1.6496  0.8771
 1258SOL     OW 4457   2.503   5.858   3.881  0.5659  0.2239  0.0960
 1258SOL    HW1 4458   2.570   5.895   3.938 -1.5270 -0.6229  3.3898
 1258SOL    HW2 4459   2.440   5.929   3.868  1.0958  0.4574 -1.4113
 1259SOL     OW 4460   2.820   3.459   1.273 -0.4594  0.1505 -0.7006
 1259SOL    HW1 4461   2.823   3.448   1.178 -0.0981  1.5671 -0.8750
 1259SOL    HW2 4462   2.831   3.553   1.287  1.3820 -0.2066  0.8037
 1260SOL     OW 4463   1.877   1.056   5.259 -0.1503  0.0526  0.1294
 1260SOL    HW1 4464   1.940   1.101   5.314  0.6523 -0.8780 -0.0029
 1260SOL    HW2 4465   1.901   1.080   5.169 -1.1903  1.2245  0.1372
 1261SOL     OW 4466   5.508   0.558   0.927 -0.7460  0.3652  0.1778
 1261SOL    HW1 4467   5.548   0.639   0.958 -0.5765  1.1319 -1.8992
 1261SOL    HW2 4468   5.574   0.518   0.870 -0.6931 -1.4583  1.4089
 1262SOL     OW 4469   6.303   1.484   2.878  0.5942 -0.1927  0.2405
 1262SOL    HW1 4470   6.334   1.572   2.900  0.7524  0.1796 -1.3818
 1262SOL    HW2 4471   6.376   1.443   2.832  0.1630 -0.8026  0.0920
 1263SOL     OW 4472   0.636   6.088   2.586  0.3714 -0.0614  0.0453
 1263SOL    HW1 4473   0.614   6.180   2.569 -0.0859  0.0664  1.2056
 1263SOL    HW2 4474   0.686   6.090   2.668  0.6942 -0.8169 -0.1201
 1264SOL     OW 4475   1.058   5.049   4.587  0.2748  0.1589  0.2760
 1264SOL    HW1 4476   1.145   5.061   4.625 -0.2894  1.9316  1.1656
 1264SOL    HW2 4477   1.059   5.104   4.509 -0.6299  1.8740  1.3953
 1265SOL     OW 4478   2.586   2.307   6.229  0.6424 -0.0016  0.7002
 1265SOL    HW1 4479   2.590   2.401   6.248 -1.6210  0.4230 -0.5719
 1265SOL    HW2 4480   2.632   2.297   6.146  1.1594 -0.0785  0.9938
 1266SOL     OW 4481   1.603   1.953   4.156  0.2844  0.0370  0.0139
 1266SOL    HW1 4482   1.660   1.965   4.080 -0.0347 -1.2463 -0.4443
 1266SOL    HW2 4483   1.532   1.898   4.125 -2.1394  2.8817  0.1558
 1267SOL     OW 4484   0.018   2.370   1.357 -0.1809 -0.3954  0.1869
 1267SOL    HW1 4485   0.092   2.348   1.300 -1.5386 -0.0427 -1.8045
 1267SOL    HW2 4486   0.045   2.339   1.444  1.1334 -2.8349 -0.9866
 1268SOL     OW 4487   0.367   6.783   2.571 -0.2579  0.1203 -0.3079
 1268SOL    HW1 4488   0.336   6.873   2.571 -0.0317  0.2295  1.4444
 1268SOL    HW2 4489   0.297   6.734   2.615 -0.3851 -0.5640 -1.2579
 1269SOL     OW 4490   5.507   2.455   3.106  0.2096  0.3561  0.4576
 1269SOL    HW1 4491   5.459   2.535   3.126  0.1935  0.3565  0.4160
 1269SOL    HW2 4492   5.589   2.464   3.154 -0.5790 -0.4595  2.0618
 1270SOL     OW 4493   0.030   0.087   5.538 -0.2062 -0.0634 -0.5624
 1270SOL    HW1 4494  -0.021   0.042   5.470  0.3657  1.1787 -1.8710
 1270SOL    HW2 4495   0.117   0.050   5.531 -0.6787 -1.5931  1.1149
 1271SOL     OW 4496   0.259   1.837   3.996 -0.5836  0.0182  0.7041
 1271SOL    HW1 4497   0.277   1.742   3.995 -3.7898 -0.6930  0.6608
 1271SOL    HW2 4498   0.192   1.848   4.063  1.7440  2.8121  2.8483
 1272SOL     OW 4499   2.354   6.050   4.059  0.2733  0.0773 -0.3217
 1272SOL    HW1 4500   2.337   6.077   3.969  1.3059 -1.8454 -1.1424
 1272SOL    HW2 4501   2.267   6.040   4.098 -0.1814  0.9944 -1.0523
 1273SOL     OW 4502   2.666   2.837   6.475 -0.5008  0.5412 -0.4296
 1273SOL    HW1 4503   2.753   2.870   6.452 -0.2418  0.5801  0.5767
 1273SOL    HW2 4504   2.611   2.863   6.401  0.5504 -0.4547 -1.6182
 1274SOL     OW 4505   3.970   0.868   0.423 -0.0840  0.7329  0.0670
 1274SOL    HW1 4506   3.929   0.932   0.364 -0.8907  0.1778  0.0047
 1274SOL    HW2 4507   3.966   0.786   0.375 -0.7002  0.2838  0.8619
 1275SOL     OW 4508   0.969   5.000   6.308 -0.3402 -0.0898  0.1384
 1275SOL    HW1 4509   1.011   5.065   6.252  0.6104  0.0256  0.9627
 1275SOL    HW2 4510   0.883   4.986   6.268  0.5512 -0.5246 -1.7317
 1276SOL     OW 4511   0.618   4.722   6.599  0.4162 -0.7387 -0.2953
 1276SOL    HW1 4512   0.546   4.786   6.594  0.6889 -0.3767  0.4040
 1276SOL    HW2 4513   0.574   4.638   6.615  0.1627 -0.4861  0.3460
 1277SOL     OW 4514   6.097   0.624   1.865 -0.4283  0.1967  0.2356
 1277SOL    HW1 4515   6.068   0.578   1.787  1.2820  0.7708 -0.7828
 1277SOL    HW2 4516   6.022   0.679   1.890 -0.3558  1.5189 -2.2001
 1278SOL     OW 4517   4.238   1.424   4.920  0.7144 -0.1268  0.0490
 1278SOL    HW1 4518   4.219   1.348   4.975  0.5047  0.7937  1.3131
 1278SOL    HW2 4519   4.322   1.456   4.952  0.9986 -0.0634 -0.7527
 1279SOL     OW 4520   6.266   1.695   2.201 -0.0183 -0.0103 -0.4321
 1279SOL    HW1 4521   6.333   1.708   2.269  0.0048 -0.9528 -0.2624
 1279SOL    HW2 4522   6.195   1.755   2.225  0.3269  0.2378 -0.0237
 1280SOL     OW 4523   4.734   2.657   1.413 -0.3347 -0.3258  0.2286
 1280SOL    HW1 4524   4.760   2.577   1.458 -0.5424 -1.1107 -1.0104
 1280SOL    HW2 4525   4.719   2.720   1.484  1.7652 -0.7662  1.1381
 1281SOL     OW 4526   3.670   5.371   1.157 -0.4278  0.1094  0.3877
 1281SOL    HW1 4527   3.693   5.334   1.071 -0.9225 -1.0611  0.7405
 1281SOL    HW2 4528   3.625   5.300   1.202 -2.6378  1.5619  0.6007
 1282SOL     OW 4529   6.287   0.234   1.028 -0.0948  0.3914 -0.0291
 1282SOL    HW1 4530   6.265   0.141   1.019 -0.4103  0.3493  1.0558
 1282SOL    HW2 4531   6.348   0.251   0.957  0.6085 -0.8522  0.2516
 1283SOL     OW 4532   0.604   6.732   0.887 -0.0619 -0.3385  0.0814
 1283SOL    HW1 4533   0.605   6.780   0.804 -0.8936  2.1207  1.3905
 1283SOL    HW2 4534   0.696   6.714   0.905  0.1686 -0.4214 -1.0796
 1284SOL     OW 4535   4.418   2.575   4.902  0.2699  0.4084 -0.0773
 1284SOL    HW1 4536   4.343   2.555   4.957  0.0047  1.5215 -0.0265
 1284SOL    HW2 4537   4.411   2.668   4.883  1.3617  0.4267 -0.4879
 1285SOL     OW 4538   2.280   6.031   3.105  0.0685  0.2463  0.0971
 1285SOL    HW1 4539   2.243   6.094   3.044  2.0133  0.2017 -1.2147
 1285SOL    HW2 4540   2.350   5.988   3.056 -0.8516 -2.6301  1.0749
 1286SOL     OW 4541   4.041   6.893   0.633  0.2759 -0.2919 -0.1122
 1286SOL    HW1 4542   3.998   6.819   0.676  1.8826 -0.9501  0.4395
 1286SOL    HW2 4543   4.026   6.879   0.540 -1.4540  0.0045  0.0892
 1287SOL     OW 4544   2.111   1.116   3.241 -0.2827  0.2114  0.8337
 1287SOL    HW1 4545   2.189   1.168   3.262  0.2321  0.0389 -0.5222
 1287SOL    HW2 4546   2.039   1.179   3.242  0.2199  0.8322 -0.0318
 1288SOL     OW 4547   3.341   5.124   0.159  0.1007  0.0694 -0.2869
 1288SOL    HW1 4548   3.358   5.043   0.111  1.3637  1.0498 -1.5711
 1288SOL    HW2 4549   3.251   5.148   0.135 -0.4935 -1.2109  0.5549
 1289SOL     OW 4550   4.996   4.316   0.841  0.3173 -0.8984  0.0304
 1289SOL    HW1 4551   5.086   4.287   0.851 -0.4513 -3.5316 -0.0203
 1289SOL    HW2 4552   4.943   4.237   0.854 -2.0305  0.6601  0.6362
 1290SOL     OW 4553   5.443   2.819   1.214  0.1943 -0.6688 -0.8868
 1290SOL    HW1 4554   5.514   2.757   1.199  0.8962  0.0967 -0.7972
 1290SOL    HW2 4555   5.455   2.887   1.147  1.9294  1.5178  1.4585
 1291SOL     OW 4556   0.620   0.307   2.044 -0.1073 -0.3098  0.4743
 1291SOL    HW1 4557   0.559   0.320   1.972  0.2015 -1.6710 -0.0611
 1291SOL    HW2 4558   0.567   0.274   2.116 -0.3220  0.4941  0.6921
 1292SOL     OW 4559   2.775   1.600   6.604  0.0264 -0.5662 -0.1136
 1292SOL    HW1 4560   2.698   1.626   6.553 -0.6355 -1.4010  0.4285
 1292SOL    HW2 4561   2.767   1.649   6.686  0.1290 -0.5747 -0.0987
 1293SOL     OW 4562   1.382   0.627   3.146 -0.4604  0.1361  0.4904
 1293SOL    HW1 4563   1.410   0.538   3.167 -0.7444 -0.5832 -1.9200
 1293SOL    HW2 4564   1.459   0.668   3.107 -0.9561  0.2313 -0.3953
 1294SOL     OW 4565   4.143   1.181   5.019  0.6655 -0.0219 -0.0948
 1294SOL    HW1 4566   4.207   1.115   5.048 -1.9273 -2.0863  1.4084
 1294SOL    HW2 4567   4.120   1.154   4.930  4.2545  2.8254 -2.1503
 1295SOL     OW 4568   3.720   5.245   6.798 -0.4677 -0.3371 -0.6493
 1295SOL    HW1 4569   3.809   5.218   6.821  0.0221  0.8122 -1.1266
 1295SOL    HW2 4570   3.667   5.168   6.815  0.3989 -0.6305  0.9664
 1296SOL     OW 4571   3.178   4.364   2.970  0.1171  0.3411  0.2580
 1296SOL    HW1 4572   3.167   4.408   2.885  1.0794 -0.5605 -0.3696
 1296SOL    HW2 4573   3.271   4.342   2.972  0.0277  0.0401  1.4138
 1297SOL     OW 4574   0.526   0.873   0.958  0.5931 -0.5584 -0.2416
 1297SOL    HW1 4575   0.460   0.817   0.916 -0.2761  1.6223 -1.9765
 1297SOL    HW2 4576   0.606   0.820   0.958 -0.6645 -2.5620  0.1563
 1298SOL     OW 4577   2.276   6.037   0.461  0.2546  0.7521 -0.6165
 1298SOL    HW1 4578   2.218   6.007   0.531  0.1822  1.4168 -0.3810
 1298SOL    HW2 4579   2.334   6.101   0.504 -0.2634  1.7219 -1.3058
 1299SOL     OW 4580   5.204   2.375   4.473 -0.0918  0.0762 -0.3053
 1299SOL    HW1 4581   5.148   2.449   4.495  1.5749  1.2962  0.0428
 1299SOL    HW2 4582   5.213   2.327   4.556  0.3447  0.5792 -0.0513
 1300SOL     OW 4583   6.781   6.031   0.761 -0.3049 -0.4521 -0.5576
 1300SOL    HW1 4584   6.727   6.103   0.730 -0.9482 -0.4059  0.6129
 1300SOL    HW2 4585   6.756   5.956   0.706  1.2324  0.4243 -2.6139
 1301SOL     OW 4586   5.917   0.661   3.617 -0.0011  0.2919 -0.1295
 1301SOL    HW1 4587   5.866   0.692   3.543  1.8688  1.4073 -1.0309
 1301SOL    HW2 4588   5.871   0.582   3.647 -2.7425  1.7724 -0.1971
 1302SOL     OW 4589   3.894   2.221   5.527 -0.3080 -0.4172 -0.1429
 1302SOL    HW1 4590   3.840   2.260   5.459  0.3210  0.9757  0.1347
 1302SOL    HW2 4591   3.885   2.279   5.602 -0.7871 -1.7874  0.9073
 1303SOL     OW 4592   0.521   0.571   4.222 -0.0198 -0.0325 -0.4783
 1303SOL    HW1 4593   0.572   0.501   4.181 -1.7365 -1.8018  0.2706
 1303SOL    HW2 4594   0.572   0.595   4.300  0.9352  0.1023 -1.1178
 1304SOL     OW 4595   1.491   3.767   4.958 -0.6448  0.3727 -0.0522
 1304SOL    HW1 4596   1.536   3.692   4.996 -1.3601 -0.1651 -0.2500
 1304SOL    HW2 4597   1.442   3.805   5.031  1.3604  1.9481  0.5673
 1305SOL     OW 4598   1.118   4.394   4.598  0.2160  0.7246  0.0510
 1305SOL    HW1 4599   1.189   4.362   4.543 -0.3419 -0.6925  0.1228
 1305SOL    HW2 4600   1.073   4.458   4.543 -0.4631 -0.8162 -1.2702
 1306SOL     OW 4601   1.998   0.790   4.673 -0.0481  0.3559  0.3489
 1306SOL    HW1 4602   1.907   0.793   4.643 -0.0680  1.2205  0.4721
 1306SOL    HW2 4603   2.009   0.701   4.707 -0.9812  0.3858  0.7552
 1307SOL     OW 4604   2.767   5.955   0.692  0.0463 -0.4454  0.1378
 1307SOL    HW1 4605   2.800   5.868   0.713  0.4492 -0.6493 -1.2455
 1307SOL    HW2 4606   2.672   5.946   0.694  0.0605 -0.5539  1.3473
 1308SOL     OW 4607   6.578   5.879   5.706  0.3328 -0.2851 -0.8193
 1308SOL    HW1 4608   6.588   5.805   5.646 -0.7402  0.0929 -1.4788
 1308SOL    HW2 4609   6.628   5.950   5.666  1.9543 -0.8065  0.1626
 1309SOL     OW 4610   6.803   3.281   2.453  0.2482 -0.2058 -0.1281
 1309SOL    HW1 4611   6.813   3.199   2.404 -0.9346  0.2019 -1.1086
 1309SOL    HW2 4612   6.809   3.349   2.386  1.1621  0.5195  0.6721
 1310SOL     OW 4613   1.301   4.545   1.729  0.4485  0.2712 -0.0795
 1310SOL    HW1 4614   1.373   4.512   1.783 -0.2991  0.5188  1.0843
 1310SOL    HW2 4615   1.340   4.554   1.641  2.0478  1.0811  0.6711
 1311SOL     OW 4616   1.302   2.820   2.188  0.7309 -0.1526 -0.0934
 1311SOL    HW1 4617   1.299   2.821   2.283 -0.0978  0.3793 -0.1113
 1311SOL    HW2 4618   1.395   2.813   2.166  0.8973 -0.6883  0.7479
 1312SOL     OW 4619   3.078   2.646   2.190 -0.7157  0.4784 -0.6270
 1312SOL    HW1 4620   3.109   2.666   2.278 -1.9111 -1.7924  0.4111
 1312SOL    HW2 4621   2.985   2.669   2.192 -0.4434  1.7922 -1.8081
 1313SOL     OW 4622   6.096   5.061   0.728 -0.1970  0.2856  0.1580
 1313SOL    HW1 4623   6.145   5.066   0.646  0.3142 -0.2021  0.4253
 1313SOL    HW2 4624   6.044   4.981   0.720  0.6839 -0.3642  0.7471
 1314SOL     OW 4625   1.641   3.040   1.931 -0.3016 -0.1519 -0.2516
 1314SOL    HW1 4626   1.663   3.015   2.021 -1.5663 -0.6846 -0.0672
 1314SOL    HW2 4627   1.546   3.052   1.933 -0.2275  0.6794 -1.3201
 1315SOL     OW 4628   5.344   2.156   1.554 -0.0439  0.0658  0.3665
 1315SOL    HW1 4629   5.282   2.132   1.623 -0.2913  0.8147  0.4111
 1315SOL    HW2 4630   5.334   2.088   1.488 -0.9091  0.1714  0.3781
 1316SOL     OW 4631   4.766   6.531   3.808  0.0471  1.2897  0.0064
 1316SOL    HW1 4632   4.799   6.531   3.898 -0.7583 -1.9733  0.4282
 1316SOL    HW2 4633   4.841   6.558   3.755  0.9221  2.0212  1.5646
 1317SOL     OW 4634   4.015   5.081   6.404 -0.3933  0.3815  0.3470
 1317SOL    HW1 4635   3.967   5.028   6.467 -1.4171 -0.6605 -1.2505
 1317SOL    HW2 4636   4.008   5.170   6.438 -0.6664 -0.1898  1.8459
 1318SOL     OW 4637   6.450   1.976   2.989  0.2697 -0.8661 -0.0104
 1318SOL    HW1 4638   6.482   2.002   3.076  0.4765 -0.2352 -0.2739
 1318SOL    HW2 4639   6.473   2.049   2.932  1.2795 -1.8179 -0.8684
 1319SOL     OW 4640   6.460   3.854   5.722  0.1251 -0.1741  0.1077
 1319SOL    HW1 4641   6.496   3.936   5.754  2.0186 -0.1040 -1.9899
 1319SOL    HW2 4642   6.406   3.822   5.795 -0.1519  2.5429  1.2354
 1320SOL     OW 4643   5.885   6.563   2.550  0.4543 -0.3411  0.0310
 1320SOL    HW1 4644   5.916   6.616   2.477  1.7760 -1.3742 -0.2012
 1320SOL    HW2 4645   5.924   6.603   2.627  2.2909 -1.5047 -0.2397
 1321SOL     OW 4646   0.220   1.742   6.295 -0.2169 -0.7989  0.0178
 1321SOL    HW1 4647   0.149   1.694   6.253 -0.3943 -1.8038  1.3873
 1321SOL    HW2 4648   0.183   1.828   6.313  0.2564  0.1056 -2.9020
 1322SOL     OW 4649   1.893   1.543   1.318 -0.7154 -0.1066  0.1929
 1322SOL    HW1 4650   1.893   1.637   1.333  0.6468 -0.1056  0.3400
 1322SOL    HW2 4651   1.879   1.505   1.405 -0.8707 -0.0491  0.1937
 1323SOL     OW 4652   1.698   3.449   4.034  0.3814  0.4238 -0.3691
 1323SOL    HW1 4653   1.750   3.382   3.991 -1.0457  0.2196 -1.8805
 1323SOL    HW2 4654   1.665   3.504   3.963  0.1896  1.7599  0.7022
 1324SOL     OW 4655   4.886   3.498   1.140 -0.4671  0.2539 -0.1928
 1324SOL    HW1 4656   4.872   3.558   1.067  3.2195  0.7433 -0.7109
 1324SOL    HW2 4657   4.967   3.452   1.117 -0.9551 -1.9944  2.1071
 1325SOL     OW 4658   3.520   4.461   3.312  0.2316 -0.5385 -0.0512
 1325SOL    HW1 4659   3.586   4.501   3.256 -0.6148  0.3936 -0.4064
 1325SOL    HW2 4660   3.445   4.520   3.308 -0.2719 -1.0567  1.1450
 1326SOL     OW 4661   6.582   4.069   0.117 -0.2456 -0.2033 -0.3860
 1326SOL    HW1 4662   6.545   4.009   0.182 -0.9491  1.4966  0.8780
 1326SOL    HW2 4663   6.675   4.075   0.140 -0.4787  0.3504  0.4692
 1327SOL     OW 4664   5.758   3.956   2.976  0.6020  0.3007 -0.3342
 1327SOL    HW1 4665   5.792   4.043   2.954  0.1788  0.2313 -1.3003
 1327SOL    HW2 4666   5.736   3.917   2.891 -0.7804 -0.1082  0.1960
 1328SOL     OW 4667   6.420   5.906   1.189 -0.3703  0.3448 -0.5422
 1328SOL    HW1 4668   6.486   5.867   1.132  0.6280 -0.3811  1.0341
 1328SOL    HW2 4669   6.349   5.842   1.191 -0.3075  0.2667 -0.7826
 1329SOL     OW 4670   6.494   1.764   2.370  0.2615 -0.3523 -0.2940
 1329SOL    HW1 4671   6.475   1.785   2.462  2.3038  0.3722  0.0194
 1329SOL    HW2 4672   6.558   1.693   2.375 -0.3293 -0.9609 -1.1980
 1330SOL     OW 4673   0.747   5.243   4.474  0.0183 -0.4779 -0.0692
 1330SOL    HW1 4674   0.836   5.227   4.443  0.1684 -1.5095  0.8440
 1330SOL    HW2 4675   0.711   5.307   4.412  1.1022 -0.6842 -0.9372
 1331SOL     OW 4676   3.221   1.690   6.623 -0.3963  0.6281 -0.0814
 1331SOL    HW1 4677   3.294   1.725   6.573  1.1872  0.8658  2.2186
 1331SOL    HW2 4678   3.183   1.766   6.667 -0.8595  0.2579  0.1728
 1332SOL     OW 4679   1.833   6.037   5.690  0.2495 -0.7557  0.3676
 1332SOL    HW1 4680   1.832   5.959   5.635 -0.1987 -0.3970 -0.1408
 1332SOL    HW2 4681   1.893   6.097   5.646 -0.8025 -0.1184 -0.2378
 1333SOL     OW 4682   6.069   6.867   4.643 -0.3989 -0.3032 -0.8739
 1333SOL    HW1 4683   6.057   6.885   4.550  0.0914 -0.2632 -0.9324
 1333SOL    HW2 4684   6.019   6.787   4.658 -1.2909  0.2344 -0.9505
 1334SOL     OW 4685   3.553   0.512   5.012  0.5866 -0.1565 -0.3825
 1334SOL    HW1 4686   3.590   0.427   4.989 -1.3364 -1.3261  0.6091
 1334SOL    HW2 4687   3.581   0.527   5.102 -0.5113 -0.6113  0.0531
 1335SOL     OW 4688   0.773   1.421   1.503 -0.8538 -0.5633 -0.4787
 1335SOL    HW1 4689   0.834   1.422   1.577  1.3552  0.8195 -2.1959
 1335SOL    HW2 4690   0.695   1.467   1.536  0.2121  0.3773  0.8802
 1336SOL     OW 4691   1.780   3.966   0.915 -0.2067  0.2933 -0.0587
 1336SOL    HW1 4692   1.723   4.006   0.849  0.5143 -0.1462 -0.9690
 1336SOL    HW2 4693   1.865   4.007   0.901 -0.2839  1.0055  1.3505
 1337SOL     OW 4694   0.903   5.351   3.493 -0.2069  0.6001 -0.1105
 1337SOL    HW1 4695   0.890   5.366   3.400  0.0379  0.8594 -0.1053
 1337SOL    HW2 4696   0.996   5.327   3.501 -1.2341 -4.7654 -0.6089
 1338SOL     OW 4697   6.851   1.226   3.567  0.2909 -0.8516 -0.0321
 1338SOL    HW1 4698   6.821   1.296   3.624 -0.4659 -0.3507 -1.0129
 1338SOL    HW2 4699   6.938   1.203   3.600  0.8468  1.0190 -0.1191
 1339SOL     OW 4700   2.733   2.105   1.343  0.1979 -0.0124  0.8101
 1339SOL    HW1 4701   2.646   2.140   1.363 -0.3768 -0.8009 -0.1814
 1339SOL    HW2 4702   2.727   2.077   1.251  1.5926  0.1931  0.6325
 1340SOL     OW 4703   3.392   4.622   1.071  0.3384  0.0763  0.2185
 1340SOL    HW1 4704   3.376   4.555   1.005  2.1875 -0.7927  0.5652
 1340SOL    HW2 4705   3.379   4.577   1.155  1.4624  0.1472  0.4533
 1341SOL     OW 4706   0.140   4.283   4.811  0.3176  0.0403 -0.0552
 1341SOL    HW1 4707   0.124   4.341   4.886 -0.0107 -0.3738  0.1993
 1341SOL    HW2 4708   0.223   4.314   4.775 -1.0235  2.2714 -1.4554
 1342SOL     OW 4709   4.953   0.986   6.299 -0.6356  0.5907  0.6110
 1342SOL    HW1 4710   5.042   0.961   6.276 -0.8831  0.8298 -0.7411
 1342SOL    HW2 4711   4.959   1.078   6.324 -0.6239  0.8950 -0.4457
 1343SOL     OW 4712   1.664   2.192   2.439  0.2877 -0.0994 -0.3370
 1343SOL    HW1 4713   1.605   2.214   2.367 -1.5470 -0.8562  0.8679
 1343SOL    HW2 4714   1.724   2.267   2.445  0.9428 -0.3097 -3.0124
 1344SOL     OW 4715   4.668   2.863   0.104 -0.0253  0.1945 -0.4178
 1344SOL    HW1 4716   4.670   2.837   0.196  0.6229 -1.5430 -0.8918
 1344SOL    HW2 4717   4.630   2.951   0.105 -0.9869 -0.1908  1.4122
 1345SOL     OW 4718   1.736   0.998   0.615  0.3468  0.3803  0.7395
 1345SOL    HW1 4719   1.758   1.008   0.707  2.2135 -1.3054  0.5299
 1345SOL    HW2 4720   1.805   0.943   0.579  0.2704  1.8316 -1.9138
 1346SOL     OW 4721   0.624   5.833   1.559 -0.3258 -0.7543 -0.4435
 1346SOL    HW1 4722   0.574   5.773   1.615 -0.4765  0.5282  0.8660
 1346SOL    HW2 4723   0.577   5.916   1.566  1.0486  0.0499 -0.5095
 1347SOL     OW 4724   4.981   6.102   6.497  0.0019 -0.1404  0.3934
 1347SOL    HW1 4725   4.997   6.009   6.512  0.3122 -0.2480 -0.5465
 1347SOL    HW2 4726   5.016   6.119   6.409 -2.7496  0.1726 -0.7443
 1348SOL     OW 4727   3.719   6.169   5.627  0.5333  0.6014  0.2345
 1348SOL    HW1 4728   3.654   6.130   5.685  1.3323  0.1165  0.8214
 1348SOL    HW2 4729   3.670   6.233   5.575 -1.1219 -1.9714 -1.6601
 1349SOL     OW 4730   0.419   4.413   1.687 -0.3855  0.2887 -0.1638
 1349SOL    HW1 4731   0.433   4.333   1.637  1.5610  1.2775 -1.3208
 1349SOL    HW2 4732   0.324   4.422   1.692 -0.7162 -2.7030  1.1003
 1350SOL     OW 4733   5.227   5.582   5.495 -0.0067 -0.0765  0.5019
 1350SOL    HW1 4734   5.301   5.640   5.513 -0.5290  0.4335  1.0564
 1350SOL    HW2 4735   5.156   5.616   5.550 -0.7132 -0.4384 -0.1642
 1351SOL     OW 4736   1.517   2.758   3.769 -0.4527  0.1518 -0.3440
 1351SOL    HW1 4737   1.493   2.703   3.843  0.5400  0.6821  0.4040
 1351SOL    HW2 4738   1.611   2.745   3.758 -0.3661  0.9951 -0.7360
 1352SOL     OW 4739   1.980   2.257   3.481  0.1815  0.1422  0.8344
 1352SOL    HW1 4740   1.926   2.264   3.402  0.3743 -0.0809  0.6829
 1352SOL    HW2 4741   1.993   2.348   3.509 -0.4149  0.1929  0.9707
 1353SOL     OW 4742   1.553   3.769   6.052 -0.1261 -0.3787 -0.0639
 1353SOL    HW1 4743   1.507   3.685   6.050  0.3710 -0.6723 -2.5368
 1353SOL    HW2 4744   1.590   3.774   6.140 -1.7625 -1.8411  0.7723
 1354SOL     OW 4745   2.472   5.378   3.412  0.3588 -0.2746 -0.2184
 1354SOL    HW1 4746   2.461   5.467   3.444  0.9161 -0.7354  1.3266
 1354SOL    HW2 4747   2.565   5.371   3.390  0.2285 -0.3511 -0.7723
 1355SOL     OW 4748   1.650   2.939   3.495  0.0499 -0.0944 -0.8279
 1355SOL    HW1 4749   1.741   2.923   3.471  0.1429  0.8076 -1.1169
 1355SOL    HW2 4750   1.608   2.853   3.490  0.9097 -0.5399 -0.5545
 1356SOL     OW 4751   0.962   1.757   0.154 -0.2026 -0.6771  0.7832
 1356SOL    HW1 4752   0.976   1.668   0.188  1.4739 -0.5367  0.5500
 1356SOL    HW2 4753   0.901   1.745   0.082  0.1222 -1.6811  0.6550
 1357SOL     OW 4754   3.268   4.003   1.678  0.7272 -0.1863 -0.3503
 1357SOL    HW1 4755   3.213   3.929   1.704  1.3056 -1.0174 -1.4044
 1357SOL    HW2 4756   3.212   4.080   1.689 -0.0373 -0.8151  0.3219
 1358SOL     OW 4757   0.409   0.439   0.449 -0.0932 -0.4056  0.6195
 1358SOL    HW1 4758   0.403   0.434   0.545 -0.2819  0.5504  0.6665
 1358SOL    HW2 4759   0.321   0.464   0.421  0.5010  1.6745  0.3989
 1359SOL     OW 4760   5.462   0.327   3.762  0.1410 -0.7217  0.4536
 1359SOL    HW1 4761   5.369   0.342   3.781  0.9940  3.3183  2.5753
 1359SOL    HW2 4762   5.465   0.319   3.666 -2.2160  1.4105  0.0706
 1360SOL     OW 4763   2.845   0.212   2.795  0.3408 -0.5318 -0.2292
 1360SOL    HW1 4764   2.795   0.146   2.844 -1.1803 -0.1973 -1.2532
 1360SOL    HW2 4765   2.804   0.213   2.708 -0.0473  2.1306 -0.0864
 1361SOL     OW 4766   5.530   4.728   6.384 -0.1619  0.3576  0.2459
 1361SOL    HW1 4767   5.575   4.812   6.376  2.7861 -1.0750  0.4544
 1361SOL    HW2 4768   5.446   4.741   6.339 -0.5482  3.8210  1.6512
 1362SOL     OW 4769   1.885   2.925   0.228 -0.4077 -0.0386 -0.3686
 1362SOL    HW1 4770   1.899   2.885   0.143 -1.0577 -0.4182 -0.3009
 1362SOL    HW2 4771   1.922   2.861   0.290  1.2121  0.7949 -0.4170
 1363SOL     OW 4772   5.175   2.586   2.735  0.5029 -0.0223  0.4333
 1363SOL    HW1 4773   5.267   2.566   2.718  0.5745  1.6574 -1.4043
 1363SOL    HW2 4774   5.165   2.678   2.712 -1.6191 -0.1279  0.7289
 1364SOL     OW 4775   0.359   5.286   4.183 -0.8122  0.4489 -0.0429
 1364SOL    HW1 4776   0.361   5.191   4.169  0.5606  0.4377  0.0321
 1364SOL    HW2 4777   0.372   5.324   4.097  0.7471  0.5055  0.1856
 1365SOL     OW 4778   0.178   5.072   5.139 -0.0544  0.1785  0.4184
 1365SOL    HW1 4779   0.083   5.085   5.133  0.0771  0.8559 -0.4028
 1365SOL    HW2 4780   0.207   5.140   5.200 -0.1539 -0.3401  1.0477
 1366SOL     OW 4781   4.197   6.091   1.359  0.2407 -0.3499 -0.1430
 1366SOL    HW1 4782   4.241   6.008   1.376  2.0857  0.3866 -1.0287
 1366SOL    HW2 4783   4.137   6.073   1.287 -0.7502 -1.3056  0.8843
 1367SOL     OW 4784   5.439   6.284   3.290  0.2458 -0.4249 -0.0085
 1367SOL    HW1 4785   5.492   6.358   3.320  0.1899  0.3581 -1.7117
 1367SOL    HW2 4786   5.502   6.226   3.245  0.3482 -1.6114  1.5843
 1368SOL     OW 4787   2.716   2.399   4.126  0.2254 -0.1128 -0.5715
 1368SOL    HW1 4788   2.682   2.473   4.176  0.6641 -0.2117 -0.1138
 1368SOL    HW2 4789   2.794   2.433   4.083  0.3889 -0.2890 -0.4155
 1369SOL     OW 4790   1.857   1.483   6.807  0.1504  0.6006  0.4416
 1369SOL    HW1 4791   1.785   1.531   6.766  0.6479  0.4799 -0.6182
 1369SOL    HW2 4792   1.866   1.521   6.894  1.4942  3.4860 -0.8431
 1370SOL     OW 4793   2.482   3.589   1.058 -0.2251 -0.2860 -0.5754
 1370SOL    HW1 4794   2.441   3.504   1.070 -0.0810 -0.2250  0.4300
 1370SOL    HW2 4795   2.496   3.622   1.147  0.6858  0.3242 -0.9279
 1371SOL     OW 4796   2.286   5.300   2.820  0.1325 -0.3650 -0.5248
 1371SOL    HW1 4797   2.373   5.298   2.780  0.4522  0.6162  0.1007
 1371SOL    HW2 4798   2.267   5.208   2.839  1.4219 -0.5183  0.1374
 1372SOL     OW 4799   5.218   0.208   5.184 -0.3546  0.3413 -0.2510
 1372SOL    HW1 4800   5.191   0.196   5.092  0.3639  1.4413 -0.6238
 1372SOL    HW2 4801   5.235   0.302   5.192 -0.5583  0.2818  1.0635
 1373SOL     OW 4802   0.421   1.684   6.458  0.1969 -0.6306 -0.1513
 1373SOL    HW1 4803   0.492   1.647   6.406 -0.2251  0.1979 -1.3855
 1373SOL    HW2 4804   0.356   1.712   6.393 -1.2113 -1.2636  0.9363
 1374SOL     OW 4805   0.310   4.631   5.149 -0.2508 -0.2435  0.4027
 1374SOL    HW1 4806   0.373   4.570   5.188 -0.4129 -0.1116  0.8742
 1374SOL    HW2 4807   0.244   4.574   5.109 -0.2625 -0.3751  0.6113
 1375SOL     OW 4808   4.301   2.458   5.490  0.0670 -0.1973  0.5448
 1375SOL    HW1 4809   4.352   2.490   5.415 -0.8256 -0.1822 -0.0717
 1375SOL    HW2 4810   4.225   2.415   5.450 -0.3948 -0.2298  1.4462
 1376SOL     OW 4811   3.014   2.347   0.871 -0.0397  0.1725  0.4149
 1376SOL    HW1 4812   3.044   2.262   0.839 -2.0867 -0.6168  0.4600
 1376SOL    HW2 4813   2.968   2.328   0.953 -0.1677  1.3776  0.6525
 1377SOL     OW 4814   2.862   2.661   1.476 -0.1926  0.2243  0.8928
 1377SOL    HW1 4815   2.859   2.567   1.463 -0.3565  0.4979 -1.2993
 1377SOL    HW2 4816   2.775   2.684   1.510 -0.5234 -0.2861  0.3988
 1378SOL     OW 4817   1.626   3.055   4.136 -0.1664  0.0807 -0.3183
 1378SOL    HW1 4818   1.674   3.096   4.208 -0.9051  1.2001 -0.4342
 1378SOL    HW2 4819   1.644   3.111   4.060  1.6291 -1.7754 -1.3704
 1379SOL     OW 4820   1.243   4.107   6.251  0.3245 -0.1300  0.6391
 1379SOL    HW1 4821   1.261   4.190   6.206  0.0176  0.1544  1.0313
 1379SOL    HW2 4822   1.310   4.103   6.319  0.2512 -0.1327  0.7110
 1380SOL     OW 4823   6.366   0.233   1.993 -0.4179 -0.2766  0.1091
 1380SOL    HW1 4824   6.351   0.188   2.076  1.6432  0.1763  0.7973
 1380SOL    HW2 4825   6.399   0.164   1.935  0.8059 -0.1082  0.5569
 1381SOL     OW 4826   1.730   2.064   3.396  0.4408 -0.4313  0.3425
 1381SOL    HW1 4827   1.664   2.131   3.414  1.0703  0.5458 -0.8967
 1381SOL    HW2 4828   1.718   2.000   3.467 -2.5618 -0.8763 -0.4355
 1382SOL     OW 4829   0.736   1.237   6.838 -0.7593  0.3139 -0.2896
 1382SOL    HW1 4830   0.731   1.327   6.870  0.2810  1.0861 -2.0897
 1382SOL    HW2 4831   0.678   1.187   6.895  1.4736  1.3628  3.2355
 1383SOL     OW 4832   5.583   4.031   3.877  0.3150  0.0568  0.4707
 1383SOL    HW1 4833   5.632   4.097   3.829  0.8282  0.0536  0.9766
 1383SOL    HW2 4834   5.500   4.073   3.899  0.0267  0.0187 -0.5018
 1384SOL     OW 4835   6.222   1.631   3.262 -0.1512 -0.1165  0.4827
 1384SOL    HW1 4836   6.148   1.600   3.314 -0.6560 -0.4467 -0.4103
 1384SOL    HW2 4837   6.258   1.552   3.222  0.5193  0.0761  0.6909
 1385SOL     OW 4838   0.909   3.339   5.789  0.1536 -0.5853 -0.4357
 1385SOL    HW1 4839   0.914   3.258   5.841  0.8059 -0.7560 -0.7538
 1385SOL    HW2 4840   0.957   3.404   5.841  0.8708 -0.7747 -0.8485
 1386SOL     OW 4841   3.307   2.606   6.256  0.6233  0.0681  0.2035
 1386SOL    HW1 4842   3.352   2.554   6.323  0.8846  2.4205  2.0186
 1386SOL    HW2 4843   3.292   2.545   6.184 -0.3288 -2.8413  2.6394
 1387SOL     OW 4844   4.223   0.488   2.522 -0.1595  0.0829  0.4623
 1387SOL    HW1 4845   4.196   0.404   2.484 -0.8282  0.7760 -0.6350
 1387SOL    HW2 4846   4.254   0.465   2.610  0.2045 -1.3869 -0.0168
 1388SOL     OW 4847   5.170   2.435   6.375  0.1052  0.0481  0.3009
 1388SOL    HW1 4848   5.119   2.487   6.437 -0.0114  0.4882 -0.1504
 1388SOL    HW2 4849   5.257   2.429   6.414  0.5545  1.8616 -0.3086
 1389SOL     OW 4850   3.872   1.870   4.363  0.0617  0.2788 -0.1154
 1389SOL    HW1 4851   3.870   1.965   4.353  2.3959  0.3553 -0.5806
 1389SOL    HW2 4852   3.893   1.837   4.275 -0.2919 -0.6429  0.1341
 1390SOL     OW 4853   5.631   3.469   2.152  0.6217  0.0096 -0.0641
 1390SOL    HW1 4854   5.543   3.465   2.191  1.2012 -0.7508  1.2461
 1390SOL    HW2 4855   5.669   3.550   2.186 -0.2467  1.4470 -2.2691
 1391SOL     OW 4856   2.159   0.833   3.372 -0.2017 -0.1212 -0.4042
 1391SOL    HW1 4857   2.183   0.920   3.339 -0.3960  0.5038  1.0361
 1391SOL    HW2 4858   2.234   0.777   3.351  0.0755  0.4685 -1.0232
 1392SOL     OW 4859   0.607   3.118   6.639 -0.6792 -0.0169 -0.2297
 1392SOL    HW1 4860   0.702   3.129   6.638 -0.6101 -0.6169 -0.4092
 1392SOL    HW2 4861   0.573   3.203   6.612 -0.2654  0.9101  1.9916
 1393SOL     OW 4862   2.474   4.374   6.565 -0.1996 -0.3896 -0.3472
 1393SOL    HW1 4863   2.478   4.442   6.498 -0.8410 -1.1313 -1.1618
 1393SOL    HW2 4864   2.388   4.385   6.605  0.6970  0.9180  1.3250
 1394SOL     OW 4865   3.731   3.910   6.056 -0.4103 -0.3253 -0.0914
 1394SOL    HW1 4866   3.668   3.859   6.005 -0.0941 -0.2476 -0.5626
 1394SOL    HW2 4867   3.703   4.001   6.046 -0.6547 -0.3499  0.3089
 1395SOL     OW 4868   5.858   4.741   1.085 -0.2604  0.4528  0.2657
 1395SOL    HW1 4869   5.763   4.744   1.069 -0.6226 -1.6867  1.4892
 1395SOL    HW2 4870   5.865   4.697   1.170  1.8275  1.1074  0.4626
 1396SOL     OW 4871   3.324   1.158   1.697 -0.2705 -0.2097  0.7608
 1396SOL    HW1 4872   3.407   1.168   1.743 -0.6014  1.7147  1.0164
 1396SOL    HW2 4873   3.258   1.164   1.766 -0.6597 -0.3152  0.3995
 1397SOL     OW 4874   4.443   0.647   6.363 -0.0846  0.0626 -0.4193
 1397SOL    HW1 4875   4.425   0.719   6.423  0.8675  0.0667 -0.1250
 1397SOL    HW2 4876   4.474   0.689   6.283 -0.0947  0.0008 -0.4560
 1398SOL     OW 4877   5.163   2.200   6.764 -0.1894 -0.6094  0.0356
 1398SOL    HW1 4878   5.125   2.208   6.677 -0.9981  0.8708  0.4973
 1398SOL    HW2 4879   5.257   2.189   6.748 -0.2861  0.0220 -1.0048
 1399SOL     OW 4880   0.874   4.141   1.805  0.1713  0.1640  0.5367
 1399SOL    HW1 4881   0.827   4.196   1.742  0.9709  0.1031 -0.1216
 1399SOL    HW2 4882   0.942   4.199   1.841  0.5004 -0.1601  0.4360
 1400SOL     OW 4883   6.447   6.443   1.235 -0.7556  0.3158  0.1217
 1400SOL    HW1 4884   6.457   6.347   1.239  0.4086  0.4305  0.2851
 1400SOL    HW2 4885   6.410   6.460   1.149  0.6338 -0.1660 -0.5905
 1401SOL     OW 4886   3.234   0.392   6.324 -0.2272  0.1686  0.4001
 1401SOL    HW1 4887   3.172   0.428   6.260 -0.6452 -0.9477  0.1522
 1401SOL    HW2 4888   3.309   0.364   6.271  0.6820  1.8240  0.7333
 1402SOL     OW 4889   2.876   1.848   6.862 -0.0334 -0.7081 -0.2877
 1402SOL    HW1 4890   2.823   1.916   6.820 -0.3024 -1.6372 -1.4939
 1402SOL    HW2 4891   2.814   1.777   6.878  0.5683 -1.2750 -0.4526
 1403SOL     OW 4892   5.880   6.349   2.994  0.0829 -0.0810 -0.2956
 1403SOL    HW1 4893   5.926   6.350   3.078 -0.3194 -1.6491 -0.0151
 1403SOL    HW2 4894   5.871   6.256   2.974 -3.2427  0.0956 -0.1487
 1404SOL     OW 4895   6.234   0.364   6.628  0.0496 -0.6948 -0.6862
 1404SOL    HW1 4896   6.159   0.305   6.640 -0.4390 -0.4559 -2.3962
 1404SOL    HW2 4897   6.220   0.404   6.543  1.3384  0.5365 -0.3535
 1405SOL     OW 4898   1.343   5.397   1.505 -0.5720  0.8963  0.0481
 1405SOL    HW1 4899   1.363   5.439   1.422 -0.3162  2.2635  0.7711
 1405SOL    HW2 4900   1.416   5.420   1.563 -1.0247  0.4577  0.8235
 1406SOL     OW 4901   5.900   2.753   6.152 -0.3436 -0.4494  0.2677
 1406SOL    HW1 4902   5.818   2.704   6.154 -0.4768 -0.2767 -0.5645
 1406SOL    HW2 4903   5.883   2.826   6.092  0.3118 -0.2126  0.3559
 1407SOL     OW 4904   5.907   1.470   3.898  0.2168 -0.1750  0.1747
 1407SOL    HW1 4905   5.993   1.427   3.894  0.4684  0.3951 -0.8384
 1407SOL    HW2 4906   5.893   1.487   3.991  0.4748 -1.7070  0.5145
 1408SOL     OW 4907   3.814   0.397   6.735  0.3865 -0.0840  0.4260
 1408SOL    HW1 4908   3.893   0.404   6.788 -0.7333  1.0422  2.0262
 1408SOL    HW2 4909   3.757   0.467   6.766 -0.7564 -0.0263 -1.5881
 1409SOL     OW 4910   4.372   5.602   2.586 -0.1249 -0.3109 -0.2148
 1409SOL    HW1 4911   4.412   5.630   2.503  0.5578 -0.1800  0.1484
 1409SOL    HW2 4912   4.294   5.656   2.595  1.7564  2.4643  1.0503
 1410SOL     OW 4913   3.476   4.905   0.364 -0.1913 -0.2568 -0.2058
 1410SOL    HW1 4914   3.552   4.962   0.358 -0.5320  0.2575  0.3069
 1410SOL    HW2 4915   3.405   4.961   0.396 -0.7331 -0.7785 -0.4590
 1411SOL     OW 4916   2.765   4.706   1.063  0.2466  0.5540 -0.1466
 1411SOL    HW1 4917   2.830   4.768   1.030 -0.6384  1.2283 -0.6525
 1411SOL    HW2 4918   2.723   4.751   1.136  1.2567 -0.4098  1.0959
 1412SOL     OW 4919   0.237   3.721   5.003  0.8133 -0.0544 -0.1572
 1412SOL    HW1 4920   0.182   3.692   5.075  2.7889 -1.1719  0.9844
 1412SOL    HW2 4921   0.310   3.768   5.044  3.3983 -2.9201 -1.0404
 1413SOL     OW 4922   2.181   6.776   3.906  0.5479 -0.0665 -0.2536
 1413SOL    HW1 4923   2.107   6.725   3.872  0.8838 -1.4453  0.9875
 1413SOL    HW2 4924   2.222   6.718   3.970  0.4358  2.0888  1.8770
 1414SOL     OW 4925   6.658   0.518   0.804 -0.0167 -0.1430 -0.5242
 1414SOL    HW1 4926   6.625   0.513   0.893  1.9279  0.1913  0.2598
 1414SOL    HW2 4927   6.640   0.609   0.777 -0.1108 -0.0894 -0.2796
 1415SOL     OW 4928   4.838   3.211   0.163  0.4536  0.3816  0.3046
 1415SOL    HW1 4929   4.843   3.302   0.135  0.3683 -0.1715 -1.6303
 1415SOL    HW2 4930   4.750   3.183   0.137  1.1617 -0.7921 -0.9223
 1416SOL     OW 4931   0.074   0.708   2.826  0.2423  0.0034 -0.0033
 1416SOL    HW1 4932   0.147   0.768   2.841 -0.9075  1.3667  0.3818
 1416SOL    HW2 4933   0.098   0.629   2.874  1.3891  0.4668  0.2368
 1417SOL     OW 4934   5.120   4.946   1.577  0.0822 -0.8729  0.1959
 1417SOL    HW1 4935   5.036   4.930   1.534  0.1720  2.1266 -1.4282
 1417SOL    HW2 4936   5.106   5.026   1.627  1.6778 -0.9512  0.8101
 1418SOL     OW 4937   0.123   3.532   6.499  0.0725 -0.0341  0.1720
 1418SOL    HW1 4938   0.218   3.525   6.487  0.2787 -0.0166  1.5992
 1418SOL    HW2 4939   0.097   3.607   6.445  1.1930  1.1687  1.2464
 1419SOL     OW 4940   4.430   4.447   1.197  0.1747 -0.2920 -0.2349
 1419SOL    HW1 4941   4.521   4.461   1.170  0.5325 -2.4101 -0.3038
 1419SOL    HW2 4942   4.429   4.476   1.289  0.7432  0.3765 -0.4276
 1420SOL     OW 4943   4.992   5.949   3.441 -1.2175 -0.0089 -0.1798
 1420SOL    HW1 4944   4.945   5.965   3.360 -0.6477 -0.4407 -0.6009
 1420SOL    HW2 4945   5.072   6.000   3.433 -0.6062 -0.9852 -0.4105
 1421SOL     OW 4946   2.670   6.170   2.158  0.8085  0.0169 -0.0145
 1421SOL    HW1 4947   2.736   6.123   2.208  0.1600 -0.8262  0.0573
 1421SOL    HW2 4948   2.646   6.110   2.087 -2.5458 -1.3081  2.0154
 1422SOL     OW 4949   4.655   2.884   1.549 -0.0175  0.6232  0.2390
 1422SOL    HW1 4950   4.647   2.915   1.639  2.8265 -0.1581  0.8600
 1422SOL    HW2 4951   4.701   2.954   1.504  1.0809 -0.1459  0.1386
 1423SOL     OW 4952   3.695   1.036   2.679 -0.1283 -0.1026 -0.6316
 1423SOL    HW1 4953   3.756   1.063   2.610 -1.0851 -1.8264 -2.2402
 1423SOL    HW2 4954   3.726   1.082   2.757  2.0018  0.6489 -1.8239
 1424SOL     OW 4955   2.078   0.050   5.691  0.4461  0.2059 -0.5554
 1424SOL    HW1 4956   2.085   0.113   5.763  0.1743  1.7755 -1.8518
 1424SOL    HW2 4957   1.986   0.024   5.690  0.7887 -1.1982  0.7407
 1425SOL     OW 4958   4.510   6.640   0.633  0.3077  0.5262  0.4881
 1425SOL    HW1 4959   4.595   6.614   0.598  1.6361  2.1535  2.3171
 1425SOL    HW2 4960   4.448   6.621   0.562  2.0827 -1.1420 -0.7247
 1426SOL     OW 4961   6.139   6.550   3.162  0.2542  0.1889 -0.5896
 1426SOL    HW1 4962   6.179   6.531   3.247 -1.4115  0.5659  0.3300
 1426SOL    HW2 4963   6.064   6.491   3.157 -1.5862  2.3611 -0.2899
 1427SOL     OW 4964   4.756   5.877   1.112  0.0616 -0.1415  0.2011
 1427SOL    HW1 4965   4.672   5.831   1.124  0.4455 -0.4477  1.9334
 1427SOL    HW2 4966   4.822   5.809   1.124  0.6398 -0.3236 -2.9683
 1428SOL     OW 4967   3.155   1.742   4.557  0.0278  0.2245 -0.3739
 1428SOL    HW1 4968   3.086   1.762   4.621  1.0022  0.7540  0.5516
 1428SOL    HW2 4969   3.234   1.732   4.610  0.6196 -0.6286 -1.3931
 1429SOL     OW 4970   1.058   3.270   4.296 -0.0592 -0.1053 -0.3424
 1429SOL    HW1 4971   1.121   3.206   4.327 -1.7634 -1.9548 -0.4983
 1429SOL    HW2 4972   1.044   3.328   4.371  1.1873 -0.1648 -0.0528
 1430SOL     OW 4973   1.235   5.320   6.671 -0.0288  0.2323  0.4405
 1430SOL    HW1 4974   1.166   5.258   6.694 -0.6820 -0.1427 -2.2406
 1430SOL    HW2 4975   1.189   5.397   6.638  0.8107  0.6806  0.2794
 1431SOL     OW 4976   3.277   5.876   6.327  0.1867  0.1126 -0.2515
 1431SOL    HW1 4977   3.246   5.942   6.389  1.8153 -0.5978  1.4037
 1431SOL    HW2 4978   3.313   5.806   6.381  1.3391 -0.7292 -2.0018
 1432SOL     OW 4979   2.663   3.457   5.478  0.0589 -0.5780 -0.0384
 1432SOL    HW1 4980   2.639   3.371   5.445 -1.2128 -0.8470  1.4732
 1432SOL    HW2 4981   2.580   3.500   5.496  0.6620  1.2461 -1.4040
 1433SOL     OW 4982   1.677   5.067   2.702  0.4079  1.1407  0.0541
 1433SOL    HW1 4983   1.622   5.124   2.757  0.4626  1.3163 -0.0742
 1433SOL    HW2 4984   1.761   5.112   2.697  0.1372  1.5550 -0.8903
 1434SOL     OW 4985   0.897   5.266   6.050 -0.2978  0.4199 -0.5773
 1434SOL    HW1 4986   0.924   5.188   6.002 -1.5913 -1.5568  1.7215
 1434SOL    HW2 4987   0.805   5.277   6.027 -1.1184 -0.9329  1.7583
 1435SOL     OW 4988   0.328   2.098   1.548  0.5101 -0.4150  0.3576
 1435SOL    HW1 4989   0.353   2.075   1.638  2.4361 -1.1464 -0.3216
 1435SOL    HW2 4990   0.340   2.018   1.498  3.3056  0.8954 -1.2746
 1436SOL     OW 4991   5.790   3.440   1.013  0.3453 -0.8802 -0.1384
 1436SOL    HW1 4992   5.789   3.435   1.108  0.8435 -2.0854 -0.1871
 1436SOL    HW2 4993   5.735   3.516   0.993  0.4438 -0.4542  1.1083
 1437SOL     OW 4994   6.817   1.177   3.159 -0.4193  0.2926  0.1753
 1437SOL    HW1 4995   6.836   1.217   3.075 -0.3614  0.4102  0.2440
 1437SOL    HW2 4996   6.899   1.185   3.208 -1.0417  2.1410  1.0197
 1438SOL     OW 4997   6.608   2.458   2.668 -0.1664  0.1290 -0.2472
 1438SOL    HW1 4998   6.602   2.371   2.627 -1.2568 -0.3145  0.8044
 1438SOL    HW2 4999   6.664   2.445   2.744  0.2113  0.5069 -0.4552
 1439SOL     OW 5000   5.266   5.221   2.690 -0.2588 -0.3490  0.4960
 1439SOL    HW1 5001   5.255   5.312   2.662  1.6545 -0.0434  0.5707
 1439SOL    HW2 5002   5.198   5.173   2.644 -0.6299  0.9587 -0.3842
 1440SOL     OW 5003   6.834   3.320   4.417 -0.1977  0.1010  0.0960
 1440SOL    HW1 5004   6.873   3.369   4.490 -0.9611 -0.4014  0.8687
 1440SOL    HW2 5005   6.799   3.388   4.359 -1.5000  0.5160  1.2982
 1441SOL     OW 5006   0.082   5.277   1.380  0.5235 -0.2500 -0.3451
 1441SOL    HW1 5007   0.174   5.269   1.403  0.3157  0.9893  1.0999
 1441SOL    HW2 5008   0.036   5.226   1.447  0.1396 -0.3768 -0.7049
 1442SOL     OW 5009   6.231   5.263   2.309  0.0461 -0.0090  0.0269
 1442SOL    HW1 5010   6.145   5.266   2.351 -1.9887 -1.1680 -3.5917
 1442SOL    HW2 5011   6.227   5.329   2.241  2.8850  1.2716  0.9613
 1443SOL     OW 5012   1.786   0.409   1.262  0.0134  0.4245 -0.5980
 1443SOL    HW1 5013   1.753   0.432   1.348  1.5236  0.9496 -0.1374
 1443SOL    HW2 5014   1.815   0.492   1.223 -0.2533  0.1376 -1.4424
 1444SOL     OW 5015   3.454   4.517   5.618  0.0934  0.2519 -0.1712
 1444SOL    HW1 5016   3.456   4.598   5.567 -0.6071  1.6554  1.8848
 1444SOL    HW2 5017   3.542   4.480   5.608  0.6813  1.6836 -0.5581
 1445SOL     OW 5018   2.478   1.229   5.728 -0.8438  0.0070 -0.2270
 1445SOL    HW1 5019   2.525   1.309   5.705 -0.6558  0.3291  1.1682
 1445SOL    HW2 5020   2.386   1.252   5.716 -0.8212  0.6203  0.6475
 1446SOL     OW 5021   2.711   0.011   5.499  0.5186 -0.3961  0.5256
 1446SOL    HW1 5022   2.718   0.031   5.592  0.8508  0.8228  0.2555
 1446SOL    HW2 5023   2.628   0.051   5.472  0.0366 -1.4056  0.4378
 1447SOL     OW 5024   2.739   1.237   1.770  0.1764 -0.3759  0.1179
 1447SOL    HW1 5025   2.813   1.283   1.731 -0.7941  0.8445 -0.3170
 1447SOL    HW2 5026   2.773   1.204   1.854  1.4816 -0.6920 -0.5204
 1448SOL     OW 5027   3.008   0.843   5.158  0.0599  0.2375  0.1728
 1448SOL    HW1 5028   3.027   0.813   5.070 -1.7010  2.1315 -0.9463
 1448SOL    HW2 5029   2.925   0.800   5.181  1.1702 -1.2978  1.5060
 1449SOL     OW 5030   3.165   5.583   2.685  0.0660  0.3132  0.1680
 1449SOL    HW1 5031   3.127   5.508   2.640 -1.7010  0.5028  1.2639
 1449SOL    HW2 5032   3.163   5.653   2.621 -0.4434  0.0351 -0.1286
 1450SOL     OW 5033   6.740   1.734   5.886  0.5069 -0.4630 -0.4659
 1450SOL    HW1 5034   6.664   1.682   5.912  0.4107 -0.2591 -0.3367
 1450SOL    HW2 5035   6.738   1.733   5.791  1.2315 -1.7573 -0.4920
 1451SOL     OW 5036   4.561   1.568   0.797 -0.0569  0.2226 -0.0994
 1451SOL    HW1 5037   4.612   1.534   0.724 -0.4325  2.1157 -1.3147
 1451SOL    HW2 5038   4.478   1.521   0.792 -0.4846  1.0695 -1.5980
 1452SOL     OW 5039   5.686   5.403   1.306 -0.3138 -0.1434  0.3335
 1452SOL    HW1 5040   5.763   5.350   1.326 -0.5593 -0.6772 -0.0820
 1452SOL    HW2 5041   5.668   5.451   1.387  1.1954  0.9734  0.0566
 1453SOL     OW 5042   2.644   1.621   5.306 -0.1075 -0.5887 -0.0184
 1453SOL    HW1 5043   2.559   1.636   5.265 -1.2531  1.6225  2.8213
 1453SOL    HW2 5044   2.630   1.548   5.365 -0.2238  0.1589  0.8903
 1454SOL     OW 5045   2.844   5.771   3.090  0.2317 -0.4332 -0.1105
 1454SOL    HW1 5046   2.919   5.716   3.116  1.3450  1.8774  1.9544
 1454SOL    HW2 5047   2.797   5.787   3.171 -2.3172 -1.4010 -1.3074
 1455SOL     OW 5048   4.676   2.856   3.731  0.1903  0.1999  0.5765
 1455SOL    HW1 5049   4.741   2.926   3.732  1.4413 -0.7527 -2.4126
 1455SOL    HW2 5050   4.618   2.876   3.805  2.0836  2.7849  1.5175
 1456SOL     OW 5051   0.352   6.605   1.362  0.1797  0.7002 -0.3749
 1456SOL    HW1 5052   0.385   6.592   1.450 -0.3803 -0.5316 -0.3282
 1456SOL    HW2 5053   0.416   6.663   1.320  1.3560 -0.0821  0.3030
 1457SOL     OW 5054   3.346   2.942   3.936  0.0900 -0.1533 -0.6360
 1457SOL    HW1 5055   3.426   2.992   3.920  1.9604 -2.4170  0.9493
 1457SOL    HW2 5056   3.278   3.009   3.947  1.8143  1.8767 -1.6135
 1458SOL     OW 5057   4.730   3.852   1.195  0.1420 -0.4873 -0.0144
 1458SOL    HW1 5058   4.758   3.796   1.267  0.5924  1.5902  1.4914
 1458SOL    HW2 5059   4.804   3.851   1.134  0.7437 -0.3916  0.6992
 1459SOL     OW 5060   4.088   2.768   6.042 -0.4172  0.3120 -0.5116
 1459SOL    HW1 5061   4.021   2.702   6.062  0.3226 -0.5129 -0.7039
 1459SOL    HW2 5062   4.061   2.845   6.092 -0.8902 -0.3652  0.3051
 1460SOL     OW 5063   1.730   3.758   3.348 -0.4098 -0.3874  0.0956
 1460SOL    HW1 5064   1.803   3.817   3.328 -1.7587  1.7763  1.0800
 1460SOL    HW2 5065   1.676   3.758   3.269 -0.0476 -0.8879 -0.1542
 1461SOL     OW 5066   4.944   4.637   6.372 -0.6480  0.3825 -0.0197
 1461SOL    HW1 5067   4.949   4.590   6.288 -1.8190  0.0184  0.0873
 1461SOL    HW2 5068   5.030   4.677   6.383 -0.2294 -0.2069 -1.0241
 1462SOL     OW 5069   2.278   4.293   1.552  0.5171 -0.2134 -0.4254
 1462SOL    HW1 5070   2.252   4.383   1.532  1.5464 -0.1586 -1.6618
 1462SOL    HW2 5071   2.276   4.248   1.467  1.0938 -1.0579 -0.0032
 1463SOL     OW 5072   1.197   2.553   3.318 -0.1248 -0.0201 -0.4753
 1463SOL    HW1 5073   1.128   2.605   3.358  0.0029 -1.4378  1.7523
 1463SOL    HW2 5074   1.208   2.478   3.377  1.3005 -1.3532 -2.3108
 1464SOL     OW 5075   4.264   4.432   6.216  0.8697 -0.0813  0.5257
 1464SOL    HW1 5076   4.358   4.437   6.233  0.5800 -0.6775  2.6030
 1464SOL    HW2 5077   4.225   4.416   6.302 -1.1886  0.7059 -0.2015
 1465SOL     OW 5078   4.748   5.190   1.772  0.3505  0.2818 -0.3300
 1465SOL    HW1 5079   4.823   5.224   1.723  0.8955 -1.1752 -0.5561
 1465SOL    HW2 5080   4.781   5.111   1.814 -1.0861 -0.4313 -0.4839
 1466SOL     OW 5081   5.005   1.483   2.391  0.0041  0.6798 -0.3659
 1466SOL    HW1 5082   4.995   1.388   2.383  1.2744  0.2806  1.7900
 1466SOL    HW2 5083   5.097   1.500   2.370  0.6880  0.8939  2.4037
 1467SOL     OW 5084   1.907   3.208   2.140  0.1648 -0.3288  0.1647
 1467SOL    HW1 5085   1.834   3.161   2.180  0.1414 -0.7729 -0.3897
 1467SOL    HW2 5086   1.881   3.221   2.049 -0.5502  2.2236  0.6433
 1468SOL     OW 5087   2.686   4.326   4.019 -0.0677 -0.2540 -0.3232
 1468SOL    HW1 5088   2.774   4.358   4.000 -1.0492  1.3859 -2.7158
 1468SOL    HW2 5089   2.662   4.368   4.102  1.6476 -1.3949  0.7947
 1469SOL     OW 5090   1.168   1.980   1.851  0.1005  0.2515  0.7666
 1469SOL    HW1 5091   1.260   1.959   1.864 -0.3156 -2.1278  0.2844
 1469SOL    HW2 5092   1.163   2.016   1.762  0.2453 -2.2481 -0.3235
 1470SOL     OW 5093   1.079   0.194   3.094 -0.0817  0.1955  0.1421
 1470SOL    HW1 5094   1.103   0.128   3.029 -0.9540  0.3913 -0.3974
 1470SOL    HW2 5095   1.059   0.144   3.173  0.1127 -0.1206 -0.0101
 1471SOL     OW 5096   0.872   6.293   1.198 -0.2802 -0.4529 -0.0257
 1471SOL    HW1 5097   0.901   6.287   1.107 -1.6485 -1.3039 -0.4313
 1471SOL    HW2 5098   0.828   6.210   1.215 -0.3443 -0.1667  1.3155
 1472SOL     OW 5099   6.071   3.054   3.653  0.2331 -0.3339  0.9339
 1472SOL    HW1 5100   6.100   3.051   3.562 -0.3160  1.6521  0.6291
 1472SOL    HW2 5101   6.139   3.105   3.698  0.0055 -0.4461  1.4061
 1473SOL     OW 5102   6.241   5.573   5.890  0.4236 -0.1349  0.4789
 1473SOL    HW1 5103   6.273   5.562   5.801  0.0045  2.0125 -0.0062
 1473SOL    HW2 5104   6.148   5.552   5.886  0.3042  0.4096  0.2838
 1474SOL     OW 5105   0.633   4.140   2.971  0.1663 -0.4478  0.1454
 1474SOL    HW1 5106   0.676   4.142   3.057 -0.2051 -2.0677  0.3956
 1474SOL    HW2 5107   0.601   4.051   2.963 -1.0772  0.0886 -1.0702
 1475SOL     OW 5108   4.582   4.841   6.158 -0.2861 -0.0270  0.0165
 1475SOL    HW1 5109   4.605   4.750   6.174  0.5496  0.2650  0.5388
 1475SOL    HW2 5110   4.506   4.837   6.100  1.2662 -1.0249 -2.0547
 1476SOL     OW 5111   3.083   5.040   3.603 -0.4383 -0.9244  0.1399
 1476SOL    HW1 5112   3.167   5.067   3.642 -0.8784  0.2921  0.2977
 1476SOL    HW2 5113   3.092   4.946   3.591  0.8930 -0.8502  0.3116
 1477SOL     OW 5114   2.264   2.756   2.634  0.1343  0.1022 -0.2911
 1477SOL    HW1 5115   2.169   2.773   2.636  0.2905  0.9901 -0.0366
 1477SOL    HW2 5116   2.297   2.815   2.567  0.2791 -1.5230 -1.7130
 1478SOL     OW 5117   3.320   0.030   0.294 -0.1553  0.2713 -0.0776
 1478SOL    HW1 5118   3.368   0.108   0.266 -0.4079 -0.1502 -1.7299
 1478SOL    HW2 5119   3.368  -0.043   0.255  1.9336 -0.7731  3.8937
 1479SOL     OW 5120   1.592   6.487   6.161  0.3207 -0.4216 -0.1488
 1479SOL    HW1 5121   1.500   6.463   6.173  0.2870  0.1835  1.0086
 1479SOL    HW2 5122   1.636   6.406   6.136 -0.1442 -1.2371  1.5605
 1480SOL     OW 5123   0.086   3.867   0.055  0.1923 -0.3661  0.3460
 1480SOL    HW1 5124   0.121   3.952   0.084  1.4213 -0.9565  0.6551
 1480SOL    HW2 5125   0.164   3.814   0.037 -0.5551 -1.1934 -0.5794
 1481SOL     OW 5126   1.407   0.730   4.746  0.8388  0.1937  0.4083
 1481SOL    HW1 5127   1.433   0.644   4.712  0.2299  0.4254 -0.6767
 1481SOL    HW2 5128   1.473   0.790   4.713 -0.6521  0.6913 -1.8760
 1482SOL     OW 5129   5.917   4.753   5.254  0.0891 -0.2272 -1.1336
 1482SOL    HW1 5130   5.986   4.701   5.214 -0.6276 -0.4958 -2.0397
 1482SOL    HW2 5131   5.963   4.828   5.292  0.7778  0.1940 -2.7179
 1483SOL     OW 5132   2.884   0.458   1.825  0.1428 -0.0191 -0.0885
 1483SOL    HW1 5133   2.834   0.481   1.747  0.9671 -0.9655 -0.9411
 1483SOL    HW2 5134   2.820   0.421   1.885 -0.2498 -0.9896 -1.0614
 1484SOL     OW 5135   0.880   5.734   0.405  0.8022  0.0325 -0.5417
 1484SOL    HW1 5136   0.870   5.820   0.364 -0.9459 -0.9366 -2.2793
 1484SOL    HW2 5137   0.801   5.724   0.459  1.0227 -0.4632 -0.3050
 1485SOL     OW 5138   0.952   1.591   3.785  0.2625  0.0469  0.0333
 1485SOL    HW1 5139   0.974   1.500   3.801 -0.2540  0.0287  0.6755
 1485SOL    HW2 5140   0.940   1.597   3.690 -0.3984 -0.7167  0.0579
 1486SOL     OW 5141   2.506   6.662   1.213 -1.0534  0.0373 -0.1726
 1486SOL    HW1 5142   2.443   6.711   1.266  1.5075  0.7092  2.5435
 1486SOL    HW2 5143   2.563   6.729   1.175 -0.9189 -0.6129 -1.1675
 1487SOL     OW 5144   0.309   1.312   5.340  0.0879 -0.3618  0.0570
 1487SOL    HW1 5145   0.325   1.397   5.380  0.7455  0.6617 -2.2404
 1487SOL    HW2 5146   0.342   1.249   5.404 -0.5445  1.0621  1.8733
 1488SOL     OW 5147   4.671   1.354   5.354  0.7804  0.3585  0.3203
 1488SOL    HW1 5148   4.649   1.429   5.299  1.0434 -1.5488 -2.6675
 1488SOL    HW2 5149   4.723   1.297   5.296  0.2615 -2.2908  2.2619
 1489SOL     OW 5150   0.327   3.876   3.925 -0.4920  0.1925  0.1842
 1489SOL    HW1 5151   0.336   3.852   3.833  0.7146 -0.7021  0.5148
 1489SOL    HW2 5152   0.288   3.964   3.923 -1.5333 -0.2566 -1.1397
 1490SOL     OW 5153   4.129   1.459   4.181  0.1912 -0.3101 -0.1129
 1490SOL    HW1 5154   4.108   1.372   4.214 -0.9139 -0.2255 -0.5622
 1490SOL    HW2 5155   4.049   1.489   4.139  0.7985  0.6077 -0.6545
 1491SOL     OW 5156   1.310   3.583   4.259  0.2040  1.0526 -0.0423
 1491SOL    HW1 5157   1.224   3.598   4.299  0.4083  1.7461  0.1489
 1491SOL    HW2 5158   1.303   3.620   4.171  0.3795  1.3123  0.0529
 1492SOL     OW 5159   5.009   2.683   1.038  0.2976 -0.8087  0.1534
 1492SOL    HW1 5160   4.988   2.660   0.948  0.3121 -1.1036  0.2254
 1492SOL    HW2 5161   4.951   2.629   1.092  0.4266 -0.7798  0.3246
 1493SOL     OW 5162   2.387   4.794   2.338  0.3877 -0.4877  0.2118
 1493SOL    HW1 5163   2.331   4.732   2.384  0.1629  0.3532  1.0818
 1493SOL    HW2 5164   2.456   4.739   2.299  0.1146 -1.2949  0.8454
 1494SOL     OW 5165   1.841   2.441   2.390  0.5404 -0.2386 -0.4420
 1494SOL    HW1 5166   1.901   2.515   2.397 -0.3056  0.4460 -0.1918
 1494SOL    HW2 5167   1.807   2.446   2.300  1.0443 -0.7888 -0.6742
 1495SOL     OW 5168   0.602   5.703   6.715  0.1475  0.9138 -0.2377
 1495SOL    HW1 5169   0.616   5.789   6.676 -0.6587  1.3299  0.3467
 1495SOL    HW2 5170   0.508   5.699   6.731  0.0200 -0.4734 -1.1270
 1496SOL     OW 5171   5.194   5.439   1.915 -0.5888 -0.1351 -0.6343
 1496SOL    HW1 5172   5.250   5.385   1.860  0.8403  0.7516 -0.1035
 1496SOL    HW2 5173   5.108   5.437   1.872 -0.0996 -1.3224 -1.5941
 1497SOL     OW 5174   0.193   6.085   5.561 -0.4808 -0.3312 -0.2694
 1497SOL    HW1 5175   0.289   6.083   5.558 -0.4776  0.3271 -1.0457
 1497SOL    HW2 5176   0.170   6.163   5.510 -1.5115 -1.7195 -2.0185
 1498SOL     OW 5177   5.553   0.876   1.902 -0.3517 -0.0768  0.0516
 1498SOL    HW1 5178   5.576   0.960   1.863 -1.4909  1.0305  1.6540
 1498SOL    HW2 5179   5.458   0.872   1.896 -0.4002 -0.7149  1.0364
 1499SOL     OW 5180   0.663   2.424   0.237 -0.2829 -0.1393  0.6765
 1499SOL    HW1 5181   0.663   2.475   0.156 -0.9456 -0.2766  0.5841
 1499SOL    HW2 5182   0.678   2.489   0.305  0.3994 -0.0404  0.4383
 1500SOL     OW 5183   4.380   1.703   0.624  1.1578  0.1684  0.3054
 1500SOL    HW1 5184   4.424   1.689   0.708  1.6960 -0.0479 -0.0052
 1500SOL    HW2 5185   4.291   1.670   0.637  1.5124 -0.7423  0.5103
 1501SOL     OW 5186   3.874   2.397   2.895 -0.0667 -0.9560 -0.5850
 1501SOL    HW1 5187   3.816   2.331   2.935 -0.7935 -0.9061 -1.5265
 1501SOL    HW2 5188   3.820   2.476   2.890  0.5111 -0.5392 -0.2928
 1502SOL     OW 5189   2.606   0.504   3.127  0.1021  0.1710  0.0071
 1502SOL    HW1 5190   2.541   0.545   3.070  1.2141 -0.1634 -1.5649
 1502SOL    HW2 5191   2.557   0.478   3.205 -1.7741 -0.5881 -1.3601
 1503SOL     OW 5192   1.104   6.020   5.244  0.3904 -0.4930 -0.8855
 1503SOL    HW1 5193   1.106   6.104   5.289  0.5957 -0.8634 -0.1760
 1503SOL    HW2 5194   1.030   6.026   5.184  0.3980  0.1841 -0.8341
 1504SOL     OW 5195   2.526   5.188   1.338  0.6243  0.1385  0.7129
 1504SOL    HW1 5196   2.529   5.101   1.378 -2.1019  0.1163  1.0397
 1504SOL    HW2 5197   2.443   5.225   1.368  0.5516  1.8632 -1.4238
 1505SOL     OW 5198   0.993   5.221   4.344 -0.4316  0.0595  0.0043
 1505SOL    HW1 5199   1.045   5.291   4.305  1.1751 -0.9313  0.2642
 1505SOL    HW2 5200   0.993   5.151   4.278 -1.4521  0.0329  0.0145
 1506SOL     OW 5201   4.836   3.262   6.734 -0.3557 -0.2035  0.3481
 1506SOL    HW1 5202   4.801   3.350   6.723 -0.5012 -0.4619 -1.8251
 1506SOL    HW2 5203   4.931   3.273   6.729 -0.2691  0.0162  2.0158
 1507SOL     OW 5204   3.416   2.345   2.989 -0.1984 -0.0337 -0.4319
 1507SOL    HW1 5205   3.356   2.275   3.013  0.4739 -0.7572 -0.7717
 1507SOL    HW2 5206   3.391   2.419   3.043 -0.0811 -0.9523  0.9208
 1508SOL     OW 5207   4.724   5.037   4.357  0.7212 -0.4999  0.1061
 1508SOL    HW1 5208   4.713   4.995   4.442 -2.9183  0.0682  0.1069
 1508SOL    HW2 5209   4.737   4.965   4.296 -2.5618 -1.6136  0.4880
 1509SOL     OW 5210   1.303   3.098   4.231 -0.8136  0.2233  0.0429
 1509SOL    HW1 5211   1.304   3.154   4.154 -0.2174  0.4805  0.2275
 1509SOL    HW2 5212   1.392   3.063   4.236 -0.6583  0.6941  0.9481
 1510SOL     OW 5213   1.755   1.963   3.912  0.2480 -0.3971  0.5222
 1510SOL    HW1 5214   1.736   1.869   3.914  2.3650 -0.8813  2.7048
 1510SOL    HW2 5215   1.850   1.968   3.908  0.1475  1.7051 -0.6342
 1511SOL     OW 5216   1.530   2.577   6.758 -0.5774 -0.5620 -0.1035
 1511SOL    HW1 5217   1.447   2.616   6.730 -0.8727 -0.2734  1.1306
 1511SOL    HW2 5218   1.591   2.598   6.687 -0.8082  1.8812  0.3318
 1512SOL     OW 5219   2.503   6.444   1.588 -0.2787 -0.3268  0.0918
 1512SOL    HW1 5220   2.456   6.513   1.541 -0.6839  0.0462  1.0280
 1512SOL    HW2 5221   2.434   6.388   1.624 -0.0353  0.2455  1.5095
 1513SOL     OW 5222   1.368   0.938   2.262  0.0423  0.3175  0.1491
 1513SOL    HW1 5223   1.330   1.003   2.203  0.8201  1.7978  1.1898
 1513SOL    HW2 5224   1.338   0.854   2.229 -1.3970  1.2308 -0.9815
 1514SOL     OW 5225   6.305   1.380   2.550 -0.4223  0.3916  0.2302
 1514SOL    HW1 5226   6.242   1.434   2.502 -0.7340  0.2160  0.4389
 1514SOL    HW2 5227   6.373   1.360   2.485 -0.5354  0.6584  0.0278
 1515SOL     OW 5228   2.938   6.466   0.375 -0.2125  0.0498 -0.1374
 1515SOL    HW1 5229   2.910   6.460   0.466 -1.0095  0.5028 -0.3428
 1515SOL    HW2 5230   2.857   6.460   0.325  0.1178  0.7523 -0.7755
 1516SOL     OW 5231   4.899   6.023   4.722 -0.6545 -0.1973 -0.8468
 1516SOL    HW1 5232   4.959   6.096   4.741 -1.0750 -0.3054  1.0046
 1516SOL    HW2 5233   4.816   6.066   4.700 -0.7499 -0.1106 -0.3138
 1517SOL     OW 5234   3.478   0.306   0.298  0.0237  0.5022 -0.3752
 1517SOL    HW1 5235   3.393   0.349   0.308 -0.2079  0.5494 -2.1007
 1517SOL    HW2 5236   3.472   0.262   0.213  1.4250 -0.2275 -0.1274
 1518SOL     OW 5237   1.054   4.768   1.616  0.1068  0.7375  0.0345
 1518SOL    HW1 5238   1.065   4.705   1.687  2.0119  0.8941 -0.0608
 1518SOL    HW2 5239   1.065   4.716   1.536  0.1479  0.9238 -0.0828
 1519SOL     OW 5240   4.612   5.816   4.401  0.6612  0.1020  0.8051
 1519SOL    HW1 5241   4.684   5.875   4.379  0.6629  0.3436  1.4511
 1519SOL    HW2 5242   4.631   5.736   4.351  1.4173  0.1325  1.0315
 1520SOL     OW 5243   6.684   0.866   6.848  0.1559  0.3989  0.3595
 1520SOL    HW1 5244   6.694   0.943   6.905  1.1490  0.4794  0.0886
 1520SOL    HW2 5245   6.597   0.832   6.869  0.2332  0.8304  1.4342
 1521SOL     OW 5246   5.221   6.355   2.590 -0.2364  0.0411 -0.0356
 1521SOL    HW1 5247   5.163   6.341   2.665 -0.1079 -0.5511 -0.0412
 1521SOL    HW2 5248   5.309   6.352   2.627 -0.1472 -0.8940 -0.2981
 1522SOL     OW 5249   6.828   0.554   6.819 -0.2586  0.0550 -0.3762
 1522SOL    HW1 5250   6.781   0.587   6.743 -0.8736 -0.2134 -0.1142
 1522SOL    HW2 5251   6.835   0.460   6.806 -0.8322 -0.0679  0.1451
 1523SOL     OW 5252   6.387   2.746   1.124 -0.1344 -0.4973 -0.0603
 1523SOL    HW1 5253   6.367   2.769   1.034 -1.9603  0.4803  0.5520
 1523SOL    HW2 5254   6.464   2.798   1.146  0.9713 -1.5233 -1.3263
 1524SOL     OW 5255   4.758   6.638   0.004  0.0558 -0.1535 -0.0798
 1524SOL    HW1 5256   4.748   6.629   0.099 -0.0645 -4.3049 -0.3295
 1524SOL    HW2 5257   4.725   6.726  -0.015 -3.3529 -0.4701  3.2637
 1525SOL     OW 5258   5.201   2.628   3.539  0.4020  0.2905  0.0476
 1525SOL    HW1 5259   5.232   2.596   3.454 -1.6311 -1.1873 -0.2273
 1525SOL    HW2 5260   5.157   2.710   3.520 -0.1483 -0.0957 -0.3563
 1526SOL     OW 5261   4.404   1.391   3.154 -0.3069  0.1567  0.2454
 1526SOL    HW1 5262   4.421   1.349   3.238 -0.9390 -0.0720  0.2632
 1526SOL    HW2 5263   4.489   1.429   3.128  0.5713 -1.9872 -0.2495
 1527SOL     OW 5264   3.861   3.634   0.563 -0.1168  0.1865  0.0234
 1527SOL    HW1 5265   3.916   3.586   0.624  1.2547  0.0460 -1.2567
 1527SOL    HW2 5266   3.861   3.724   0.597  1.5214  0.3460 -0.3196
 1528SOL     OW 5267   2.493   5.885   0.664 -0.2323 -0.4509 -0.1814
 1528SOL    HW1 5268   2.458   5.835   0.590 -0.8123 -0.9613  0.4096
 1528SOL    HW2 5269   2.432   5.865   0.736  0.4789 -0.1990  0.5021
 1529SOL     OW 5270   6.260   2.327   2.530  0.6430  0.1190 -0.4152
 1529SOL    HW1 5271   6.179   2.285   2.562 -0.7971  2.3421 -0.9567
 1529SOL    HW2 5272   6.278   2.283   2.447 -0.2276 -0.1289 -0.4843
 1530SOL     OW 5273   2.784   3.466   0.721  0.1678 -0.1391  0.1446
 1530SOL    HW1 5274   2.780   3.470   0.625  1.3003 -1.7517 -0.0123
 1530SOL    HW2 5275   2.696   3.440   0.747 -0.5490  1.7019 -0.3344
 1531SOL     OW 5276   5.944   3.327   6.307 -0.4516  0.3036  0.4641
 1531SOL    HW1 5277   6.006   3.346   6.377 -0.0074  1.8424 -0.3103
 1531SOL    HW2 5278   5.889   3.257   6.342  1.8736 -1.3248  1.0824
 1532SOL     OW 5279   1.918   1.512   0.409 -0.4667  0.6838  0.0693
 1532SOL    HW1 5280   1.933   1.601   0.442  2.4194  0.7998 -1.2257
 1532SOL    HW2 5281   2.002   1.467   0.421 -1.7039 -1.7478  0.2226
 1533SOL     OW 5282   1.206   4.258   5.610  0.6361 -0.6650  0.0059
 1533SOL    HW1 5283   1.230   4.333   5.664 -2.5645 -0.7281  1.7465
 1533SOL    HW2 5284   1.262   4.187   5.641  1.1292  0.1177  0.9639
 1534SOL     OW 5285   0.973   4.575   2.115  0.0964  0.0555 -0.3467
 1534SOL    HW1 5286   1.059   4.571   2.073 -1.1924 -4.0977 -3.2198
 1534SOL    HW2 5287   0.971   4.498   2.171 -1.6234  0.2902 -0.0542
 1535SOL     OW 5288   1.535   2.734   1.832 -0.2567  0.4156  0.3567
 1535SOL    HW1 5289   1.629   2.732   1.813  0.1069 -0.5936  2.0984
 1535SOL    HW2 5290   1.528   2.707   1.923 -2.3711 -1.0912 -0.1771
 1536SOL     OW 5291   0.592   0.376   1.639  0.2727  0.3108  0.3938
 1536SOL    HW1 5292   0.547   0.438   1.696 -0.6560 -0.3001  0.3457
 1536SOL    HW2 5293   0.657   0.334   1.695  0.3566  0.7535  0.6290
 1537SOL     OW 5294   5.701   0.622   4.950  0.1848  0.8620 -0.1455
 1537SOL    HW1 5295   5.654   0.674   4.886 -0.4310 -1.3944 -1.6382
 1537SOL    HW2 5296   5.725   0.542   4.904  0.6214 -0.4367  2.1496
 1538SOL     OW 5297   6.541   3.369   4.074 -0.4288  0.0768  0.1073
 1538SOL    HW1 5298   6.535   3.312   3.997  0.1846  0.9038 -0.5750
 1538SOL    HW2 5299   6.452   3.372   4.108 -0.5141 -1.1215  0.0525
 1539SOL     OW 5300   2.942   2.488   0.498  0.2862  0.7374  0.0063
 1539SOL    HW1 5301   2.906   2.576   0.483  0.2957  1.0297  1.5096
 1539SOL    HW2 5302   2.872   2.441   0.543 -0.4951 -0.7335 -2.5074
 1540SOL     OW 5303   5.909   4.251   2.990 -0.1557 -1.4178  0.0165
 1540SOL    HW1 5304   5.949   4.286   2.911  0.8589  0.1805  1.1670
 1540SOL    HW2 5305   5.946   4.164   2.999  1.3633 -0.8266 -0.1792
 1541SOL     OW 5306   2.241   3.897   5.413 -0.1367 -0.4986 -0.7833
 1541SOL    HW1 5307   2.300   3.855   5.476 -0.0031 -0.4905 -0.9034
 1541SOL    HW2 5308   2.299   3.936   5.348 -0.2091  0.8489 -0.0754
 1542SOL     OW 5309   5.312   0.815   2.243  0.1126  0.0999 -0.1390
 1542SOL    HW1 5310   5.283   0.855   2.161  1.4889  0.5866 -0.4134
 1542SOL    HW2 5311   5.273   0.727   2.241 -1.8751  0.9194 -0.1372
 1543SOL     OW 5312   0.108   1.895   0.072 -0.2823  0.1377  0.6522
 1543SOL    HW1 5313   0.156   1.950   0.134  0.8798 -1.0846  0.8996
 1543SOL    HW2 5314   0.174   1.836   0.036 -1.2591 -0.3165 -0.4838
 1544SOL     OW 5315   0.645   3.759   4.655 -0.4032 -0.8775 -0.0637
 1544SOL    HW1 5316   0.661   3.763   4.749  1.2828  0.2531 -0.3590
 1544SOL    HW2 5317   0.607   3.844   4.633  0.2648 -0.7048 -0.5728
 1545SOL     OW 5318   5.068   0.173   4.033 -0.2719  0.2851 -0.0696
 1545SOL    HW1 5319   5.153   0.163   3.990  0.0874  0.7781  0.5205
 1545SOL    HW2 5320   5.041   0.083   4.052  0.7658  0.1680  0.9696
 1546SOL     OW 5321   4.100   4.205   1.823  0.0637 -0.0230  0.2675
 1546SOL    HW1 5322   4.008   4.179   1.826  0.2441 -0.7844 -0.4718
 1546SOL    HW2 5323   4.149   4.124   1.837  0.6277  0.1855 -0.4519
 1547SOL     OW 5324   2.914   3.696   1.342 -0.0199  0.2298  0.0649
 1547SOL    HW1 5325   2.861   3.771   1.315  0.4797  0.8933  0.8736
 1547SOL    HW2 5326   2.914   3.700   1.438 -0.8074 -1.3941  0.1540
 1548SOL     OW 5327   2.297   5.397   2.023 -0.3020 -0.3676  0.2279
 1548SOL    HW1 5328   2.298   5.492   2.008 -0.2736 -0.2467  0.9682
 1548SOL    HW2 5329   2.375   5.380   2.076  0.9687 -1.1348 -1.7531
 1549SOL     OW 5330   5.566   0.213   3.996 -0.0660  0.2959 -0.3130
 1549SOL    HW1 5331   5.515   0.211   3.916 -0.6984  0.0752  0.0887
 1549SOL    HW2 5332   5.509   0.255   4.060  0.0479 -0.4304  0.2777
 1550SOL     OW 5333   6.528   5.139   6.653 -0.3203 -0.3001 -0.0663
 1550SOL    HW1 5334   6.573   5.218   6.683  0.0747 -0.2841 -0.6922
 1550SOL    HW2 5335   6.464   5.120   6.722 -0.4049  0.5539  0.0945
 1551SOL     OW 5336   2.512   3.609   1.965 -0.2168  0.2639 -0.7867
 1551SOL    HW1 5337   2.419   3.590   1.977  0.2974 -1.9317  0.2777
 1551SOL    HW2 5338   2.517   3.705   1.966 -2.4716  0.4467 -1.1354
 1552SOL     OW 5339   2.582   4.911   3.612 -0.1085 -0.1384  0.1650
 1552SOL    HW1 5340   2.581   4.838   3.673  0.2918  0.7876  1.3150
 1552SOL    HW2 5341   2.667   4.906   3.569 -1.1558 -2.0101 -1.9117
 1553SOL     OW 5342   4.481   4.189   0.846 -0.0513 -0.2062 -0.6352
 1553SOL    HW1 5343   4.481   4.118   0.781  1.6941 -0.7510 -0.0836
 1553SOL    HW2 5344   4.514   4.148   0.926 -1.8248  0.5397  0.5362
 1554SOL     OW 5345   3.119   5.107   0.604  0.0508  0.2926  0.4219
 1554SOL    HW1 5346   3.050   5.062   0.555  0.6532 -1.3953  1.0294
 1554SOL    HW2 5347   3.171   5.036   0.642  0.8309  1.5277  1.7705
 1555SOL     OW 5348   1.300   2.165   3.263  0.6407 -0.8503  0.3106
 1555SOL    HW1 5349   1.206   2.146   3.271  0.4802  0.4380  1.8693
 1555SOL    HW2 5350   1.342   2.094   3.311  0.1943  0.7336  3.2900
 1556SOL     OW 5351   4.291   5.078   6.790 -0.2747 -0.3622  0.1909
 1556SOL    HW1 5352   4.323   5.153   6.840 -1.4045 -0.2323  0.7632
 1556SOL    HW2 5353   4.332   5.087   6.704 -2.4498  2.5216 -0.7387
 1557SOL     OW 5354   0.559   2.111   6.305  0.2140 -0.3250 -0.0114
 1557SOL    HW1 5355   0.594   2.026   6.281  0.9710 -0.2529  0.8166
 1557SOL    HW2 5356   0.509   2.139   6.227  0.1989 -1.3758 -0.3928
 1558SOL     OW 5357   5.490   6.182   4.381 -0.0231  0.1647 -0.1074
 1558SOL    HW1 5358   5.551   6.141   4.443 -0.2732 -1.0018 -0.6089
 1558SOL    HW2 5359   5.412   6.126   4.384 -0.5912  0.9266 -0.4118
 1559SOL     OW 5360   0.091   2.365   5.448 -1.0181  0.1463 -0.2761
 1559SOL    HW1 5361   0.143   2.444   5.455  0.4073 -0.8170  0.5430
 1559SOL    HW2 5362   0.043   2.359   5.531 -0.0008 -0.5721  0.2840
 1560SOL     OW 5363   0.398   0.395   1.410  0.4354 -0.2968  0.5291
 1560SOL    HW1 5364   0.493   0.394   1.424  0.6381  1.3993 -0.3616
 1560SOL    HW2 5365   0.365   0.456   1.476  0.1952  0.3630 -0.1848
 1561SOL     OW 5366   0.732   5.439   0.838 -0.1484  0.1558 -0.1649
 1561SOL    HW1 5367   0.652   5.391   0.817 -0.9691  1.3112  0.2069
 1561SOL    HW2 5368   0.738   5.436   0.933  0.0144  0.4447 -0.1650
 1562SOL     OW 5369   2.997   3.784   5.696 -0.2291  0.2222  0.3423
 1562SOL    HW1 5370   2.962   3.699   5.724 -0.4029  0.3461  0.5036
 1562SOL    HW2 5371   2.955   3.847   5.754  1.7881  0.1932  1.9307
 1563SOL     OW 5372   6.682   6.029   5.474  0.7822  0.0144  0.0337
 1563SOL    HW1 5373   6.762   6.044   5.424  0.4253  1.8401 -0.0626
 1563SOL    HW2 5374   6.638   5.957   5.428  1.3880  0.3753 -1.1502
 1564SOL     OW 5375   2.462   5.679   4.128  0.1999  0.2194  0.5029
 1564SOL    HW1 5376   2.515   5.600   4.116  0.2899  0.4548 -0.8506
 1564SOL    HW2 5377   2.486   5.735   4.054 -1.7130  0.4566  0.0231
 1565SOL     OW 5378   6.032   1.112   4.785  0.1895 -0.4319  0.7362
 1565SOL    HW1 5379   6.093   1.147   4.720 -0.9697  0.3640  0.0296
 1565SOL    HW2 5380   6.074   1.032   4.817  1.2941 -0.2502 -0.1799
 1566SOL     OW 5381   2.889   1.613   0.690  0.9593  0.3133  0.1394
 1566SOL    HW1 5382   2.890   1.704   0.660  0.6361  0.3076  0.1113
 1566SOL    HW2 5383   2.978   1.582   0.674  0.7191  0.2026 -1.1459
 1567SOL     OW 5384   4.367   2.499   0.136  0.5456 -0.3161 -0.5686
 1567SOL    HW1 5385   4.340   2.480   0.226 -0.5656 -1.6284 -1.1408
 1567SOL    HW2 5386   4.367   2.594   0.131 -0.8262 -0.2316  0.4168
 1568SOL     OW 5387   1.387   5.806   3.311 -0.0922 -0.4412 -0.0898
 1568SOL    HW1 5388   1.378   5.823   3.404 -0.5889 -0.5764 -0.1091
 1568SOL    HW2 5389   1.421   5.716   3.307  2.8575  0.5617  0.0180
 1569SOL     OW 5390   1.856   1.493   5.261  0.1520  0.2599 -0.1577
 1569SOL    HW1 5391   1.779   1.550   5.250 -0.1292  0.1783  1.1876
 1569SOL    HW2 5392   1.847   1.458   5.350  0.9819 -0.9136 -0.5149
 1570SOL     OW 5393   0.354   2.190   6.504  0.8364 -0.5511 -0.0399
 1570SOL    HW1 5394   0.358   2.118   6.566 -1.1920 -0.2568  0.5220
 1570SOL    HW2 5395   0.424   2.172   6.442  3.1031 -0.7327  2.4071
 1571SOL     OW 5396   3.368   6.250   6.599  0.2024  0.2580 -0.3789
 1571SOL    HW1 5397   3.382   6.336   6.640  1.9099  0.0814 -0.5261
 1571SOL    HW2 5398   3.444   6.237   6.543 -0.7139 -0.7611 -1.4359
 1572SOL     OW 5399   2.665   1.015   3.850  0.3478 -0.2066  0.5713
 1572SOL    HW1 5400   2.748   0.994   3.893  0.7084  0.1040  0.0503
 1572SOL    HW2 5401   2.616   1.066   3.914  1.5173  1.6082  0.1142
 1573SOL     OW 5402   6.476   5.838   2.502 -0.4192 -0.7592 -0.2262
 1573SOL    HW1 5403   6.517   5.756   2.476 -0.1325 -0.4135 -0.8943
 1573SOL    HW2 5404   6.486   5.895   2.426 -1.1073 -0.2854  0.0246
 1574SOL     OW 5405   1.593   1.677   3.846 -0.5686 -0.0747  0.8010
 1574SOL    HW1 5406   1.684   1.661   3.871 -0.5266  0.8428  1.2385
 1574SOL    HW2 5407   1.592   1.661   3.751  0.1097  0.1792  0.7449
 1575SOL     OW 5408   2.044   0.924   4.456  0.0291  0.0353  0.4286
 1575SOL    HW1 5409   2.043   0.894   4.547 -0.4124  0.3294  0.5252
 1575SOL    HW2 5410   2.020   1.017   4.462 -1.6968 -0.3355 -0.1197
 1576SOL     OW 5411   1.619   4.492   1.633  0.3769  0.3803 -0.1362
 1576SOL    HW1 5412   1.619   4.563   1.698  1.9785  1.2490 -1.0204
 1576SOL    HW2 5413   1.712   4.468   1.625  0.1483 -0.0536 -1.7279
 1577SOL     OW 5414   4.477   0.593   6.016 -0.3852 -0.1176  0.1904
 1577SOL    HW1 5415   4.446   0.591   5.925  0.7203  0.6155 -0.2315
 1577SOL    HW2 5416   4.486   0.687   6.036 -0.9332 -0.2631  1.1817
 1578SOL     OW 5417   5.032   6.499   0.834 -0.3757  0.0690 -0.1098
 1578SOL    HW1 5418   4.991   6.432   0.888 -1.2658  0.1217 -0.6935
 1578SOL    HW2 5419   4.971   6.572   0.835  0.6645  0.9551  0.6578
 1579SOL     OW 5420   0.447   1.571   6.747  0.1282 -0.0748  0.4540
 1579SOL    HW1 5421   0.394   1.505   6.702  1.0982 -0.7885  0.3180
 1579SOL    HW2 5422   0.493   1.617   6.676 -0.3836  0.6135  0.5615
 1580SOL     OW 5423   0.065   0.546   1.041 -0.1450 -0.4501 -0.4567
 1580SOL    HW1 5424  -0.002   0.497   1.089  0.4830 -2.0624 -1.1273
 1580SOL    HW2 5425   0.134   0.562   1.105 -0.0011 -1.2015 -0.4129
 1581SOL     OW 5426   5.653   5.088   4.423  0.3076 -0.0139 -0.2226
 1581SOL    HW1 5427   5.571   5.109   4.467  1.5531  1.8343  1.4042
 1581SOL    HW2 5428   5.630   5.078   4.331 -2.1582 -2.3513  0.5203
 1582SOL     OW 5429   2.208   5.787   6.866  0.7480 -0.4947  0.1706
 1582SOL    HW1 5430   2.240   5.703   6.901  2.1715  0.4507  1.2263
 1582SOL    HW2 5431   2.152   5.822   6.935  1.4250  0.1414  0.4104
 1583SOL     OW 5432   5.413   5.141   2.451  1.3849 -0.2528 -0.1387
 1583SOL    HW1 5433   5.470   5.218   2.449  1.4933 -0.3082  0.7445
 1583SOL    HW2 5434   5.402   5.121   2.543  1.8607 -1.6696 -0.3734
 1584SOL     OW 5435   6.153   1.017   3.881 -0.3924  0.1878 -0.1847
 1584SOL    HW1 5436   6.144   0.943   3.940  0.0801  0.6271  0.4571
 1584SOL    HW2 5437   6.080   1.009   3.820  0.8445 -2.0129 -1.5056
 1585SOL     OW 5438   2.329   6.303   0.173 -0.4307  0.3118 -0.1185
 1585SOL    HW1 5439   2.344   6.247   0.250  3.5199  1.2781  0.0536
 1585SOL    HW2 5440   2.347   6.246   0.098  2.1403  0.8281  0.0124
 1586SOL     OW 5441   4.857   5.870   6.350 -0.2548 -0.3625 -0.2955
 1586SOL    HW1 5442   4.773   5.913   6.337 -0.8204 -0.8708  1.3803
 1586SOL    HW2 5443   4.905   5.886   6.269 -1.9176  0.0239 -1.2557
 1587SOL     OW 5444   0.574   2.825   0.336 -0.5094  0.0943  0.0052
 1587SOL    HW1 5445   0.639   2.764   0.371 -0.4609  0.3519  0.3637
 1587SOL    HW2 5446   0.501   2.821   0.397 -0.2916  0.7897  0.3192
 1588SOL     OW 5447   6.853   3.435   6.672 -0.3584  0.8198  0.0616
 1588SOL    HW1 5448   6.899   3.417   6.753 -1.4239  0.3838  0.5922
 1588SOL    HW2 5449   6.921   3.464   6.611  0.9504 -1.7254  0.1859
 1589SOL     OW 5450   4.443   0.910   1.844 -0.1340 -0.2137 -0.0589
 1589SOL    HW1 5451   4.520   0.963   1.865 -0.8535  1.2882 -1.0354
 1589SOL    HW2 5452   4.391   0.909   1.924  0.9834 -1.4496  0.6876
 1590SOL     OW 5453   3.190   2.480   1.704  0.6024 -0.3609 -0.4672
 1590SOL    HW1 5454   3.142   2.562   1.710  0.6046 -0.4151  0.3665
 1590SOL    HW2 5455   3.124   2.412   1.717  0.8252 -0.4490  0.2341
 1591SOL     OW 5456   5.579   0.095   4.497 -0.3746 -0.0774 -0.4530
 1591SOL    HW1 5457   5.619   0.176   4.466 -4.9250  2.0831 -1.6117
 1591SOL    HW2 5458   5.599   0.031   4.429 -0.2354  1.3268 -1.8018
 1592SOL     OW 5459   1.132   5.429   4.221  0.1651  0.1526  0.5841
 1592SOL    HW1 5460   1.128   5.458   4.130 -0.2463 -0.9785  0.2244
 1592SOL    HW2 5461   1.120   5.509   4.272  1.4571  0.9660 -0.3331
 1593SOL     OW 5462   0.502   1.312   2.508  0.4925  0.2428 -0.4946
 1593SOL    HW1 5463   0.560   1.335   2.436  1.2905 -0.4088 -0.0782
 1593SOL    HW2 5464   0.517   1.219   2.523  0.5983  0.4324  0.7256
 1594SOL     OW 5465   5.688   0.057   5.978  0.0283  0.0008 -0.7255
 1594SOL    HW1 5466   5.601   0.050   6.016  0.1901  1.5119 -0.0245
 1594SOL    HW2 5467   5.683   0.130   5.916  1.1184  1.0627  0.3689
 1595SOL     OW 5468   4.829   5.443   2.497  0.3502 -0.2028  0.4082
 1595SOL    HW1 5469   4.752   5.493   2.525 -1.1162 -1.9083 -0.3961
 1595SOL    HW2 5470   4.874   5.502   2.435 -1.2590  0.2106 -0.4164
 1596SOL     OW 5471   5.055   1.910   5.306  0.5388  0.0718 -0.0102
 1596SOL    HW1 5472   5.004   1.902   5.387 -2.3655  2.4757 -1.4003
 1596SOL    HW2 5473   5.008   1.856   5.243  0.8441  0.7991 -0.8802
 1597SOL     OW 5474   1.288   6.008   2.681 -0.5514 -0.1420 -0.2918
 1597SOL    HW1 5475   1.373   5.964   2.695 -1.1735 -1.1020  0.5966
 1597SOL    HW2 5476   1.289   6.031   2.588  1.5793  1.8358  0.1290
 1598SOL     OW 5477   6.792   1.349   2.940 -0.2678 -0.3995  0.4325
 1598SOL    HW1 5478   6.881   1.369   2.913 -0.1363 -1.7579 -0.1807
 1598SOL    HW2 5479   6.760   1.431   2.979  1.1573  0.1592  0.4675
 1599SOL     OW 5480   5.054   6.257   2.811 -0.3950 -0.0714 -0.0925
 1599SOL    HW1 5481   5.025   6.185   2.754  0.9218 -0.1973 -0.6417
 1599SOL    HW2 5482   5.068   6.215   2.897 -0.1392 -0.3788 -0.2793
 1600SOL     OW 5483   5.844   6.291   3.488  0.1471 -0.8000 -0.2068
 1600SOL    HW1 5484   5.924   6.276   3.540  0.6594 -1.5705 -1.1896
 1600SOL    HW2 5485   5.796   6.209   3.495 -1.0727 -0.0179  1.1846
 1601SOL     OW 5486   4.909   2.145   1.543  0.5527  0.3900 -0.3358
 1601SOL    HW1 5487   4.873   2.082   1.606 -0.3430  0.3201 -0.8972
 1601SOL    HW2 5488   4.936   2.092   1.468  0.0468  0.6297 -0.6988
 1602SOL     OW 5489   4.791   2.234   4.611 -0.0637  0.2474 -0.1389
 1602SOL    HW1 5490   4.809   2.318   4.654  0.9350  0.0765 -0.2115
 1602SOL    HW2 5491   4.843   2.170   4.659  2.3397  0.2621 -2.5055
 1603SOL     OW 5492   5.318   5.817   2.858  0.0134  0.7111 -0.5182
 1603SOL    HW1 5493   5.228   5.797   2.832  0.5071  0.1496 -1.8793
 1603SOL    HW2 5494   5.357   5.732   2.876  0.8415  0.7682 -1.9314
 1604SOL     OW 5495   0.720   6.725   6.216  0.0087 -0.0635 -0.5039
 1604SOL    HW1 5496   0.748   6.796   6.160  1.3403  0.6364  0.9857
 1604SOL    HW2 5497   0.641   6.758   6.259  0.3158  0.3076 -0.2232
 1605SOL     OW 5498   3.811   1.890   5.365 -0.2200  0.2431 -0.5406
 1605SOL    HW1 5499   3.869   1.841   5.308  0.2062 -0.5382  0.5295
 1605SOL    HW2 5500   3.730   1.898   5.315  0.4179  0.3322 -1.5855
 1606SOL     OW 5501   6.222   6.715   0.142  0.0185  0.0296  0.9982
 1606SOL    HW1 5502   6.218   6.691   0.235  0.8029 -0.5416  0.8945
 1606SOL    HW2 5503   6.311   6.690   0.115  0.3564  1.6785  0.4930
 1607SOL     OW 5504   2.571   3.795   5.856 -0.4358 -0.1838  0.3435
 1607SOL    HW1 5505   2.580   3.708   5.818  2.4711  0.3153 -0.3024
 1607SOL    HW2 5506   2.564   3.779   5.951 -1.6131 -1.1484  0.1160
 1608SOL     OW 5507   0.996   1.076   0.940 -0.1676  0.0452  0.2153
 1608SOL    HW1 5508   1.018   0.987   0.912 -1.8577 -0.4699  0.4276
 1608SOL    HW2 5509   1.029   1.132   0.870 -1.8615 -1.0015 -1.5185
 1609SOL     OW 5510   6.094   4.845   0.136  0.0748  0.3142  0.1454
 1609SOL    HW1 5511   6.149   4.785   0.188  0.4558 -0.4244 -1.0698
 1609SOL    HW2 5512   6.006   4.833   0.172  0.2764 -0.4114  0.4265
 1610SOL     OW 5513   5.152   3.700   0.571 -0.1742  0.3939  0.1201
 1610SOL    HW1 5514   5.065   3.667   0.593  0.4726 -0.6631  1.1370
 1610SOL    HW2 5515   5.210   3.625   0.582  1.2873  1.7297  2.1814
 1611SOL     OW 5516   2.285   3.210   3.287  0.1531  0.0115  0.0080
 1611SOL    HW1 5517   2.317   3.299   3.300  1.7453 -0.7702  1.8633
 1611SOL    HW2 5518   2.347   3.171   3.225 -0.2054  0.0015 -0.3492
 1612SOL     OW 5519   0.516   3.439   2.375 -0.0490  0.4885  0.3512
 1612SOL    HW1 5520   0.489   3.369   2.315  0.5865  1.5450 -1.2576
 1612SOL    HW2 5521   0.565   3.395   2.443 -1.6977 -0.8911  0.7147
 1613SOL     OW 5522   3.585   6.036   2.539  0.1886 -0.2306  0.0242
 1613SOL    HW1 5523   3.666   6.042   2.589  0.8910 -0.4915 -1.0695
 1613SOL    HW2 5524   3.516   6.042   2.606  1.1003 -0.9860  1.0713
 1614SOL     OW 5525   1.281   4.838   6.624  0.1476 -0.4156 -0.1046
 1614SOL    HW1 5526   1.313   4.833   6.534  0.2643 -0.8329 -0.0408
 1614SOL    HW2 5527   1.215   4.907   6.623  1.6766  1.1029 -0.0478
 1615SOL     OW 5528   2.357   1.881   1.311 -0.3446  0.0545  0.5759
 1615SOL    HW1 5529   2.376   1.800   1.357 -0.3008 -1.3120 -1.7238
 1615SOL    HW2 5530   2.387   1.867   1.221 -0.4610  2.5643  0.0484
 1616SOL     OW 5531   4.361   4.085   6.128  0.1251  0.5280  0.0907
 1616SOL    HW1 5532   4.292   4.108   6.190  0.2943  0.4545  0.3091
 1616SOL    HW2 5533   4.437   4.066   6.183  0.0893 -0.2094 -0.1002
 1617SOL     OW 5534   1.783   3.486   5.521  0.3030  0.3369 -0.3953
 1617SOL    HW1 5535   1.862   3.503   5.471 -0.6846 -1.3362 -2.7242
 1617SOL    HW2 5536   1.742   3.572   5.531  0.8539  0.8172 -1.9681
 1618SOL     OW 5537   1.967   2.655   6.564 -0.3537  0.1501 -0.0484
 1618SOL    HW1 5538   1.969   2.726   6.628 -1.5299 -0.9620  1.3017
 1618SOL    HW2 5539   1.874   2.634   6.554 -0.0077 -1.7461  0.2846
 1619SOL     OW 5540   4.200   4.507   4.190 -0.2934 -0.7600  0.1303
 1619SOL    HW1 5541   4.159   4.560   4.259  0.2778 -0.1408 -0.0010
 1619SOL    HW2 5542   4.169   4.546   4.108 -0.0526 -0.7744  0.0317
 1620SOL     OW 5543   1.369   2.970   5.096 -0.2363 -0.3399  0.4237
 1620SOL    HW1 5544   1.408   3.022   5.167 -0.7695  0.5080  0.1134
 1620SOL    HW2 5545   1.275   2.967   5.118 -0.1803 -1.4024  0.5716
 1621SOL     OW 5546   0.494   5.912   6.100  0.1292  0.1054  0.0627
 1621SOL    HW1 5547   0.507   5.995   6.145  1.0419 -0.9433  1.8706
 1621SOL    HW2 5548   0.516   5.930   6.009 -0.4263  2.0011  0.2708
 1622SOL     OW 5549   5.073   5.540   2.170  0.4470 -0.0786  0.3599
 1622SOL    HW1 5550   5.084   5.452   2.208  3.1303  0.1652  0.3526
 1622SOL    HW2 5551   5.104   5.531   2.080  1.4659  1.0123  0.5832
 1623SOL     OW 5552   4.840   1.754   0.593  0.0126  0.7830 -0.2299
 1623SOL    HW1 5553   4.865   1.750   0.500 -0.7287  1.1088 -0.4515
 1623SOL    HW2 5554   4.746   1.769   0.591 -0.5705 -2.0846  0.5493
 1624SOL     OW 5555   4.832   2.426   4.047 -0.2552 -0.5435 -0.1527
 1624SOL    HW1 5556   4.925   2.414   4.066 -0.9611 -2.1605  2.7733
 1624SOL    HW2 5557   4.794   2.457   4.129 -2.6387 -1.9431 -0.6436
 1625SOL     OW 5558   3.057   3.848   2.675 -1.3003  0.0602  0.5913
 1625SOL    HW1 5559   3.012   3.906   2.613  0.1453 -0.0880 -0.6740
 1625SOL    HW2 5560   3.110   3.907   2.729  1.5912 -0.0197 -1.8700
 1626SOL     OW 5561   5.525   2.459   3.971  0.1074  1.0286 -0.3280
 1626SOL    HW1 5562   5.455   2.458   4.036  0.0471  1.9501 -0.3720
 1626SOL    HW2 5563   5.572   2.541   3.987 -0.5590  1.8235 -2.1175
 1627SOL     OW 5564   3.088   0.171   1.996 -0.4306 -0.0613  0.0389
 1627SOL    HW1 5565   3.068   0.117   2.072  0.4295 -0.0009  0.3203
 1627SOL    HW2 5566   3.008   0.169   1.943 -1.7603  1.4477  1.8461
 1628SOL     OW 5567   1.149   4.069   3.824 -0.1217  0.7550  0.4639
 1628SOL    HW1 5568   1.216   4.090   3.760 -0.3370  0.1803  0.0415
 1628SOL    HW2 5569   1.189   4.003   3.881 -0.6858 -0.4065 -0.4572
 1629SOL     OW 5570   2.119   5.614   0.686 -0.2416  0.1702 -0.6768
 1629SOL    HW1 5571   2.185   5.678   0.714  0.4772 -0.0245 -1.8451
 1629SOL    HW2 5572   2.049   5.667   0.649  0.4688  0.3009 -1.8829
 1630SOL     OW 5573   5.709   1.747   6.419 -0.4018  0.5476  0.2233
 1630SOL    HW1 5574   5.780   1.785   6.471 -1.8443 -0.1555  2.8625
 1630SOL    HW2 5575   5.629   1.781   6.459 -1.6282 -1.3665 -0.4592
 1631SOL     OW 5576   2.364   1.467   2.813  0.0472  0.2431 -0.2409
 1631SOL    HW1 5577   2.378   1.508   2.898  2.3475  0.6780 -0.7526
 1631SOL    HW2 5578   2.276   1.494   2.788 -0.2334  1.0687  1.4748
 1632SOL     OW 5579   1.587   3.344   2.123  0.3981  0.4625 -0.1296
 1632SOL    HW1 5580   1.602   3.299   2.207  1.7113 -0.2749 -0.7166
 1632SOL    HW2 5581   1.672   3.340   2.079 -0.5879 -0.3339 -2.0549
 1633SOL     OW 5582   0.448   0.124   5.456  0.1410 -0.1202  0.1889
 1633SOL    HW1 5583   0.441   0.209   5.412  0.4407  0.2624  0.8577
 1633SOL    HW2 5584   0.531   0.088   5.425  0.0611 -0.1210 -0.0225
 1634SOL     OW 5585   2.455   1.212   2.006  0.2964 -0.6397 -0.2180
 1634SOL    HW1 5586   2.541   1.172   1.992  0.8068  0.2956  0.1001
 1634SOL    HW2 5587   2.409   1.152   2.064  1.3666 -0.3646  0.9588
 1635SOL     OW 5588   4.990   5.444   1.105 -0.1637  0.5045 -0.4136
 1635SOL    HW1 5589   5.046   5.428   1.180 -0.7629  1.6914  0.3184
 1635SOL    HW2 5590   5.031   5.395   1.033  0.2155 -0.9367  0.7500
 1636SOL     OW 5591   6.253   5.534   3.788  0.3801  0.1126 -0.0548
 1636SOL    HW1 5592   6.256   5.532   3.883 -1.1694 -0.5547  0.0202
 1636SOL    HW2 5593   6.288   5.620   3.764 -1.9395  1.5403  1.3084
 1637SOL     OW 5594   2.130   2.425   4.049 -0.4806  0.0581  0.1087
 1637SOL    HW1 5595   2.067   2.355   4.067  1.0624 -0.9563  1.8585
 1637SOL    HW2 5596   2.112   2.491   4.117 -0.2604  0.1979  0.0316
 1638SOL     OW 5597   4.298   4.891   2.919 -0.2194 -0.2671 -0.1387
 1638SOL    HW1 5598   4.357   4.952   2.876  0.7703 -0.6778  0.6131
 1638SOL    HW2 5599   4.308   4.809   2.870 -0.5395 -0.2082 -0.3096
 1639SOL     OW 5600   4.479   6.392   1.141 -0.1791  0.4895 -0.2624
 1639SOL    HW1 5601   4.483   6.421   1.050  1.8202 -2.5919 -1.3178
 1639SOL    HW2 5602   4.386   6.376   1.157 -0.4174 -0.7552 -2.4873
 1640SOL     OW 5603   6.880   0.564   5.985 -0.6788  0.0392 -0.4142
 1640SOL    HW1 5604   6.919   0.627   5.924 -0.7538 -1.2899 -1.9049
 1640SOL    HW2 5605   6.955   0.517   6.022 -0.7099 -0.9443 -1.5314
 1641SOL     OW 5606   5.619   2.972   0.852 -0.0608 -0.7008 -0.2189
 1641SOL    HW1 5607   5.715   2.981   0.845 -0.0534 -1.8366 -2.4105
 1641SOL    HW2 5608   5.592   3.047   0.905  2.0895 -0.7069  1.0018
 1642SOL     OW 5609   0.111   4.344   2.740 -0.4417  0.6316 -0.3945
 1642SOL    HW1 5610   0.077   4.364   2.827 -0.8405 -0.0132 -0.3900
 1642SOL    HW2 5611   0.198   4.383   2.738 -1.1273  2.2332 -0.3620
 1643SOL     OW 5612   0.862   6.073   6.233 -0.6639 -0.1637  0.1919
 1643SOL    HW1 5613   0.946   6.110   6.205 -0.0912 -0.4195  1.5061
 1643SOL    HW2 5614   0.866   6.074   6.328 -2.9574  1.6879  0.3839
 1644SOL     OW 5615   3.224   2.828   5.816 -0.2808 -0.1794 -0.1522
 1644SOL    HW1 5616   3.281   2.817   5.739 -0.9411 -1.9230 -0.4234
 1644SOL    HW2 5617   3.282   2.814   5.891  0.8132  3.3379 -0.1293
 1645SOL     OW 5618   4.116   0.288   6.441  0.0359  0.3366 -0.0640
 1645SOL    HW1 5619   4.166   0.358   6.399 -0.0412  0.0662 -0.6165
 1645SOL    HW2 5620   4.135   0.210   6.388 -1.2853  0.3107 -0.5264
 1646SOL     OW 5621   0.001   5.268   3.687 -0.3457 -0.0783 -0.4810
 1646SOL    HW1 5622  -0.043   5.184   3.697 -2.8949  1.1730 -0.4801
 1646SOL    HW2 5623   0.081   5.247   3.639  0.0654 -2.7418  1.1642
 1647SOL     OW 5624   2.187   6.384   6.592 -0.3653 -0.2714 -0.5052
 1647SOL    HW1 5625   2.102   6.394   6.549 -0.8756 -2.6612 -0.1832
 1647SOL    HW2 5626   2.246   6.442   6.543 -1.5220 -0.8471 -2.6996
 1648SOL     OW 5627   2.533   6.540   3.411 -0.3762  0.0515 -0.2251
 1648SOL    HW1 5628   2.454   6.498   3.376 -0.1664  0.9330 -1.8086
 1648SOL    HW2 5629   2.578   6.469   3.457  0.0901 -1.6095 -3.0216
 1649SOL     OW 5630   2.077   0.327   0.005 -0.1650  0.1475 -0.3229
 1649SOL    HW1 5631   2.076   0.245   0.055 -0.5998 -0.9147 -2.0097
 1649SOL    HW2 5632   1.988   0.361   0.013  0.0177  0.4855  0.3832
 1650SOL     OW 5633   0.323   1.010   2.270 -0.2832 -0.0156 -0.2170
 1650SOL    HW1 5634   0.268   0.934   2.251 -1.0221  0.3232  0.4942
 1650SOL    HW2 5635   0.350   0.997   2.361 -0.4238  0.5662 -0.0873
 1651SOL     OW 5636   1.977   0.055   4.943  0.4392  0.1463 -0.3058
 1651SOL    HW1 5637   1.975   0.140   4.898  1.2731  0.4148  0.1314
 1651SOL    HW2 5638   1.936   0.072   5.028 -0.1253 -0.0894 -0.5285
 1652SOL     OW 5639   1.018   4.867   0.136  0.0371  0.0714  0.4537
 1652SOL    HW1 5640   0.928   4.853   0.108  0.4300 -2.3201  0.2297
 1652SOL    HW2 5641   1.018   4.843   0.229  0.5136 -0.3549  0.3497
 1653SOL     OW 5642   4.308   3.519   5.847 -0.2979  0.2210 -0.2386
 1653SOL    HW1 5643   4.222   3.503   5.808 -0.5759 -0.5269  0.6383
 1653SOL    HW2 5644   4.365   3.453   5.807 -0.9033 -1.4993  1.6077
 1654SOL     OW 5645   4.217   3.339   1.900  0.5814  0.1986 -0.2875
 1654SOL    HW1 5646   4.281   3.374   1.963 -0.5236  0.1800  0.8898
 1654SOL    HW2 5647   4.138   3.324   1.952 -0.4456  0.3711 -1.7406
 1655SOL     OW 5648   3.182   1.878   5.268 -0.1618 -0.4657 -0.8363
 1655SOL    HW1 5649   3.131   1.948   5.228 -0.7172  1.3237  2.6100
 1655SOL    HW2 5650   3.273   1.899   5.245 -0.4161  0.7058 -0.8432
 1656SOL     OW 5651   4.280   6.687   1.257 -0.1440  0.7382 -0.0121
 1656SOL    HW1 5652   4.264   6.654   1.345 -0.3179  0.0385 -0.2963
 1656SOL    HW2 5653   4.371   6.717   1.258  0.5372 -1.2259 -0.1753
 1657SOL     OW 5654   4.940   6.027   2.711  0.3256 -0.3635  0.4904
 1657SOL    HW1 5655   4.854   6.033   2.671  0.7578  1.6118 -0.2392
 1657SOL    HW2 5656   4.991   5.971   2.652  0.2166  0.4219 -0.3529
 1658SOL     OW 5657   0.438   1.492   2.705 -0.5407  0.1398  0.6977
 1658SOL    HW1 5658   0.435   1.422   2.640  0.5264 -0.3714  1.1655
 1658SOL    HW2 5659   0.366   1.551   2.682  0.2051  0.3294 -1.3441
 1659SOL     OW 5660   4.133   0.473   3.079 -0.1453  0.2847 -0.5904
 1659SOL    HW1 5661   4.062   0.487   3.142 -0.3588 -1.3043 -0.4382
 1659SOL    HW2 5662   4.211   0.509   3.121 -0.0503 -1.8048  1.1495
 1660SOL     OW 5663   6.318   1.158   4.045 -0.3678 -0.1019  0.2816
 1660SOL    HW1 5664   6.399   1.172   3.995 -0.5423 -0.3271 -0.0650
 1660SOL    HW2 5665   6.258   1.119   3.982 -0.7483  0.0662  0.5394
 1661SOL     OW 5666   3.454   6.828   3.629 -0.1481 -0.1033  0.3864
 1661SOL    HW1 5667   3.432   6.871   3.712 -2.7230  0.6790 -0.5973
 1661SOL    HW2 5668   3.410   6.881   3.563  2.9064  0.0870 -1.6981
 1662SOL     OW 5669   3.358   4.015   4.151  0.7785  0.0816 -0.1747
 1662SOL    HW1 5670   3.389   4.031   4.062  0.1701  1.5434 -0.1445
 1662SOL    HW2 5671   3.274   4.059   4.156  1.4434  1.2495  1.5482
 1663SOL     OW 5672   0.188   4.704   3.183 -0.0076 -0.7836 -1.0666
 1663SOL    HW1 5673   0.096   4.707   3.208  0.2403 -0.3171 -0.1585
 1663SOL    HW2 5674   0.231   4.659   3.256  0.6666  0.1175 -0.8927
 1664SOL     OW 5675   3.651   1.423   0.258 -0.2239  0.2416  0.3387
 1664SOL    HW1 5676   3.595   1.418   0.180 -3.0575  0.5998  2.1679
 1664SOL    HW2 5677   3.645   1.514   0.286  1.8546  0.4341  0.3098
 1665SOL     OW 5678   4.023   4.853   1.108 -0.3247  0.0978  0.1032
 1665SOL    HW1 5679   4.005   4.914   1.036  0.6095 -0.0529 -0.2707
 1665SOL    HW2 5680   4.116   4.865   1.127  0.3470 -2.3592 -1.1257
 1666SOL     OW 5681   1.134   1.454   4.050  0.0296  0.7364  0.3032
 1666SOL    HW1 5682   1.202   1.387   4.045 -0.8813 -0.2949  1.2234
 1666SOL    HW2 5683   1.070   1.419   4.112 -1.6730  1.3802 -1.0098
 1667SOL     OW 5684   6.420   5.409   0.759  0.1561 -0.1721  0.1535
 1667SOL    HW1 5685   6.384   5.377   0.677 -0.9786 -1.0680  0.9573
 1667SOL    HW2 5686   6.496   5.353   0.776  0.4215  0.0463 -0.2949
 1668SOL     OW 5687   4.813   2.823   4.695  0.1915  0.3504  0.1892
 1668SOL    HW1 5688   4.806   2.766   4.772 -2.1279  2.2174  1.4924
 1668SOL    HW2 5689   4.747   2.789   4.634  0.9202 -0.1511 -0.3401
 1669SOL     OW 5690   6.650   0.883   1.145  0.1480  0.1595 -0.2585
 1669SOL    HW1 5691   6.634   0.897   1.051 -0.0213 -1.5438 -0.5177
 1669SOL    HW2 5692   6.610   0.798   1.163  2.2929 -0.6963  0.8105
 1670SOL     OW 5693   6.238   3.944   4.971  0.4803  0.3673  0.2322
 1670SOL    HW1 5694   6.204   3.904   4.891 -0.7766  0.4260  0.7110
 1670SOL    HW2 5695   6.291   3.876   5.012  1.8692  0.6229 -1.0673
 1671SOL     OW 5696   3.927   3.139   1.660 -0.7368 -0.1810  0.7227
 1671SOL    HW1 5697   3.853   3.132   1.599 -2.3694  1.2853  2.3949
 1671SOL    HW2 5698   3.976   3.215   1.630 -1.1863  0.1704  0.8640
 1672SOL     OW 5699   0.600   6.865   5.664 -0.0953 -0.0629 -0.0269
 1672SOL    HW1 5700   0.655   6.869   5.585  0.4971  0.8599  0.4182
 1672SOL    HW2 5701   0.646   6.806   5.723  0.2244  0.4082  0.1970
 1673SOL     OW 5702   0.433   2.211   5.166 -0.1692  0.0969  0.7906
 1673SOL    HW1 5703   0.502   2.276   5.183  0.6199 -0.5795  0.2565
 1673SOL    HW2 5704   0.367   2.259   5.115  0.4254  0.4815  0.3603
 1674SOL     OW 5705   0.119   4.577   6.401  0.5067  0.0117  0.3513
 1674SOL    HW1 5706   0.024   4.590   6.409  0.0137 -2.8206  0.1856
 1674SOL    HW2 5707   0.130   4.482   6.399  3.3033  0.2617 -0.5259
 1675SOL     OW 5708   2.584   0.471   3.416  0.4277 -0.0718  0.2786
 1675SOL    HW1 5709   2.509   0.457   3.473  0.1691  1.0068  0.2335
 1675SOL    HW2 5710   2.608   0.563   3.430 -0.6279  0.7345 -2.4624
 1676SOL     OW 5711   5.911   0.335   3.516 -0.5813 -0.4791 -0.2945
 1676SOL    HW1 5712   5.870   0.405   3.464 -0.2089 -0.4806 -0.5893
 1676SOL    HW2 5713   6.004   0.341   3.495 -0.2851  0.1522  1.1102
 1677SOL     OW 5714   0.763   0.368   0.282  0.1008 -0.3840  0.1904
 1677SOL    HW1 5715   0.715   0.443   0.315 -1.7223 -1.0348 -0.8275
 1677SOL    HW2 5716   0.806   0.330   0.359 -1.5295 -0.1200  1.2622
 1678SOL     OW 5717   1.570   0.562   0.071  0.5825 -0.5253  0.2383
 1678SOL    HW1 5718   1.516   0.559   0.150 -0.0808 -0.3528 -0.2033
 1678SOL    HW2 5719   1.515   0.605   0.006  1.6310  0.6304  0.0747
 1679SOL     OW 5720   6.474   6.331   4.885 -0.3738 -0.0398 -0.0625
 1679SOL    HW1 5721   6.466   6.387   4.962 -3.0941  0.0075 -0.2773
 1679SOL    HW2 5722   6.543   6.372   4.833 -0.1542  1.3177  1.2183
 1680SOL     OW 5723   2.984   2.421   2.842 -0.6462 -0.7208 -0.0500
 1680SOL    HW1 5724   2.985   2.326   2.830 -0.5472 -0.9914  1.8407
 1680SOL    HW2 5725   2.988   2.433   2.937 -3.3774  1.1110 -0.0414
 1681SOL     OW 5726   2.612   5.212   0.304  0.4092 -0.3662  0.1908
 1681SOL    HW1 5727   2.526   5.244   0.331  0.7870  0.3543  0.5975
 1681SOL    HW2 5728   2.673   5.278   0.338  1.0087 -0.0710 -1.3545
 1682SOL     OW 5729   0.591   5.405   2.950 -0.3826  0.2036  0.4426
 1682SOL    HW1 5730   0.574   5.423   2.858 -0.0697 -0.9834  0.1330
 1682SOL    HW2 5731   0.561   5.483   2.996 -1.0406  0.5892 -0.6143
 1683SOL     OW 5732   3.530   1.931   4.273 -0.0411  0.2821  0.0404
 1683SOL    HW1 5733   3.516   1.837   4.268  1.8483  0.0157 -1.3402
 1683SOL    HW2 5734   3.565   1.945   4.361 -0.3304 -0.3039  0.2544
 1684SOL     OW 5735   2.582   6.025   5.058  0.0527  0.2774 -0.2072
 1684SOL    HW1 5736   2.601   5.942   5.101  0.9989  0.3613 -0.4539
 1684SOL    HW2 5737   2.524   6.071   5.118 -0.0187 -0.3254  0.1868
 1685SOL     OW 5738   6.127   5.130   5.676 -0.4052  0.1464  0.4483
 1685SOL    HW1 5739   6.060   5.158   5.613 -0.6173 -0.2250  0.5080
 1685SOL    HW2 5740   6.096   5.162   5.760 -0.4800  0.0254  0.4672
 1686SOL     OW 5741   2.024   4.109   2.145 -0.5187 -0.5641  0.1147
 1686SOL    HW1 5742   2.103   4.114   2.199 -0.4536 -3.2295  0.3888
 1686SOL    HW2 5743   2.055   4.074   2.062 -1.4532 -2.0723  0.3836
 1687SOL     OW 5744   1.928   2.255   3.776 -0.2513 -0.4210 -0.2901
 1687SOL    HW1 5745   2.020   2.261   3.801 -0.5148 -1.8467  1.2729
 1687SOL    HW2 5746   1.929   2.231   3.684  0.9378 -0.0315 -0.3870
 1688SOL     OW 5747   0.634   0.562   5.476  0.0659 -0.1801  0.4338
 1688SOL    HW1 5748   0.614   0.505   5.551 -0.9766 -1.3949 -0.7191
 1688SOL    HW2 5749   0.674   0.640   5.515  0.4615 -1.1993  2.1621
 1689SOL     OW 5750   4.936   5.990   3.873 -0.4927  0.1280 -0.1138
 1689SOL    HW1 5751   5.014   5.967   3.822  0.0901 -2.8417  1.8612
 1689SOL    HW2 5752   4.863   5.979   3.812  0.4220  0.6145 -1.3407
 1690SOL     OW 5753   0.645   1.049   5.835  0.0978  0.3112 -0.3900
 1690SOL    HW1 5754   0.666   1.138   5.807 -0.5425  0.9102  0.9112
 1690SOL    HW2 5755   0.716   1.024   5.893 -0.3483  0.4789  0.2405
 1691SOL     OW 5756   5.860   2.396   1.820  0.3106  0.7664 -0.2278
 1691SOL    HW1 5757   5.921   2.423   1.752  0.2550  0.0071 -0.5891
 1691SOL    HW2 5758   5.775   2.392   1.776  0.5907 -1.7599 -0.6941
 1692SOL     OW 5759   0.478   3.246   1.167 -0.4887  0.1841  0.0352
 1692SOL    HW1 5760   0.508   3.172   1.220  0.7813  0.6116 -0.0575
 1692SOL    HW2 5761   0.554   3.303   1.160 -1.0185  0.7824 -1.1377
 1693SOL     OW 5762   6.171   0.186   5.503 -0.1205  0.5010  0.0749
 1693SOL    HW1 5763   6.239   0.216   5.442  0.2203  2.4036  1.3019
 1693SOL    HW2 5764   6.109   0.258   5.507  0.5086  0.9966  2.8696
 1694SOL     OW 5765   1.463   4.555   4.749  0.4125 -0.0346 -0.2213
 1694SOL    HW1 5766   1.470   4.465   4.779 -1.1499 -0.9982 -2.4884
 1694SOL    HW2 5767   1.553   4.581   4.731  1.1668 -0.2034  2.7093
 1695SOL     OW 5768   3.159   2.739   5.163  0.3300  0.3472  0.0430
 1695SOL    HW1 5769   3.133   2.829   5.144  0.1169 -0.1619 -2.3356
 1695SOL    HW2 5770   3.077   2.695   5.188 -0.0690  0.2116 -1.4189
 1696SOL     OW 5771   2.384   1.016   4.200  0.0526  0.6513 -0.3067
 1696SOL    HW1 5772   2.308   1.060   4.238 -0.1217 -1.1244  1.5847
 1696SOL    HW2 5773   2.349   0.935   4.163  1.1384 -1.1045  2.2170
 1697SOL     OW 5774   4.468   1.286   5.837  0.3099 -0.0347  0.9801
 1697SOL    HW1 5775   4.492   1.280   5.930  1.9932  3.4847  0.9398
 1697SOL    HW2 5776   4.420   1.368   5.831 -0.4123 -0.5725 -1.1930
 1698SOL     OW 5777   3.819   6.213   0.702  0.2154 -0.1095 -0.2881
 1698SOL    HW1 5778   3.801   6.120   0.690  0.2415 -0.1529 -0.0165
 1698SOL    HW2 5779   3.883   6.234   0.635  0.4939 -0.3796 -0.1142
 1699SOL     OW 5780   0.094   0.831   3.161 -0.0315  0.4535  0.4815
 1699SOL    HW1 5781   0.096   0.852   3.255 -0.6897  1.9351  0.2042
 1699SOL    HW2 5782   0.003   0.848   3.136 -0.0024 -0.4998 -0.3183
 1700SOL     OW 5783   5.292   6.490   5.306  0.1032  0.3319  0.0423
 1700SOL    HW1 5784   5.213   6.529   5.345  1.0222 -0.2778  2.7066
 1700SOL    HW2 5785   5.364   6.535   5.350  1.2503 -0.1700 -1.2778
 1701SOL     OW 5786   5.044   1.273   5.404 -0.1211 -0.1584 -0.0798
 1701SOL    HW1 5787   5.078   1.260   5.493  0.3338 -0.3779 -0.2860
 1701SOL    HW2 5788   5.117   1.252   5.347 -0.9317 -1.7889 -0.5701
 1702SOL     OW 5789   5.751   6.130   2.081 -0.0091 -0.5159 -0.1052
 1702SOL    HW1 5790   5.730   6.056   2.139 -1.3112  1.2349  1.8294
 1702SOL    HW2 5791   5.712   6.106   1.997 -4.0129 -0.4878  1.4980
 1703SOL     OW 5792   0.108   6.312   5.407 -0.0036 -0.0196 -0.0094
 1703SOL    HW1 5793   0.198   6.325   5.378  0.5144 -0.2898  1.4124
 1703SOL    HW2 5794   0.078   6.399   5.431 -0.4869  0.2315 -1.4006
 1704SOL     OW 5795   6.643   3.060   2.068  0.3307  0.5102  0.5934
 1704SOL    HW1 5796   6.589   3.002   2.121  0.8703 -1.8124 -1.2383
 1704SOL    HW2 5797   6.733   3.034   2.087  0.5477 -0.0622 -1.0408
 1705SOL     OW 5798   4.202   0.592   0.314  0.2293  0.3031  0.0021
 1705SOL    HW1 5799   4.123   0.607   0.262  0.1165  0.3345  0.1828
 1705SOL    HW2 5800   4.200   0.499   0.336  0.4691  0.2075 -0.3611
 1706SOL     OW 5801   0.328   1.332   4.246  0.0909  0.0761 -0.2759
 1706SOL    HW1 5802   0.353   1.247   4.284  0.7875  0.8960  1.2073
 1706SOL    HW2 5803   0.350   1.395   4.315 -0.6565  1.4334 -1.2569
 1707SOL     OW 5804   3.570   6.063   3.995 -0.0217  0.0684  0.2187
 1707SOL    HW1 5805   3.627   6.073   3.918 -0.6121  2.4258  0.0154
 1707SOL    HW2 5806   3.571   5.969   4.013 -1.1052 -0.8529 -3.6408
 1708SOL     OW 5807   4.726   4.356   4.909  0.2915  0.4269 -0.2641
 1708SOL    HW1 5808   4.697   4.270   4.878  0.2686  0.5091 -0.4701
 1708SOL    HW2 5809   4.646   4.408   4.915  0.5766  1.3238 -2.8910
 1709SOL     OW 5810   3.182   5.996   3.244  0.6332  0.0224  0.3280
 1709SOL    HW1 5811   3.128   6.075   3.244  0.7046  0.0721 -0.1247
 1709SOL    HW2 5812   3.222   5.994   3.157 -1.7813 -2.1712 -0.8582
 1710SOL     OW 5813   0.658   0.298   3.329 -0.1541 -0.3163  0.1190
 1710SOL    HW1 5814   0.626   0.231   3.268  0.3689  0.0637 -0.5889
 1710SOL    HW2 5815   0.591   0.303   3.397 -1.8282  0.7066 -1.5028
 1711SOL     OW 5816   4.107   2.577   3.598  0.4556 -0.1847  0.1359
 1711SOL    HW1 5817   4.122   2.541   3.686  2.1650  0.6262  0.2352
 1711SOL    HW2 5818   4.109   2.501   3.540 -0.0285 -0.6588  0.7279
 1712SOL     OW 5819   0.073   6.100   6.144  0.0155 -0.0802 -0.2638
 1712SOL    HW1 5820   0.149   6.155   6.131  1.4203 -1.9371 -0.3416
 1712SOL    HW2 5821   0.065   6.051   6.062 -0.9700 -0.2743 -0.0711
 1713SOL     OW 5822   1.065   6.600   2.765 -0.0774  0.2060  0.1680
 1713SOL    HW1 5823   1.157   6.585   2.744  0.4907  2.5069  0.7562
 1713SOL    HW2 5824   1.048   6.690   2.739 -2.3826 -0.3534 -0.5182
 1714SOL     OW 5825   4.678   5.887   0.178 -0.6078  0.7320 -0.3027
 1714SOL    HW1 5826   4.629   5.966   0.198 -0.4968  0.6230  0.3989
 1714SOL    HW2 5827   4.718   5.860   0.261 -0.6682 -0.0739 -0.5235
 1715SOL     OW 5828   2.733   1.060   4.944  0.1997  0.2201  0.5486
 1715SOL    HW1 5829   2.777   1.014   4.873  0.6155 -0.8186  1.4394
 1715SOL    HW2 5830   2.701   1.141   4.905 -0.4738 -0.7806 -1.0513
 1716SOL     OW 5831   2.456   2.132   2.093  0.2159  0.0313 -0.4320
 1716SOL    HW1 5832   2.453   2.226   2.111  2.0659 -0.0390  0.5389
 1716SOL    HW2 5833   2.459   2.126   1.997  1.9465  1.1049 -0.4981
 1717SOL     OW 5834   0.496   2.648   2.988  0.1430 -0.2224  0.2631
 1717SOL    HW1 5835   0.475   2.578   3.050  0.6014 -1.4825 -0.9656
 1717SOL    HW2 5836   0.446   2.723   3.019 -0.5572 -1.1575  1.4716
 1718SOL     OW 5837   2.051   5.950   2.179 -0.4612 -0.9569  0.7203
 1718SOL    HW1 5838   1.964   5.979   2.206 -0.0525 -0.2100  1.2879
 1718SOL    HW2 5839   2.039   5.915   2.091 -1.4528 -1.4708  1.0478
 1719SOL     OW 5840   0.054   4.204   2.125  0.2308 -0.2008 -0.7680
 1719SOL    HW1 5841   0.119   4.249   2.180 -0.5055 -2.2365  2.0045
 1719SOL    HW2 5842   0.095   4.120   2.104 -0.7561 -0.7450 -0.5718
 1720SOL     OW 5843   2.604   6.588   2.696 -0.5513 -0.2800 -0.6591
 1720SOL    HW1 5844   2.666   6.582   2.624  1.5995  1.5560  0.8979
 1720SOL    HW2 5845   2.539   6.653   2.668  0.3363  0.5025 -0.9280
 1721SOL     OW 5846   2.145   4.452   1.102  0.0326 -0.1703 -0.3545
 1721SOL    HW1 5847   2.093   4.441   1.022 -0.1346  0.0939 -0.2802
 1721SOL    HW2 5848   2.087   4.495   1.164  0.0377 -0.7238  0.0468
 1722SOL     OW 5849   6.619   4.409   5.406 -0.0840  0.4439 -0.1297
 1722SOL    HW1 5850   6.640   4.316   5.400 -2.9652 -0.4863  1.9058
 1722SOL    HW2 5851   6.688   4.446   5.461  1.0388 -0.4905 -0.8799
 1723SOL     OW 5852   5.516   3.023   1.684 -0.3660 -0.3493  0.4588
 1723SOL    HW1 5853   5.595   2.993   1.729  0.6619  2.9511  1.1305
 1723SOL    HW2 5854   5.457   3.049   1.754  0.3774  2.7455  0.0826
 1724SOL     OW 5855   4.472   1.763   1.569 -0.3424  0.6646 -0.2068
 1724SOL    HW1 5856   4.413   1.689   1.580  2.6766 -1.7837  0.9482
 1724SOL    HW2 5857   4.461   1.814   1.649 -1.6799  0.9468 -0.5410
 1725SOL     OW 5858   6.452   4.702   1.147  0.3192 -0.8032  0.5252
 1725SOL    HW1 5859   6.543   4.702   1.117 -0.0467 -1.6600 -0.6818
 1725SOL    HW2 5860   6.406   4.649   1.082 -0.8475 -1.2997  1.7228
 1726SOL     OW 5861   3.690   4.027   3.270  0.4859 -0.4423 -0.5560
 1726SOL    HW1 5862   3.769   4.080   3.283  0.7100 -1.1092  1.1773
 1726SOL    HW2 5863   3.667   3.998   3.359 -0.3789 -2.1529 -1.3025
 1727SOL     OW 5864   6.786   6.599   2.450 -0.0178  0.0655 -0.1001
 1727SOL    HW1 5865   6.854   6.661   2.424  0.9456 -1.4693 -1.3927
 1727SOL    HW2 5866   6.755   6.561   2.368  2.8267 -4.6662  0.6717
 1728SOL     OW 5867   2.186   1.441   0.350 -0.2797  0.0200 -0.4880
 1728SOL    HW1 5868   2.224   1.417   0.265  2.3889  2.1077 -0.0529
 1728SOL    HW2 5869   2.261   1.443   0.409 -1.4712  2.0687  1.0725
 1729SOL     OW 5870   2.199   0.771   5.282 -0.0433 -0.3638 -0.1110
 1729SOL    HW1 5871   2.272   0.771   5.344 -0.4376  0.3759  0.3682
 1729SOL    HW2 5872   2.198   0.859   5.246 -0.9516 -0.2384  0.1971
 1730SOL     OW 5873   1.958   2.137   1.438  0.2856 -0.4123  0.2496
 1730SOL    HW1 5874   2.003   2.221   1.447  2.2009 -1.4676  1.2069
 1730SOL    HW2 5875   1.872   2.159   1.403  0.2872  2.0724  1.6079
 1731SOL     OW 5876   6.342   0.346   3.773  0.4679 -0.0711  0.7539
 1731SOL    HW1 5877   6.412   0.386   3.721 -0.3546 -0.8768 -1.0765
 1731SOL    HW2 5878   6.387   0.301   3.844  2.0642 -2.0684 -1.3532
 1732SOL     OW 5879   3.744   6.572   0.322  0.2536 -0.3556  0.0709
 1732SOL    HW1 5880   3.797   6.641   0.282 -1.0032  1.1922  0.9145
 1732SOL    HW2 5881   3.691   6.618   0.388 -0.7640 -2.1178  0.5580
 1733SOL     OW 5882   1.841   6.819   5.524 -0.1285 -0.3196  0.1632
 1733SOL    HW1 5883   1.806   6.732   5.545  0.4591 -0.6472 -0.2028
 1733SOL    HW2 5884   1.929   6.802   5.491  0.2070  0.4593  0.6265
 1734SOL     OW 5885   4.001   3.983   3.600 -0.7393 -0.0207 -0.1913
 1734SOL    HW1 5886   4.034   3.943   3.680 -0.8501  0.7378  0.2422
 1734SOL    HW2 5887   3.932   3.923   3.570  0.1062 -0.9183 -0.3790
 1735SOL     OW 5888   6.342   3.146   4.083  0.0073  0.6115 -0.0225
 1735SOL    HW1 5889   6.283   3.093   4.029 -0.9253  0.8117  0.7807
 1735SOL    HW2 5890   6.427   3.101   4.075 -0.5647 -0.5172 -0.0509
 1736SOL     OW 5891   5.861   3.922   3.738 -0.1787 -0.4354 -0.5225
 1736SOL    HW1 5892   5.879   3.941   3.646  0.9765  1.2329  0.0011
 1736SOL    HW2 5893   5.772   3.956   3.753  0.3534  1.0606 -0.5895
 1737SOL     OW 5894   6.018   4.756   3.741  0.0076  0.4003 -0.1587
 1737SOL    HW1 5895   6.092   4.761   3.800  1.1514 -0.1335 -1.4995
 1737SOL    HW2 5896   6.031   4.675   3.693 -0.8701  0.8249 -1.1557
 1738SOL     OW 5897   6.369   0.569   5.956  0.2133 -0.3130 -0.4281
 1738SOL    HW1 5898   6.426   0.542   6.027  0.4130  0.1825 -0.3935
 1738SOL    HW2 5899   6.371   0.497   5.893 -1.0109 -1.3431  0.6616
 1739SOL     OW 5900   4.277   4.780   5.574  0.1532 -0.2385 -0.3114
 1739SOL    HW1 5901   4.192   4.738   5.560  0.1787 -0.1998 -0.5891
 1739SOL    HW2 5902   4.289   4.778   5.669 -0.5660  0.5507 -0.1921
 1740SOL     OW 5903   0.403   5.002   4.968 -0.2236 -0.0691  0.5500
 1740SOL    HW1 5904   0.366   4.937   4.908  0.2606 -2.9435  3.0838
 1740SOL    HW2 5905   0.329   5.029   5.023  0.0232 -0.5035  1.1220
 1741SOL     OW 5906   2.768   1.702   3.455  0.1274 -0.3138 -0.0513
 1741SOL    HW1 5907   2.681   1.731   3.428  0.2052 -0.6729 -0.7366
 1741SOL    HW2 5908   2.822   1.781   3.451  0.0255 -0.2601 -0.5152
 1742SOL     OW 5909   1.279   2.720   2.698 -0.0034 -0.2908  0.4530
 1742SOL    HW1 5910   1.221   2.721   2.621 -0.4668  1.5535  0.7859
 1742SOL    HW2 5911   1.338   2.646   2.682 -1.8064 -1.6358 -0.3735
 1743SOL     OW 5912   0.102   1.589   6.614 -0.5652 -0.1989  0.4434
 1743SOL    HW1 5913   0.045   1.515   6.594 -0.8412 -0.1078  0.8689
 1743SOL    HW2 5914   0.190   1.558   6.595 -0.8927  0.4428 -2.6545
 1744SOL     OW 5915   3.060   4.591   5.820  0.4350 -0.0961 -0.2174
 1744SOL    HW1 5916   2.974   4.570   5.858  1.1980  0.0298  1.6870
 1744SOL    HW2 5917   3.040   4.654   5.750 -0.9646  0.8532  0.9626
 1745SOL     OW 5918   1.600   0.641   3.433  0.3651  0.2961  0.1007
 1745SOL    HW1 5919   1.656   0.671   3.362  1.3821  0.8253  1.0991
 1745SOL    HW2 5920   1.553   0.720   3.461  0.9132  0.3747  0.8362
 1746SOL     OW 5921   4.546   4.687   2.329  0.5018 -0.3318  0.4417
 1746SOL    HW1 5922   4.578   4.659   2.415  0.9046 -1.6190 -0.0861
 1746SOL    HW2 5923   4.513   4.606   2.289 -0.2339  0.3581 -0.3763
 1747SOL     OW 5924   3.799   0.872   6.693 -0.7093 -0.1764  0.0855
 1747SOL    HW1 5925   3.742   0.819   6.748 -0.2421 -0.3927  0.3679
 1747SOL    HW2 5926   3.854   0.920   6.755 -1.1024  0.6095 -0.1690
 1748SOL     OW 5927   1.888   1.495   2.339 -0.3148  0.0107  0.4875
 1748SOL    HW1 5928   1.863   1.437   2.411 -0.6913  1.1384  1.2918
 1748SOL    HW2 5929   1.981   1.511   2.352  0.2272 -1.7907 -0.7726
 1749SOL     OW 5930   0.800   6.575   2.887 -0.0909 -0.0601  0.5354
 1749SOL    HW1 5931   0.880   6.612   2.848 -0.8695  0.1868 -0.8903
 1749SOL    HW2 5932   0.810   6.480   2.876 -0.2924  0.0052 -0.2911
 1750SOL     OW 5933   2.759   4.430   2.003 -0.1074  0.1214  0.3884
 1750SOL    HW1 5934   2.853   4.436   2.013 -0.2564  0.8581  1.4236
 1750SOL    HW2 5935   2.734   4.354   2.057 -0.2084  0.4820  0.8535
 1751SOL     OW 5936   6.710   0.440   3.091  0.1559 -0.0105  0.5651
 1751SOL    HW1 5937   6.780   0.484   3.140 -0.5030 -0.1458  1.6832
 1751SOL    HW2 5938   6.640   0.505   3.086  0.1087 -0.1016  0.0535
 1752SOL     OW 5939   1.467   0.269   4.864 -0.7913  0.8494  0.3413
 1752SOL    HW1 5940   1.402   0.214   4.909  0.2440  0.3551  1.2712
 1752SOL    HW2 5941   1.478   0.344   4.922 -0.0813  0.6266  0.4988
 1753SOL     OW 5942   3.314   3.657   1.825  0.1725  0.0714 -0.7238
 1753SOL    HW1 5943   3.303   3.617   1.739 -0.2922 -0.9502 -0.2100
 1753SOL    HW2 5944   3.243   3.722   1.831 -1.1544 -1.3653 -0.2930
 1754SOL     OW 5945   3.921   3.608   1.561 -0.4631  0.3948  0.5323
 1754SOL    HW1 5946   4.003   3.654   1.541 -0.6155  0.1665 -0.7339
 1754SOL    HW2 5947   3.852   3.671   1.538 -0.6540  0.0218  0.0620
 1755SOL     OW 5948   2.476   0.782   6.105  0.2264  0.4102 -0.5718
 1755SOL    HW1 5949   2.496   0.775   6.198 -0.6251  2.7078 -0.1449
 1755SOL    HW2 5950   2.561   0.803   6.064  0.0447  3.1678  0.2699
 1756SOL     OW 5951   2.172   5.010   4.052  0.1617 -0.1602  0.1304
 1756SOL    HW1 5952   2.234   5.065   4.100 -1.2527  1.8468 -0.2321
 1756SOL    HW2 5953   2.178   4.925   4.096  2.7313  0.0780  0.4446
 1757SOL     OW 5954   0.215   2.086   3.922  0.3125  0.5347  0.3426
 1757SOL    HW1 5955   0.243   2.003   3.960  1.1738  0.6723  0.0292
 1757SOL    HW2 5956   0.296   2.134   3.906 -0.1977  1.7253  1.1327
 1758SOL     OW 5957   5.976   2.030   6.259  0.5934 -0.1413  0.4758
 1758SOL    HW1 5958   6.032   2.052   6.184  0.5697  2.4778  1.1418
 1758SOL    HW2 5959   5.888   2.056   6.232  0.0438 -1.9050  0.3882
 1759SOL     OW 5960   5.545   5.994   2.835  0.0399 -0.2140  0.5637
 1759SOL    HW1 5961   5.476   5.929   2.826 -0.3158  0.4588 -2.5691
 1759SOL    HW2 5962   5.618   5.958   2.784  0.6020  0.9022  0.5581
 1760SOL     OW 5963   5.573   5.568   0.852  0.5427 -0.7811 -0.7243
 1760SOL    HW1 5964   5.479   5.560   0.869  0.2200  0.3347 -1.8448
 1760SOL    HW2 5965   5.598   5.482   0.819  0.3813 -1.7439  1.4553
 1761SOL     OW 5966   2.572   1.709   6.465  0.1768 -0.5819  0.5335
 1761SOL    HW1 5967   2.543   1.799   6.478 -1.1236 -0.8854 -0.1625
 1761SOL    HW2 5968   2.629   1.713   6.388 -0.0870 -0.3903  0.3460
 1762SOL     OW 5969   5.798   5.044   6.062  0.4764  0.2904 -0.5274
 1762SOL    HW1 5970   5.793   5.060   5.968  0.3504 -1.6799 -0.9063
 1762SOL    HW2 5971   5.876   5.092   6.090 -0.3966  2.2430 -1.2898
 1763SOL     OW 5972   4.015   5.216   1.148 -0.7851  0.1424 -0.4529
 1763SOL    HW1 5973   4.109   5.235   1.157 -0.9175  0.7282 -0.2763
 1763SOL    HW2 5974   4.002   5.203   1.054 -0.7817  1.4658 -0.6515
 1764SOL     OW 5975   6.649   6.685   2.904 -0.0259 -0.2670  0.3243
 1764SOL    HW1 5976   6.723   6.738   2.933 -1.4109  0.8381  1.9713
 1764SOL    HW2 5977   6.631   6.626   2.977 -1.3380  0.0956  0.3104
 1765SOL     OW 5978   5.887   1.579   1.079  0.1032  0.0521  0.2984
 1765SOL    HW1 5979   5.799   1.617   1.074  0.9269  2.1130  0.2260
 1765SOL    HW2 5980   5.935   1.622   1.008  1.2754 -0.7239  0.6007
 1766SOL     OW 5981   1.694   0.088   3.899 -0.5043 -0.1634 -0.0133
 1766SOL    HW1 5982   1.734   0.173   3.884 -0.3226 -0.3712 -0.7323
 1766SOL    HW2 5983   1.766   0.031   3.924 -0.1924 -0.7241 -2.0539
 1767SOL     OW 5984   5.103   6.110   1.090  0.2961  0.0597  0.5026
 1767SOL    HW1 5985   5.112   6.122   1.185  1.5055  0.3815  0.3560
 1767SOL    HW2 5986   5.183   6.145   1.053  0.7592 -1.8844 -0.4898
 1768SOL     OW 5987   4.679   5.621   0.074  0.2141  0.2795  0.2546
 1768SOL    HW1 5988   4.750   5.624   0.009 -0.5099  0.9221 -0.5312
 1768SOL    HW2 5989   4.671   5.711   0.105 -1.9782  0.8508 -1.6302
 1769SOL     OW 5990   0.515   5.431   1.281 -0.0042 -0.1437  0.0380
 1769SOL    HW1 5991   0.467   5.405   1.203  0.8588 -0.4931 -0.3941
 1769SOL    HW2 5992   0.505   5.526   1.286 -3.7725 -0.4463  2.0013
 1770SOL     OW 5993   1.284   3.056   3.242  1.1440 -0.0641 -0.0753
 1770SOL    HW1 5994   1.213   3.074   3.180 -0.4122 -0.3587  1.5201
 1770SOL    HW2 5995   1.299   3.140   3.286  2.2007  0.1320 -0.7769
 1771SOL     OW 5996   3.094   4.833   0.010 -0.3257 -0.0454  0.0905
 1771SOL    HW1 5997   3.019   4.777   0.028 -0.6269  0.2552 -0.2180
 1771SOL    HW2 5998   3.062   4.896  -0.054  0.4132 -0.4111 -0.6504
 1772SOL     OW 5999   4.878   3.266   6.201 -0.4002  0.1012  0.0404
 1772SOL    HW1 6000   4.783   3.272   6.195 -0.3917  0.1518 -0.0411
 1772SOL    HW2 6001   4.895   3.245   6.293 -0.5516 -1.1152 -0.1910
 1773SOL     OW 6002   3.277   4.520   0.106  0.3432  0.1067  0.1844
 1773SOL    HW1 6003   3.329   4.540   0.184  0.1897  0.1306  0.2829
 1773SOL    HW2 6004   3.187   4.539   0.133  0.0081 -1.9417  0.7283
 1774SOL     OW 6005   6.588   1.710   3.471  0.6833 -0.1632 -0.2463
 1774SOL    HW1 6006   6.660   1.656   3.439  0.7345 -0.7147  0.7616
 1774SOL    HW2 6007   6.543   1.655   3.535  1.4410  1.3391  1.7120
 1775SOL     OW 6008   6.398   5.559   5.327  0.0317 -0.2094 -0.3067
 1775SOL    HW1 6009   6.349   5.634   5.363 -0.0268  0.1909 -1.1905
 1775SOL    HW2 6010   6.357   5.482   5.366  0.3841  0.2291  0.9747
 1776SOL     OW 6011   6.255   5.828   4.422 -0.2083  0.2786 -0.1252
 1776SOL    HW1 6012   6.315   5.811   4.350  1.4247  0.1334  1.1986
 1776SOL    HW2 6013   6.171   5.845   4.380  0.4482 -0.7707 -1.9985
 1777SOL     OW 6014   3.877   4.420   2.494 -0.1925  0.2305 -0.2356
 1777SOL    HW1 6015   3.857   4.512   2.477  0.7288  0.5773  0.4639
 1777SOL    HW2 6016   3.969   4.420   2.520 -0.5083 -0.7299  0.9814
 1778SOL     OW 6017   1.155   1.635   2.084 -0.4952  0.3579  0.2192
 1778SOL    HW1 6018   1.131   1.606   2.172  1.0356  1.4117  1.0333
 1778SOL    HW2 6019   1.235   1.686   2.097 -0.6884  1.2255 -1.6869
 1779SOL     OW 6020   6.037   4.146   5.039 -0.1432  0.0086 -0.4936
 1779SOL    HW1 6021   5.980   4.169   4.966 -1.7219 -1.6491  0.1566
 1779SOL    HW2 6022   6.083   4.068   5.010 -0.6245 -0.5380  0.1742
 1780SOL     OW 6023   2.711   4.593   4.752  0.2194  0.0155 -0.1595
 1780SOL    HW1 6024   2.779   4.628   4.695  0.7772  0.0482  0.5128
 1780SOL    HW2 6025   2.662   4.532   4.696  1.0706 -0.3380 -0.5365
 1781SOL     OW 6026   2.867   2.385   6.881 -0.3578  0.1187 -0.0033
 1781SOL    HW1 6027   2.777   2.355   6.871 -1.3732  2.5169  1.0621
 1781SOL    HW2 6028   2.890   2.362   6.972  0.7273 -1.8308 -0.7048
 1782SOL     OW 6029   2.019   0.467   6.464  0.7255  0.3792 -0.1680
 1782SOL    HW1 6030   2.111   0.493   6.465  0.6829  0.5183  0.0846
 1782SOL    HW2 6031   1.978   0.525   6.399  0.7099  0.6776  0.1063
 1783SOL     OW 6032   1.216   4.295   5.305  0.3133  0.0897  0.7702
 1783SOL    HW1 6033   1.311   4.281   5.303  0.4894  1.2718  0.5112
 1783SOL    HW2 6034   1.197   4.319   5.395 -0.0440 -2.0105  1.3063
 1784SOL     OW 6035   2.026   2.613   0.791  0.3552  0.2024  0.5000
 1784SOL    HW1 6036   1.948   2.666   0.774  1.0708  0.3907 -2.8405
 1784SOL    HW2 6037   2.084   2.672   0.840 -1.1053  0.4119  2.0690
 1785SOL     OW 6038   5.835   0.713   1.657  0.3058 -0.3904  0.5752
 1785SOL    HW1 6039   5.748   0.739   1.627  0.9423 -0.8447 -1.8839
 1785SOL    HW2 6040   5.826   0.704   1.752 -1.8176  1.4303  0.6400
 1786SOL     OW 6041   5.257   2.574   0.296  0.8067 -0.4587  0.4920
 1786SOL    HW1 6042   5.257   2.561   0.391 -0.1356 -1.2363  0.4061
 1786SOL    HW2 6043   5.178   2.626   0.279 -0.8097 -2.9239 -0.1264
 1787SOL     OW 6044   0.576   5.429   2.686 -0.3591  0.1341  1.0539
 1787SOL    HW1 6045   0.658   5.479   2.688 -0.6448  0.5924  1.6615
 1787SOL    HW2 6046   0.510   5.493   2.656 -0.3795 -0.4091 -0.1028
 1788SOL     OW 6047   2.925   4.696   3.944 -0.5829  0.6344 -0.0010
 1788SOL    HW1 6048   2.937   4.603   3.963 -2.3236 -0.4181 -3.3253
 1788SOL    HW2 6049   3.009   4.736   3.968 -0.0143 -1.5932  2.1401
 1789SOL     OW 6050   5.956   0.869   6.167  0.1394 -0.8023 -0.6262
 1789SOL    HW1 6051   5.964   0.896   6.076  1.1092  0.2335 -0.2569
 1789SOL    HW2 6052   5.887   0.925   6.203  0.8667 -0.0661 -0.3354
 1790SOL     OW 6053   4.170   5.875   0.705 -0.0010 -0.0462  0.0775
 1790SOL    HW1 6054   4.185   5.900   0.614 -2.2317  1.4611  0.0412
 1790SOL    HW2 6055   4.241   5.814   0.726  1.1171  0.3339 -2.3464
 1791SOL     OW 6056   3.899   2.614   6.844  0.0678 -0.2432 -0.1971
 1791SOL    HW1 6057   3.869   2.619   6.935 -0.5768 -0.0298 -0.4175
 1791SOL    HW2 6058   3.971   2.677   6.839 -0.6943  0.6477 -0.1393
 1792SOL     OW 6059   0.799   4.969   0.532 -0.0420  0.2266  0.2534
 1792SOL    HW1 6060   0.774   5.041   0.473  0.3118  1.1071  1.1472
 1792SOL    HW2 6061   0.811   5.011   0.617  1.4849 -0.6723  0.5150
 1793SOL     OW 6062   0.280   4.515   5.683 -0.1263 -0.3404  0.0806
 1793SOL    HW1 6063   0.203   4.506   5.739  1.2989 -3.7723  1.8094
 1793SOL    HW2 6064   0.260   4.461   5.606 -0.2705  0.5577 -0.5185
 1794SOL     OW 6065   5.411   2.178   0.755 -0.2439  0.3249 -0.1811
 1794SOL    HW1 6066   5.415   2.195   0.849  0.8048 -1.4772  0.1338
 1794SOL    HW2 6067   5.350   2.244   0.722 -1.7886  0.0842  1.9746
 1795SOL     OW 6068   5.302   4.706   3.956  0.4420  0.3038 -0.5277
 1795SOL    HW1 6069   5.272   4.779   3.901  1.4595  0.1122 -1.3731
 1795SOL    HW2 6070   5.366   4.745   4.015 -1.2337  0.6685  1.1197
 1796SOL     OW 6071   4.693   1.280   3.377  0.0339 -0.5149 -0.0322
 1796SOL    HW1 6072   4.683   1.356   3.434 -0.5454  0.4765 -1.4100
 1796SOL    HW2 6073   4.605   1.242   3.373 -0.2376  0.1940 -1.2759
 1797SOL     OW 6074   4.866   6.367   4.253  0.0664  0.0232  0.0690
 1797SOL    HW1 6075   4.930   6.309   4.294  0.4289  0.6228  0.3767
 1797SOL    HW2 6076   4.802   6.309   4.213  1.7082 -0.6426 -1.7369
 1798SOL     OW 6077   0.557   3.372   4.950  0.0385  0.2950 -0.1004
 1798SOL    HW1 6078   0.592   3.441   5.006  0.0725  0.9399 -0.8905
 1798SOL    HW2 6079   0.478   3.409   4.912  0.0240 -0.1229 -0.4912
 1799SOL     OW 6080   1.516   6.471   5.315  0.1223  0.1432 -0.7647
 1799SOL    HW1 6081   1.514   6.535   5.386 -0.4736  0.3784 -0.9845
 1799SOL    HW2 6082   1.601   6.428   5.323 -0.6766 -1.2322  1.3273
 1800SOL     OW 6083   5.102   6.131   4.131 -0.2588 -0.3445 -0.3520
 1800SOL    HW1 6084   5.063   6.087   4.055  1.9654 -0.3589 -1.5668
 1800SOL    HW2 6085   5.108   6.223   4.105 -1.2383  0.0236  0.6195
 1801SOL     OW 6086   2.021   1.698   5.710  0.2486 -0.0275 -0.1210
 1801SOL    HW1 6087   1.963   1.748   5.652 -0.3769  2.0101  2.1021
 1801SOL    HW2 6088   1.961   1.649   5.767  0.7381  0.3892  0.7750
 1802SOL     OW 6089   4.542   3.280   0.597  0.2350 -0.0815 -0.8127
 1802SOL    HW1 6090   4.534   3.294   0.691  2.9517 -0.6642 -0.4336
 1802SOL    HW2 6091   4.472   3.334   0.559 -0.4976  0.6809  1.4683
 1803SOL     OW 6092   0.128   5.418   0.867  0.9252  0.1297 -0.4581
 1803SOL    HW1 6093   0.052   5.437   0.922  0.0550 -2.5165 -0.6358
 1803SOL    HW2 6094   0.141   5.498   0.816 -0.9678  1.0791  0.4525
 1804SOL     OW 6095   0.168   3.966   6.396  0.2360 -0.5423  0.5040
 1804SOL    HW1 6096   0.154   3.941   6.487 -1.4634  0.0966  0.4684
 1804SOL    HW2 6097   0.148   3.887   6.346 -1.0450 -0.3058  0.6016
 1805SOL     OW 6098   6.370   5.390   5.689  0.0016 -0.2744 -0.0062
 1805SOL    HW1 6099   6.459   5.397   5.656  0.1370  1.2689  0.5843
 1805SOL    HW2 6100   6.318   5.365   5.612  0.5981  1.2673 -0.9581
 1806SOL     OW 6101   4.949   2.906   6.774  0.0954 -0.2285  0.0571
 1806SOL    HW1 6102   4.951   2.951   6.858 -0.2037  2.5742 -1.3051
 1806SOL    HW2 6103   5.028   2.852   6.774 -0.4163 -1.0965  2.4755
 1807SOL     OW 6104   1.099   0.636   3.880  0.1311 -0.1559  0.0672
 1807SOL    HW1 6105   1.158   0.575   3.836 -0.1840 -1.4715  1.3729
 1807SOL    HW2 6106   1.017   0.588   3.890  0.0809  0.1927  1.7428
 1808SOL     OW 6107   3.779   2.629   3.501  0.0099  0.3531  0.4668
 1808SOL    HW1 6108   3.837   2.604   3.572 -0.7275 -0.6883  0.7186
 1808SOL    HW2 6109   3.837   2.666   3.434  1.0143 -0.9915  0.5598
 1809SOL     OW 6110   4.051   6.470   0.145 -0.4716  0.2352 -0.3818
 1809SOL    HW1 6111   4.010   6.416   0.212  0.4144 -1.1969 -0.9473
 1809SOL    HW2 6112   4.144   6.446   0.149 -0.4894 -0.3444 -2.5046
 1810SOL     OW 6113   6.577   1.506   2.770  0.0893  0.5776 -0.3473
 1810SOL    HW1 6114   6.654   1.471   2.725  0.1767 -2.8743  2.1430
 1810SOL    HW2 6115   6.613   1.556   2.843  0.0439 -0.9294  0.7420
 1811SOL     OW 6116   2.983   4.111   5.144 -0.0793 -0.0013 -0.0927
 1811SOL    HW1 6117   3.062   4.071   5.109 -1.5665 -2.3856 -0.9793
 1811SOL    HW2 6118   2.988   4.097   5.238  1.2220  1.2881  0.0743
 1812SOL     OW 6119   1.424   1.733   2.113  0.1490 -0.2417  0.1675
 1812SOL    HW1 6120   1.418   1.753   2.207 -2.1250  1.1870 -0.2144
 1812SOL    HW2 6121   1.510   1.766   2.087  0.5778 -0.1380  1.6056
 1813SOL     OW 6122   2.169   0.210   4.419 -0.0255  0.0284 -0.0929
 1813SOL    HW1 6123   2.104   0.167   4.364  0.8594 -1.0547 -0.3363
 1813SOL    HW2 6124   2.142   0.301   4.422 -0.9388 -0.1951 -1.0800
 1814SOL     OW 6125   6.693   6.070   1.406  0.7244 -0.2376  0.4734
 1814SOL    HW1 6126   6.766   6.127   1.432  1.0027 -1.4702  2.6523
 1814SOL    HW2 6127   6.710   5.988   1.451 -0.4972 -1.5504 -1.3472
 1815SOL     OW 6128   1.698   4.057   0.348  0.1580  0.1370  0.1265
 1815SOL    HW1 6129   1.643   3.982   0.369  0.1172  0.1792  0.1691
 1815SOL    HW2 6130   1.768   4.055   0.412  1.3780 -1.1348 -1.1858
 1816SOL     OW 6131   0.609   0.576   6.355  0.2363  0.2360  0.2445
 1816SOL    HW1 6132   0.566   0.660   6.373  0.3372  0.0008  1.7177
 1816SOL    HW2 6133   0.538   0.518   6.328  0.2955  1.0222 -1.7592
 1817SOL     OW 6134   5.831   0.712   1.924  0.3791 -0.4325  0.7008
 1817SOL    HW1 6135   5.805   0.642   1.984  0.5231 -0.0418  1.2260
 1817SOL    HW2 6136   5.774   0.786   1.947 -0.6285 -0.7458 -0.6700
 1818SOL     OW 6137   3.035   1.467   0.931 -0.1462  0.5520 -0.0008
 1818SOL    HW1 6138   3.102   1.434   0.990 -0.0811  0.6489 -0.0210
 1818SOL    HW2 6139   3.056   1.428   0.846 -1.2040 -0.9379  0.3795
 1819SOL     OW 6140   1.303   6.273   0.767 -1.2279 -0.7931  0.4124
 1819SOL    HW1 6141   1.286   6.189   0.723  1.1670 -0.8629 -0.4860
 1819SOL    HW2 6142   1.326   6.333   0.697 -0.3347 -0.0934  1.2760
 1820SOL     OW 6143   3.237   0.523   5.728 -0.4407  0.6321  0.0498
 1820SOL    HW1 6144   3.270   0.458   5.666 -0.7802  0.5068 -0.0040
 1820SOL    HW2 6145   3.207   0.596   5.673 -0.5152  0.6249  0.0803
 1821SOL     OW 6146   6.030   1.273   1.913 -0.6724 -0.1321  0.0269
 1821SOL    HW1 6147   6.061   1.339   1.976 -0.5822  2.9030 -2.9214
 1821SOL    HW2 6148   6.100   1.208   1.910  1.3838  1.9614 -0.0759
 1822SOL     OW 6149   5.418   2.601   1.700 -0.3597 -0.3347 -0.1718
 1822SOL    HW1 6150   5.427   2.671   1.635  0.4089 -0.9229 -0.7185
 1822SOL    HW2 6151   5.352   2.543   1.664  0.2585 -0.8023 -0.5731
 1823SOL     OW 6152   1.455   5.660   4.540 -0.3508 -0.1251  0.2361
 1823SOL    HW1 6153   1.473   5.598   4.469  0.8737  0.7653 -0.2612
 1823SOL    HW2 6154   1.530   5.653   4.599  0.2378  1.4609 -0.2691
 1824SOL     OW 6155   4.019   4.370   2.200  0.3912  0.0238 -0.1626
 1824SOL    HW1 6156   4.012   4.291   2.254  0.2054 -0.4702 -0.9000
 1824SOL    HW2 6157   4.037   4.440   2.263 -1.5627 -0.2352  0.7705
 1825SOL     OW 6158   6.370   0.807   3.788 -0.1612  0.5605 -0.2095
 1825SOL    HW1 6159   6.295   0.782   3.734  0.0796  2.3512 -1.4399
 1825SOL    HW2 6160   6.397   0.725   3.830 -1.6849 -0.4664 -1.1283
 1826SOL     OW 6161   0.444   1.555   2.974 -0.2467 -0.4299 -0.5413
 1826SOL    HW1 6162   0.411   1.540   2.885 -2.3459  0.6361 -0.0118
 1826SOL    HW2 6163   0.374   1.604   3.017  1.2747  0.2102  1.3231
 1827SOL     OW 6164   4.327   1.713   5.350  0.7496  0.3790 -0.2635
 1827SOL    HW1 6165   4.371   1.747   5.428  1.9008  1.4331 -1.3254
 1827SOL    HW2 6166   4.289   1.630   5.378 -1.3740  2.0513  2.1957
 1828SOL     OW 6167   4.369   4.104   4.280  0.0588  0.0089  0.0434
 1828SOL    HW1 6168   4.420   4.026   4.301  0.6265  0.6010  0.9167
 1828SOL    HW2 6169   4.301   4.107   4.347  0.6069  0.7689  0.5751
 1829SOL     OW 6170   2.053   5.865   5.945  0.8434 -0.2842  0.0969
 1829SOL    HW1 6171   1.982   5.817   5.988  0.4148  1.3552  1.3211
 1829SOL    HW2 6172   2.133   5.820   5.973  0.3704 -1.7718 -0.8042
 1830SOL     OW 6173   1.089   0.323   6.420  0.2317  0.2229  0.0745
 1830SOL    HW1 6174   1.109   0.391   6.484 -1.6170  1.3415 -0.4768
 1830SOL    HW2 6175   1.074   0.370   6.338 -1.7839 -0.7378 -0.1647
 1831SOL     OW 6176   1.150   5.687   0.377 -0.6410  0.8308 -0.5335
 1831SOL    HW1 6177   1.055   5.697   0.380 -0.4672  2.4542  1.0986
 1831SOL    HW2 6178   1.166   5.598   0.409 -1.5296  1.3940  1.6101
 1832SOL     OW 6179   6.044   3.278   1.042  0.5171 -0.0028  0.3589
 1832SOL    HW1 6180   5.975   3.338   1.014  2.6648  2.7465  0.5807
 1832SOL    HW2 6181   6.037   3.276   1.138  0.6908  0.1679  0.3737
 1833SOL     OW 6182   1.555   2.798   2.376  0.1912  0.1386  0.3216
 1833SOL    HW1 6183   1.587   2.879   2.337 -1.6628  0.0896 -1.4806
 1833SOL    HW2 6184   1.555   2.815   2.470  1.8846  1.4120  0.1359
 1834SOL     OW 6185   3.133   6.131   2.788 -0.8574 -0.0496 -0.4200
 1834SOL    HW1 6186   3.069   6.097   2.726  0.7053 -0.0852 -2.1043
 1834SOL    HW2 6187   3.122   6.076   2.866 -1.6517 -1.2194 -1.3138
 1835SOL     OW 6188   2.981   6.379   6.352  0.0754  0.8803  0.1192
 1835SOL    HW1 6189   2.898   6.425   6.342 -0.4233 -0.2673 -1.4614
 1835SOL    HW2 6190   2.957   6.293   6.388  0.4654  0.3270 -0.8733
 1836SOL     OW 6191   3.115   5.201   2.030  0.0997  0.4611 -0.0825
 1836SOL    HW1 6192   3.021   5.190   2.022  0.3254 -0.2204 -2.8809
 1836SOL    HW2 6193   3.151   5.163   1.949  2.7905  0.4854  0.9817
 1837SOL     OW 6194   4.667   1.527   1.096  0.6361  0.1207 -0.1418
 1837SOL    HW1 6195   4.742   1.575   1.063  0.3061  0.4636 -0.3988
 1837SOL    HW2 6196   4.624   1.492   1.018  0.7527 -0.4178  0.0258
 1838SOL     OW 6197   5.656   1.801   1.215  0.6438 -0.0480 -0.6008
 1838SOL    HW1 6198   5.728   1.816   1.153 -0.2594  1.8594 -1.2568
 1838SOL    HW2 6199   5.683   1.847   1.294  0.6472 -0.3014 -0.4542
 1839SOL     OW 6200   4.886   0.394   6.361 -0.3289  0.2557 -0.3956
 1839SOL    HW1 6201   4.971   0.438   6.363  0.0290 -0.4595  0.5060
 1839SOL    HW2 6202   4.901   0.316   6.307 -0.0717 -0.5353  0.7959
 1840SOL     OW 6203   1.814   6.486   2.329 -0.2467 -0.0269 -0.0279
 1840SOL    HW1 6204   1.832   6.420   2.262 -0.1476 -0.6743  0.6261
 1840SOL    HW2 6205   1.879   6.554   2.313  1.4891 -1.3523  0.9614
 1841SOL     OW 6206   1.179   6.274   5.350 -0.6274  0.1746  1.0376
 1841SOL    HW1 6207   1.114   6.330   5.393 -0.1187 -0.6852  3.0917
 1841SOL    HW2 6208   1.218   6.224   5.422  0.5484 -1.1460 -0.4426
 1842SOL     OW 6209   2.071   2.579   4.312 -0.2598  0.1954  0.0576
 1842SOL    HW1 6210   2.027   2.605   4.393  1.6974  0.1712  1.1699
 1842SOL    HW2 6211   2.127   2.506   4.338 -1.1050 -1.1966 -1.7698
 1843SOL     OW 6212   3.886   4.544   3.875  0.0403 -0.2805  0.0508
 1843SOL    HW1 6213   3.949   4.615   3.886  1.1951 -0.8253 -2.3624
 1843SOL    HW2 6214   3.920   4.493   3.801 -2.7065 -1.1837 -0.7008
 1844SOL     OW 6215   6.277   5.915   5.742  0.1537  0.5427 -0.0691
 1844SOL    HW1 6216   6.373   5.910   5.741  0.1622  0.7286 -0.5291
 1844SOL    HW2 6217   6.255   5.944   5.830  0.5993  1.8714 -0.3764
 1845SOL     OW 6218   4.051   6.428   5.819  0.2081  0.0580  0.2015
 1845SOL    HW1 6219   4.115   6.491   5.851 -0.0811  0.5945 -0.2622
 1845SOL    HW2 6220   4.002   6.402   5.898  0.0800  0.7021  0.3444
 1846SOL     OW 6221   4.822   3.347   1.524  0.4905 -0.2966  0.7081
 1846SOL    HW1 6222   4.914   3.374   1.518  0.6077 -0.4170  1.8154
 1846SOL    HW2 6223   4.779   3.420   1.569 -0.0810  0.0023 -0.2732
 1847SOL     OW 6224   1.713   4.541   6.206 -0.1287  0.4066 -0.4062
 1847SOL    HW1 6225   1.804   4.544   6.176 -0.3156  3.2872 -0.9711
 1847SOL    HW2 6226   1.671   4.614   6.162 -1.8049  1.4816  2.6718
 1848SOL     OW 6227   0.732   2.937   2.503  0.0546  0.3178  0.1880
 1848SOL    HW1 6228   0.781   2.870   2.455 -0.8451 -0.0992 -0.1545
 1848SOL    HW2 6229   0.754   3.019   2.458 -0.3920 -0.0058 -0.6356
 1849SOL     OW 6230   4.041   4.244   4.133  0.5516 -0.4771 -0.1203
 1849SOL    HW1 6231   3.952   4.227   4.165  0.3443  0.4632 -0.1418
 1849SOL    HW2 6232   4.054   4.338   4.149  1.9316 -0.7960  0.8361
 1850SOL     OW 6233   5.799   0.405   6.612  0.0188  0.2240  0.3527
 1850SOL    HW1 6234   5.802   0.441   6.523 -1.1087 -0.2934  0.0817
 1850SOL    HW2 6235   5.871   0.342   6.615  1.1661  1.5053  0.3962
 1851SOL     OW 6236   3.607   2.686   6.541  0.6512 -0.1395 -0.1230
 1851SOL    HW1 6237   3.604   2.663   6.634  2.2093 -0.1652 -0.0493
 1851SOL    HW2 6238   3.633   2.778   6.540  1.9314 -0.4881 -0.5344
 1852SOL     OW 6239   5.685   2.727   0.739  0.0823 -0.0010  0.0977
 1852SOL    HW1 6240   5.663   2.809   0.783  0.3471  1.0066 -1.5638
 1852SOL    HW2 6241   5.652   2.659   0.798 -2.7888  1.3247  0.2238
 1853SOL     OW 6242   4.601   5.168   3.357  0.5890 -0.0878  0.3809
 1853SOL    HW1 6243   4.513   5.203   3.342  0.6855 -0.1590 -0.4091
 1853SOL    HW2 6244   4.631   5.141   3.270  2.3207  2.0887  0.1987
 1854SOL     OW 6245   6.168   0.735   5.853 -0.2046 -0.6209  0.5441
 1854SOL    HW1 6246   6.214   0.752   5.771 -1.1040  0.3796  0.2255
 1854SOL    HW2 6247   6.222   0.669   5.897  0.6173 -0.7259 -0.5653
 1855SOL     OW 6248   4.384   5.696   4.059  0.1716  0.1311  0.1823
 1855SOL    HW1 6249   4.396   5.615   4.011 -4.1084  0.1855 -1.3647
 1855SOL    HW2 6250   4.457   5.752   4.031  1.8308 -2.2713 -0.5771
 1856SOL     OW 6251   5.286   5.511   2.634 -0.2588 -0.3127  0.3843
 1856SOL    HW1 6252   5.226   5.576   2.671  1.2280  1.0523  0.4884
 1856SOL    HW2 6253   5.284   5.527   2.540  1.0557  0.7590  0.5203
 1857SOL     OW 6254   3.632   3.603   3.442  0.0669 -0.1893  0.0353
 1857SOL    HW1 6255   3.582   3.557   3.509  1.1459  0.1406  1.1074
 1857SOL    HW2 6256   3.673   3.534   3.390  0.9006 -0.4640  1.0306
 1858SOL     OW 6257   5.909   4.165   0.806 -0.1643 -0.2171  0.2090
 1858SOL    HW1 6258   5.828   4.172   0.855  0.1151 -0.8385  0.7816
 1858SOL    HW2 6259   5.882   4.133   0.720 -0.4679 -1.1562  0.6368
 1859SOL     OW 6260   0.723   2.022   6.546  0.2166 -0.5514  0.7995
 1859SOL    HW1 6261   0.664   2.066   6.484  1.3768  0.5385  0.4275
 1859SOL    HW2 6262   0.772   2.093   6.586  3.3428 -1.4869 -1.0079
 1860SOL     OW 6263   4.736   5.414   3.692  0.1318  0.1026 -0.3182
 1860SOL    HW1 6264   4.666   5.480   3.689 -0.8347 -0.9142 -1.2954
 1860SOL    HW2 6265   4.811   5.457   3.653 -0.1978  0.9303 -0.0666
 1861SOL     OW 6266   0.584   2.823   3.189  0.2261  0.2471  0.3601
 1861SOL    HW1 6267   0.568   2.761   3.260  0.5314  0.0015  0.2154
 1861SOL    HW2 6268   0.575   2.771   3.109  0.5753  0.3710  0.2402
 1862SOL     OW 6269   4.207   3.399   2.362  0.4473 -0.2736  0.2389
 1862SOL    HW1 6270   4.265   3.362   2.296  1.6076 -0.0081  1.0758
 1862SOL    HW2 6271   4.163   3.323   2.401  1.1848 -0.5953  0.4614
 1863SOL     OW 6272   5.415   6.724   6.291  0.7554  0.5816 -0.1464
 1863SOL    HW1 6273   5.404   6.683   6.377  2.4755  1.9041  0.7665
 1863SOL    HW2 6274   5.421   6.650   6.230 -0.4070 -0.3839  0.8491
 1864SOL     OW 6275   2.348   2.303   3.619 -0.3199  0.2052  0.4242
 1864SOL    HW1 6276   2.292   2.377   3.596 -0.1332  0.4731  0.8265
 1864SOL    HW2 6277   2.300   2.256   3.687 -0.8848 -0.6065 -0.4941
 1865SOL     OW 6278   5.538   3.611   0.912 -0.2165  0.1710 -0.0709
 1865SOL    HW1 6279   5.462   3.663   0.884  0.1208 -0.0523 -1.4961
 1865SOL    HW2 6280   5.596   3.674   0.954 -0.2765  0.7526 -0.8429
 1866SOL     OW 6281   4.616   1.328   3.739 -0.1476  0.1070  0.2530
 1866SOL    HW1 6282   4.701   1.355   3.706  0.5546 -1.0950  0.9875
 1866SOL    HW2 6283   4.599   1.244   3.698 -1.1957  0.5140 -0.2003
 1867SOL     OW 6284   6.412   5.322   3.766  0.1137 -0.4930  0.6544
 1867SOL    HW1 6285   6.499   5.354   3.744 -0.6320  0.3525 -1.4014
 1867SOL    HW2 6286   6.359   5.402   3.777 -0.7483 -0.9782  0.1726
 1868SOL     OW 6287   3.774   2.522   6.363 -0.0790 -0.4116 -0.2264
 1868SOL    HW1 6288   3.721   2.570   6.427 -0.6138 -0.9589 -0.2486
 1868SOL    HW2 6289   3.794   2.587   6.295  0.0454  0.0347  0.2298
 1869SOL     OW 6290   0.824   5.724   3.257  0.9265 -0.1027 -0.6983
 1869SOL    HW1 6291   0.801   5.694   3.168  1.2194  0.1528 -0.8598
 1869SOL    HW2 6292   0.918   5.708   3.264  0.8809 -0.2424 -0.3833
 1870SOL     OW 6293   0.584   6.721   1.195  0.4424  0.4917  0.2179
 1870SOL    HW1 6294   0.584   6.722   1.099 -1.0066 -0.5981  0.1830
 1870SOL    HW2 6295   0.581   6.814   1.219 -1.2077  0.7546 -0.8359
 1871SOL     OW 6296   6.297   4.298   4.321  0.2073  0.2889  0.5928
 1871SOL    HW1 6297   6.372   4.355   4.336  0.5318 -0.3399  1.4939
 1871SOL    HW2 6298   6.332   4.209   4.334 -0.5261 -0.0504  0.3154
 1872SOL     OW 6299   3.304   4.932   4.921 -0.3770 -0.4008 -0.3500
 1872SOL    HW1 6300   3.374   4.993   4.946 -0.8380  0.3993 -0.9542
 1872SOL    HW2 6301   3.228   4.962   4.971 -0.4728 -0.8234 -0.2431
 1873SOL     OW 6302   6.216   4.507   3.871 -0.5412  0.0160  0.2442
 1873SOL    HW1 6303   6.172   4.577   3.918 -0.2514 -0.0996  0.6895
 1873SOL    HW2 6304   6.181   4.427   3.910  0.2244 -0.0763  0.7597
 1874SOL     OW 6305   6.417   1.251   0.826  0.1601  0.4020 -0.1220
 1874SOL    HW1 6306   6.422   1.202   0.908 -1.0884  2.0386  0.9830
 1874SOL    HW2 6307   6.498   1.228   0.779 -0.2584 -2.5293  0.3871
 1875SOL     OW 6308   1.943   1.121   3.724  0.1847 -0.4330 -0.1442
 1875SOL    HW1 6309   2.027   1.132   3.769  0.3440 -1.7330 -0.0892
 1875SOL    HW2 6310   1.877   1.133   3.792  0.3216  0.2183 -0.1133
 1876SOL     OW 6311   0.743   6.449   3.520  0.1989  0.0281  0.2690
 1876SOL    HW1 6312   0.662   6.458   3.569  0.4125 -0.4016  0.7066
 1876SOL    HW2 6313   0.802   6.401   3.578  0.2818 -0.9573 -0.5988
 1877SOL     OW 6314   4.578   1.692   3.987  0.1883 -0.3942 -0.0261
 1877SOL    HW1 6315   4.527   1.637   3.927 -0.0661 -2.0889  1.6283
 1877SOL    HW2 6316   4.668   1.683   3.957  0.0711 -1.2593 -0.1514
 1878SOL     OW 6317   0.875   3.600   5.170 -0.2730 -0.4576 -0.5721
 1878SOL    HW1 6318   0.823   3.656   5.228 -0.3294 -1.7040  0.6416
 1878SOL    HW2 6319   0.914   3.535   5.228  0.3191 -1.2884 -1.8467
 1879SOL     OW 6320   5.137   0.964   4.639  0.3357  0.1146 -0.1034
 1879SOL    HW1 6321   5.113   0.994   4.551 -0.1606 -3.4554 -1.3433
 1879SOL    HW2 6322   5.224   0.925   4.627 -0.1065 -1.1726  0.7728
 1880SOL     OW 6323   0.665   1.634   2.609  0.1069 -0.1145  0.4226
 1880SOL    HW1 6324   0.736   1.574   2.632  0.7252  0.3775 -0.1769
 1880SOL    HW2 6325   0.585   1.585   2.629  0.5506 -1.8815 -1.7695
 1881SOL     OW 6326   5.394   1.933   2.789 -0.1210 -0.6984 -0.2213
 1881SOL    HW1 6327   5.403   1.889   2.873  1.3890  1.0134  0.5940
 1881SOL    HW2 6328   5.483   1.963   2.768 -0.9185  1.2412 -1.0631
 1882SOL     OW 6329   6.698   0.536   4.566  0.3591  0.5586 -0.3687
 1882SOL    HW1 6330   6.622   0.593   4.574 -0.2505 -0.2614 -0.1947
 1882SOL    HW2 6331   6.670   0.465   4.509  1.0763  0.3759 -0.5057
 1883SOL     OW 6332   5.408   5.016   4.896  0.1948 -0.2964 -0.1010
 1883SOL    HW1 6333   5.334   4.979   4.944  0.2038 -0.8604 -0.5178
 1883SOL    HW2 6334   5.425   5.099   4.940 -0.4864 -0.3045  0.1979
 1884SOL     OW 6335   5.702   0.183   3.647 -0.4945 -0.3474  0.1399
 1884SOL    HW1 6336   5.781   0.231   3.625  0.2040 -1.1721  0.7943
 1884SOL    HW2 6337   5.638   0.212   3.582  1.0886 -1.6731 -2.1464
 1885SOL     OW 6338   3.900   0.336   4.237 -0.1443 -0.4362 -0.1235
 1885SOL    HW1 6339   3.867   0.424   4.255  0.2111 -0.0993 -1.0718
 1885SOL    HW2 6340   3.884   0.323   4.144  2.5017 -0.1783 -0.6822
 1886SOL     OW 6341   4.324   1.896   3.920  0.1961 -0.1286 -0.5078
 1886SOL    HW1 6342   4.275   1.975   3.944  1.7683  0.1171  2.3664
 1886SOL    HW2 6343   4.270   1.824   3.953  0.2799 -0.0405 -0.1717
 1887SOL     OW 6344   3.341   5.696   6.126 -0.0431 -0.6567 -0.2529
 1887SOL    HW1 6345   3.310   5.612   6.160 -2.1771  0.4052  0.6285
 1887SOL    HW2 6346   3.316   5.760   6.192  1.2420  0.7416 -1.0442
 1888SOL     OW 6347   3.992   2.264   6.551  0.3280  0.4242  0.2701
 1888SOL    HW1 6348   3.996   2.285   6.644  0.2717  0.9047  0.1713
 1888SOL    HW2 6349   3.900   2.273   6.528  0.5497  1.9306 -0.1739
 1889SOL     OW 6350   0.757   4.445   4.669  0.3290 -0.0567  0.1567
 1889SOL    HW1 6351   0.794   4.424   4.583  1.5651  0.4254  0.5526
 1889SOL    HW2 6352   0.701   4.370   4.690 -0.3470  0.0215 -1.2507
 1890SOL     OW 6353   4.699   0.205   6.518  0.1233 -0.3333 -0.3102
 1890SOL    HW1 6354   4.609   0.197   6.550 -0.4704 -1.1699 -2.0855
 1890SOL    HW2 6355   4.693   0.258   6.439  1.3192  0.2540 -0.0348
 1891SOL     OW 6356   4.864   6.382   5.486  0.0235 -0.1439 -0.3304
 1891SOL    HW1 6357   4.944   6.337   5.459  0.0170 -0.5536  0.3120
 1891SOL    HW2 6358   4.883   6.475   5.473  1.5934 -0.0073  2.2813
 1892SOL     OW 6359   2.134   4.234   0.891  0.0734  0.2003 -0.5689
 1892SOL    HW1 6360   2.229   4.231   0.901  0.0119  0.4381  0.1786
 1892SOL    HW2 6361   2.119   4.297   0.821  0.5225 -1.1757 -1.9683
 1893SOL     OW 6362   0.621   0.171   2.931 -0.3343 -0.2481  0.5128
 1893SOL    HW1 6363   0.610   0.102   2.996  0.0757 -1.8890 -1.0623
 1893SOL    HW2 6364   0.711   0.161   2.900 -1.1867 -1.0534 -1.9032
 1894SOL     OW 6365   3.048   5.742   1.678  0.4788 -0.2244 -0.4593
 1894SOL    HW1 6366   2.960   5.768   1.705  1.3321  1.9569  0.4857
 1894SOL    HW2 6367   3.052   5.762   1.585  0.3148  0.8056 -0.2595
 1895SOL     OW 6368   1.885   1.684   1.861 -0.2545  0.2945  0.2839
 1895SOL    HW1 6369   1.885   1.599   1.905 -0.9677 -0.1676 -0.5573
 1895SOL    HW2 6370   1.977   1.709   1.856  0.0875 -1.0121 -0.5078
 1896SOL     OW 6371   0.581   2.624   6.635  0.0878  0.1340 -0.3970
 1896SOL    HW1 6372   0.511   2.689   6.647 -0.2281 -0.2926  0.1350
 1896SOL    HW2 6373   0.561   2.583   6.551  0.3972  0.8542 -0.8223
 1897SOL     OW 6374   0.587   1.596   5.205 -0.1660  0.1734  0.0630
 1897SOL    HW1 6375   0.491   1.599   5.202 -0.1992 -0.5853  0.3980
 1897SOL    HW2 6376   0.610   1.523   5.148  0.0769 -1.4253  2.0981
 1898SOL     OW 6377   5.009   0.613   1.992 -0.5630 -0.0008 -0.4352
 1898SOL    HW1 6378   4.918   0.626   2.019 -0.5022  1.6495 -0.9562
 1898SOL    HW2 6379   5.045   0.701   1.984  1.7810 -0.6185  1.9332
 1899SOL     OW 6380   0.145   0.991   5.393  0.0411  1.0036 -0.2537
 1899SOL    HW1 6381   0.089   1.040   5.331 -0.9905  1.0429  0.6790
 1899SOL    HW2 6382   0.090   0.981   5.471  1.5255  1.4864  0.8892
 1900SOL     OW 6383   3.868   4.184   2.674  0.2504 -0.3782 -0.5418
 1900SOL    HW1 6384   3.793   4.126   2.658  0.5649 -1.0433  0.2906
 1900SOL    HW2 6385   3.845   4.266   2.630  0.0401 -1.3032 -2.2272
 1901SOL     OW 6386   2.237   3.126   1.457 -0.0258  0.4121  0.2062
 1901SOL    HW1 6387   2.200   3.110   1.544 -2.0056  0.0902 -0.6468
 1901SOL    HW2 6388   2.204   3.213   1.433  0.5162  0.4991 -0.2420
 1902SOL     OW 6389   4.418   5.844   2.798 -0.6266  0.4274  0.0587
 1902SOL    HW1 6390   4.445   5.933   2.775  0.1888 -0.1480 -1.2738
 1902SOL    HW2 6391   4.339   5.829   2.745  1.1778 -0.8489 -2.4621
 1903SOL     OW 6392   1.609   6.546   3.791  0.0365  0.6081  0.0268
 1903SOL    HW1 6393   1.701   6.522   3.780 -0.1191 -0.2062  0.4397
 1903SOL    HW2 6394   1.588   6.519   3.880 -0.6170  0.7564 -0.0826
 1904SOL     OW 6395   4.735   5.123   5.061  0.0999  0.2367 -0.1631
 1904SOL    HW1 6396   4.786   5.144   4.983  3.9214  1.9109  2.5018
 1904SOL    HW2 6397   4.680   5.200   5.076 -0.7385 -0.1418 -1.1930
 1905SOL     OW 6398   6.894   0.223   4.298  0.3590 -0.3844 -0.2449
 1905SOL    HW1 6399   6.936   0.245   4.215  0.9353  0.4513  0.2559
 1905SOL    HW2 6400   6.855   0.137   4.282 -0.1691  0.0785 -1.6057
 1906SOL     OW 6401   4.140   3.807   4.475 -0.1970  0.3380 -0.0877
 1906SOL    HW1 6402   4.148   3.743   4.405 -0.4640  0.2518 -0.0370
 1906SOL    HW2 6403   4.058   3.786   4.519  0.7622 -0.6662  1.2950
 1907SOL     OW 6404   0.025   3.554   4.542  0.1117  0.3184 -0.1278
 1907SOL    HW1 6405   0.037   3.513   4.628  0.2864  0.5485 -0.0432
 1907SOL    HW2 6406  -0.042   3.620   4.556  0.0482  0.2698 -0.1984
 1908SOL     OW 6407   5.354   4.358   1.885 -0.4331 -0.2278 -0.3126
 1908SOL    HW1 6408   5.364   4.346   1.980 -3.0199 -0.9372 -0.0414
 1908SOL    HW2 6409   5.342   4.452   1.874 -0.7098 -0.2040  0.1537
 1909SOL     OW 6410   2.109   0.551   5.458 -0.2308  0.1964  0.7487
 1909SOL    HW1 6411   2.128   0.622   5.397 -3.1115  0.1064 -0.4434
 1909SOL    HW2 6412   2.149   0.578   5.540  3.2067  0.6674 -0.9023
 1910SOL     OW 6413   3.008   0.550   6.400  0.0558  0.0663  0.6643
 1910SOL    HW1 6414   3.040   0.583   6.315  1.5920  1.8168  1.8284
 1910SOL    HW2 6415   3.078   0.491   6.430  0.2916  0.6975  1.3932
 1911SOL     OW 6416   5.866   5.726   5.361  0.3908  0.1977  0.5281
 1911SOL    HW1 6417   5.934   5.658   5.352 -1.4386 -1.5469 -1.4556
 1911SOL    HW2 6418   5.875   5.779   5.281  0.3808  0.9196  1.0006
 1912SOL     OW 6419   4.541   5.515   0.349 -0.1782  0.6146  0.1913
 1912SOL    HW1 6420   4.489   5.565   0.412 -0.8337  0.8571 -0.5435
 1912SOL    HW2 6421   4.486   5.508   0.271 -0.4773 -1.9769  0.5322
 1913SOL     OW 6422   5.472   5.453   6.471  0.1071  0.0770 -0.2958
 1913SOL    HW1 6423   5.517   5.455   6.555 -2.1181  0.6795  0.9691
 1913SOL    HW2 6424   5.426   5.369   6.471 -0.0288  0.1479 -0.8421
 1914SOL     OW 6425   1.692   2.925   1.014  0.1869 -0.1327  0.7096
 1914SOL    HW1 6426   1.642   2.871   0.953  1.0448  0.2371 -0.3455
 1914SOL    HW2 6427   1.680   2.882   1.099  0.5273 -1.7633 -0.0261
 1915SOL     OW 6428   4.410   2.850   5.687  0.3132  0.1932 -0.2762
 1915SOL    HW1 6429   4.407   2.897   5.603 -0.1111 -0.2311 -0.5011
 1915SOL    HW2 6430   4.330   2.797   5.687  1.1134 -1.0417 -0.3150
 1916SOL     OW 6431   1.451   0.424   6.400  0.0340  0.2177 -0.1559
 1916SOL    HW1 6432   1.503   0.504   6.407 -1.0121  0.9304 -0.1926
 1916SOL    HW2 6433   1.374   0.442   6.454 -0.4783 -0.5494 -0.6254
 1917SOL     OW 6434   6.111   3.872   6.125  0.1774 -0.5283  0.1903
 1917SOL    HW1 6435   6.045   3.928   6.166  0.1198 -0.7063  0.3398
 1917SOL    HW2 6436   6.192   3.892   6.173  0.7189  1.2365 -1.3346
 1918SOL     OW 6437   5.393   0.095   6.450  0.1907 -0.3705 -0.6800
 1918SOL    HW1 6438   5.412   0.020   6.394 -0.0039  0.2591 -1.6145
 1918SOL    HW2 6439   5.333   0.061   6.516 -2.2015 -0.4444 -2.7492
 1919SOL     OW 6440   0.131   5.549   3.328  0.7700  0.2010 -0.2356
 1919SOL    HW1 6441   0.203   5.535   3.390  0.9717  0.9881 -0.2873
 1919SOL    HW2 6442   0.093   5.462   3.317 -0.2053  0.2589  2.0903
 1920SOL     OW 6443   6.440   0.410   5.294  0.0769 -0.2239  0.0479
 1920SOL    HW1 6444   6.516   0.456   5.258  0.3739 -0.0734  0.8448
 1920SOL    HW2 6445   6.449   0.420   5.389 -0.9067 -0.2603  0.1567
 1921SOL     OW 6446   0.122   6.564   1.244  0.4301  0.6125 -0.0343
 1921SOL    HW1 6447   0.196   6.579   1.302 -0.4145  1.7853  0.7979
 1921SOL    HW2 6448   0.159   6.518   1.168  2.2376  2.2936 -0.2387
 1922SOL     OW 6449   4.223   2.084   6.602  0.0245  0.9536  0.1935
 1922SOL    HW1 6450   4.155   2.150   6.615 -0.4998  0.4166  0.2095
 1922SOL    HW2 6451   4.293   2.130   6.555 -1.2401  1.0133 -1.7646
 1923SOL     OW 6452   6.103   0.240   2.428  0.5534 -0.4373 -0.8340
 1923SOL    HW1 6453   6.192   0.251   2.462 -0.6029  0.3672  2.2111
 1923SOL    HW2 6454   6.047   0.246   2.505 -2.1953 -0.6929 -2.6879
 1924SOL     OW 6455   3.822   2.567   5.181 -0.1874  0.2391  0.5378
 1924SOL    HW1 6456   3.790   2.630   5.116 -0.8491  0.2656  0.8885
 1924SOL    HW2 6457   3.850   2.492   5.129 -0.2825  0.4417  0.1882
 1925SOL     OW 6458   3.963   5.883   5.059 -0.1294  0.1486 -0.0327
 1925SOL    HW1 6459   3.901   5.812   5.043 -0.9901  1.0322 -0.7600
 1925SOL    HW2 6460   4.003   5.863   5.143 -0.5677 -1.0400 -0.0992
 1926SOL     OW 6461   1.053   0.490   4.950 -0.4239  0.2063 -0.6936
 1926SOL    HW1 6462   1.072   0.549   4.877 -2.0936 -0.1125 -1.4227
 1926SOL    HW2 6463   1.136   0.482   4.997  0.0016  2.6650 -0.8990
 1927SOL     OW 6464   3.719   0.743   2.106 -0.2535  0.0932  0.2475
 1927SOL    HW1 6465   3.725   0.711   2.197  1.8998 -0.1482  0.0893
 1927SOL    HW2 6466   3.768   0.825   2.106  1.0818 -0.6562 -0.9685
 1928SOL     OW 6467   0.800   1.207   1.805 -0.9905 -0.3393  0.2159
 1928SOL    HW1 6468   0.781   1.146   1.733  0.7242  0.0797 -0.6456
 1928SOL    HW2 6469   0.885   1.178   1.839 -0.9017  0.6119  0.8350
 1929SOL     OW 6470   1.259   5.178   1.745 -0.0956  0.0586  0.0113
 1929SOL    HW1 6471   1.193   5.247   1.734 -1.6892 -1.5260 -0.9008
 1929SOL    HW2 6472   1.237   5.137   1.829  0.2397  0.0314  0.0881
 1930SOL     OW 6473   5.845   2.649   0.989 -0.3870 -0.3076 -0.9471
 1930SOL    HW1 6474   5.866   2.742   0.995  0.8187 -0.6269  3.2743
 1930SOL    HW2 6475   5.923   2.609   0.949  1.2831  0.1052  1.6379
 1931SOL     OW 6476   1.686   0.027   0.861 -0.0821 -0.2394 -0.3942
 1931SOL    HW1 6477   1.635   0.080   0.800 -0.2084  1.5784  1.1924
 1931SOL    HW2 6478   1.690   0.080   0.941 -0.0598 -2.5628  1.2542
 1932SOL     OW 6479   4.585   2.458   0.844  0.4307 -0.3135  0.0074
 1932SOL    HW1 6480   4.517   2.402   0.806  0.6915 -0.7060  0.1152
 1932SOL    HW2 6481   4.541   2.502   0.917 -0.2112  0.8277 -1.0427
 1933SOL     OW 6482   6.490   5.767   4.242  0.3266  0.3363 -0.5251
 1933SOL    HW1 6483   6.526   5.786   4.156 -2.7340  0.6597 -1.8848
 1933SOL    HW2 6484   6.501   5.673   4.253  0.8553  0.3115 -1.1966
 1934SOL     OW 6485   1.926   4.122   3.538 -0.4458  0.0364 -0.4801
 1934SOL    HW1 6486   1.942   4.038   3.495 -0.3589  0.0445 -0.4628
 1934SOL    HW2 6487   1.833   4.139   3.524 -0.4336  0.0020 -0.5987
 1935SOL     OW 6488   0.444   3.607   2.067  0.2642  0.6322  0.2342
 1935SOL    HW1 6489   0.392   3.532   2.097  0.9188  0.5125  1.0901
 1935SOL    HW2 6490   0.503   3.570   2.001  0.0687  0.5481  0.1031
 1936SOL     OW 6491   6.032   2.009   2.481 -0.5314  0.0143  0.4235
 1936SOL    HW1 6492   5.971   1.944   2.516 -3.7070  2.0030 -1.0383
 1936SOL    HW2 6493   6.017   2.088   2.532  1.6368  0.3445  0.6754
 1937SOL     OW 6494   2.666   2.422   2.732 -0.2212 -0.0937  0.2755
 1937SOL    HW1 6495   2.689   2.515   2.726 -0.5758  0.0680  1.2473
 1937SOL    HW2 6496   2.666   2.403   2.826  0.0151 -1.1247  0.0846
 1938SOL     OW 6497   2.988   2.297   1.780  0.4118  0.2468  0.3461
 1938SOL    HW1 6498   2.941   2.222   1.817 -2.2279  1.9531  0.7559
 1938SOL    HW2 6499   2.954   2.373   1.828  0.4873  2.0463 -2.1995
 1939SOL     OW 6500   0.131   4.805   1.562  0.4802  0.1463 -0.2122
 1939SOL    HW1 6501   0.064   4.825   1.497 -0.0888  0.3413  0.4206
 1939SOL    HW2 6502   0.184   4.736   1.522 -1.0024 -1.0829 -0.1390
 1940SOL     OW 6503   1.806   4.955   6.508 -0.6029  0.4287 -0.3149
 1940SOL    HW1 6504   1.732   4.998   6.464 -1.0780  0.1387  0.1936
 1940SOL    HW2 6505   1.769   4.875   6.544 -0.1427  0.4906  0.3113
 1941SOL     OW 6506   5.247   0.558   2.138  0.5524 -0.1426 -0.4876
 1941SOL    HW1 6507   5.153   0.561   2.120  0.4371 -1.1647 -0.1730
 1941SOL    HW2 6508   5.289   0.578   2.055  0.0538 -0.2062 -0.7569
 1942SOL     OW 6509   6.744   5.980   0.140 -0.1388  0.2162 -0.2061
 1942SOL    HW1 6510   6.790   6.062   0.121 -1.5908  1.0881 -0.0895
 1942SOL    HW2 6511   6.706   5.994   0.226  0.3394 -0.9472  0.2098
 1943SOL     OW 6512   5.060   5.289   4.003 -0.5362 -0.3491 -0.1358
 1943SOL    HW1 6513   5.116   5.285   4.081  0.0354  0.8425 -0.4590
 1943SOL    HW2 6514   5.118   5.318   3.933 -1.7115  1.9470 -0.2756
 1944SOL     OW 6515   3.561   6.098   5.339 -0.0936  0.0150 -0.2952
 1944SOL    HW1 6516   3.488   6.145   5.380 -1.5652 -1.7810 -0.7045
 1944SOL    HW2 6517   3.543   6.006   5.358  2.0698 -0.4970 -0.4702
 1945SOL     OW 6518   6.847   3.859   5.068  0.1519 -0.1747  0.2107
 1945SOL    HW1 6519   6.832   3.792   5.002  0.4752 -0.1522  0.1168
 1945SOL    HW2 6520   6.814   3.819   5.149 -1.7129  0.3848 -0.2161
 1946SOL     OW 6521   5.482   0.857   4.292 -0.3231 -0.7833 -0.1890
 1946SOL    HW1 6522   5.481   0.885   4.200 -0.6805 -0.0786  0.0205
 1946SOL    HW2 6523   5.529   0.774   4.291  1.3410  0.1023 -0.7664
 1947SOL     OW 6524   1.379   2.627   4.665  0.2891  0.2035  0.2006
 1947SOL    HW1 6525   1.310   2.691   4.687  2.0829  1.9265  1.1722
 1947SOL    HW2 6526   1.383   2.569   4.741  0.4090  0.5822  0.4872
 1948SOL     OW 6527   6.103   3.915   3.927  0.3660 -0.0715 -0.1931
 1948SOL    HW1 6528   6.022   3.965   3.921  0.8015  0.5773 -0.6734
 1948SOL    HW2 6529   6.077   3.832   3.967 -0.3218  0.6267  0.8539
 1949SOL     OW 6530   2.927   1.685   5.667  0.3438  0.6156  0.2493
 1949SOL    HW1 6531   2.877   1.756   5.627  0.0055 -0.2241 -0.8669
 1949SOL    HW2 6532   3.007   1.679   5.615  0.2527  0.0180  0.1625
 1950SOL     OW 6533   0.746   1.610   0.497 -0.0415 -0.4242  0.1559
 1950SOL    HW1 6534   0.722   1.674   0.431 -2.0118 -0.8912  0.3568
 1950SOL    HW2 6535   0.663   1.570   0.523  1.1308 -3.7459 -0.6632
 1951SOL     OW 6536   4.796   2.984   2.529 -0.2010  0.0881  0.3489
 1951SOL    HW1 6537   4.780   2.988   2.624 -1.5784  1.1911  0.1068
 1951SOL    HW2 6538   4.708   2.983   2.490  0.3421  0.6505 -0.9393
 1952SOL     OW 6539   2.424   4.186   5.515  0.0931  0.4055  0.0500
 1952SOL    HW1 6540   2.464   4.264   5.554  1.9845  0.1821 -1.3006
 1952SOL    HW2 6541   2.420   4.122   5.586 -0.2403  1.2708  0.8348
 1953SOL     OW 6542   0.719   6.446   5.338  0.8053 -0.0592 -0.1697
 1953SOL    HW1 6543   0.630   6.477   5.350  0.8041 -0.1322  0.0194
 1953SOL    HW2 6544   0.724   6.422   5.246  0.4640 -0.5669 -0.0627
 1954SOL     OW 6545   1.249   1.380   4.517  0.2809  0.1785 -0.0042
 1954SOL    HW1 6546   1.269   1.447   4.451  0.9020  0.3440  0.3474
 1954SOL    HW2 6547   1.156   1.360   4.503  0.7912 -1.0038 -2.0604
 1955SOL     OW 6548   6.685   6.602   5.267 -0.2167  0.2918  0.1620
 1955SOL    HW1 6549   6.702   6.684   5.314 -1.2023  0.0180  1.0460
 1955SOL    HW2 6550   6.741   6.538   5.310 -1.1290  0.0381  0.9903
 1956SOL     OW 6551   3.207   6.550   2.056 -0.1477 -0.4857 -0.2806
 1956SOL    HW1 6552   3.176   6.612   2.121 -0.0866 -0.2931 -0.4340
 1956SOL    HW2 6553   3.244   6.604   1.986 -0.8906 -0.6629 -0.8249
 1957SOL     OW 6554   0.953   3.317   2.890  0.2452  0.5530  0.0427
 1957SOL    HW1 6555   0.975   3.388   2.829 -0.6823  0.1071 -0.8506
 1957SOL    HW2 6556   0.910   3.251   2.835  3.3699 -1.9159  0.3073
 1958SOL     OW 6557   0.739   4.633   3.912 -0.3024 -0.9075 -0.0524
 1958SOL    HW1 6558   0.832   4.612   3.913 -0.2297 -0.7657 -1.5462
 1958SOL    HW2 6559   0.723   4.676   3.996  1.3278  0.4485 -0.3795
 1959SOL     OW 6560   2.302   2.016   3.325 -0.2719  0.2402  0.0063
 1959SOL    HW1 6561   2.326   1.925   3.342  0.5222  0.0992 -1.7126
 1959SOL    HW2 6562   2.253   2.043   3.403 -0.7671 -1.7359  0.4213
 1960SOL     OW 6563   2.401   4.496   5.431  0.7632 -0.2703  0.1787
 1960SOL    HW1 6564   2.418   4.411   5.392  0.0616 -0.8260  1.0301
 1960SOL    HW2 6565   2.334   4.535   5.376  2.8123  0.8316 -1.6753
 1961SOL     OW 6566   3.147   0.088   3.068 -0.3225  0.0502  0.2806
 1961SOL    HW1 6567   3.160   0.107   2.975 -0.2385 -1.0999  0.0463
 1961SOL    HW2 6568   3.190   0.161   3.113  0.9780 -0.1455 -0.5717
 1962SOL     OW 6569   6.149   0.510   0.346 -0.3579  0.6263  0.3400
 1962SOL    HW1 6570   6.137   0.457   0.268 -1.1744 -0.0685  0.9206
 1962SOL    HW2 6571   6.087   0.582   0.336 -0.6398  0.4018  0.4591
 1963SOL     OW 6572   2.124   0.789   1.583  0.6249 -0.0223 -0.3039
 1963SOL    HW1 6573   2.043   0.740   1.595  0.8115  0.0866  1.5847
 1963SOL    HW2 6574   2.101   0.856   1.518 -0.5526 -0.4968 -0.4152
 1964SOL     OW 6575   2.154   0.058   5.234 -0.4736  0.2635  0.1597
 1964SOL    HW1 6576   2.214   0.065   5.159 -1.0265 -2.8018 -0.6994
 1964SOL    HW2 6577   2.150   0.147   5.269  1.6043  1.3551 -2.0387
 1965SOL     OW 6578   5.078   5.074   5.368  0.0045 -0.5125 -0.1632
 1965SOL    HW1 6579   5.059   5.166   5.381 -0.9095 -0.5083 -1.3016
 1965SOL    HW2 6580   4.998   5.038   5.329  0.2163 -1.8600  0.5804
 1966SOL     OW 6581   5.961   0.611   2.523 -0.1292  0.0495 -0.1401
 1966SOL    HW1 6582   5.951   0.521   2.554  1.2571 -0.3428 -0.7416
 1966SOL    HW2 6583   5.962   0.664   2.603  1.0851 -0.6992  0.3775
 1967SOL     OW 6584   6.184   2.539   3.682 -0.2413  0.8344  0.1500
 1967SOL    HW1 6585   6.232   2.467   3.723  0.5151  1.5376  0.5291
 1967SOL    HW2 6586   6.128   2.497   3.616  0.5193 -0.0466  0.0565
 1968SOL     OW 6587   4.943   2.567   2.152 -0.0011  0.6661 -0.1076
 1968SOL    HW1 6588   4.855   2.533   2.137 -0.2492  1.7800 -1.4598
 1968SOL    HW2 6589   4.979   2.513   2.222 -0.8718 -1.3984 -1.1647
 1969SOL     OW 6590   2.188   4.542   1.414 -0.6527  0.0929  0.1174
 1969SOL    HW1 6591   2.098   4.534   1.383 -0.5525 -0.4231 -0.0483
 1969SOL    HW2 6592   2.197   4.635   1.436 -1.1023  0.2310 -0.2441
 1970SOL     OW 6593   1.207   5.584   5.895 -0.1365 -0.0932  0.5762
 1970SOL    HW1 6594   1.200   5.627   5.809 -1.1756  0.2190  0.8037
 1970SOL    HW2 6595   1.117   5.580   5.927  0.0582 -1.5253  1.0209
 1971SOL     OW 6596   0.911   3.592   0.345 -0.3845 -0.1840  1.0420
 1971SOL    HW1 6597   0.984   3.531   0.353  0.1113  0.1268 -0.7296
 1971SOL    HW2 6598   0.834   3.540   0.367 -0.2069 -2.0403 -2.1112
 1972SOL     OW 6599   1.904   1.927   2.837 -0.2577 -0.3112 -0.9182
 1972SOL    HW1 6600   1.961   1.942   2.913 -0.8900 -1.0182 -0.2805
 1972SOL    HW2 6601   1.850   2.006   2.832 -0.5378 -0.4586 -0.3316
 1973SOL     OW 6602   3.293   0.166   5.933  0.4986 -0.3876 -0.0771
 1973SOL    HW1 6603   3.231   0.095   5.917 -0.8309  0.9539 -1.1728
 1973SOL    HW2 6604   3.378   0.130   5.907 -0.3391 -1.1485 -1.8778
 1974SOL     OW 6605   6.715   2.339   3.191  0.1842  0.4173  0.0219
 1974SOL    HW1 6606   6.807   2.354   3.171  0.2360 -1.6065 -1.5135
 1974SOL    HW2 6607   6.716   2.297   3.277  0.3160  4.1156  2.0543
 1975SOL     OW 6608   3.857   5.347   3.913 -0.3968 -0.0187 -0.9570
 1975SOL    HW1 6609   3.765   5.321   3.906 -0.3937  0.0547 -1.3005
 1975SOL    HW2 6610   3.869   5.411   3.843  0.3454 -1.2737 -2.0230
 1976SOL     OW 6611   2.553   6.591   6.270  0.5385 -0.8575  0.4512
 1976SOL    HW1 6612   2.631   6.580   6.216  0.4160 -1.2344  0.3469
 1976SOL    HW2 6613   2.498   6.652   6.221  1.0637 -0.0460  0.8542
 1977SOL     OW 6614   5.619   5.221   1.094  0.3994  0.3195 -0.1098
 1977SOL    HW1 6615   5.661   5.267   1.166  0.6579  0.2398 -0.2084
 1977SOL    HW2 6616   5.673   5.144   1.079  1.4673  1.3209 -1.6460
 1978SOL     OW 6617   5.720   2.595   4.341 -0.2759  0.3538 -0.1900
 1978SOL    HW1 6618   5.638   2.595   4.390 -0.4327  1.2591 -0.4352
 1978SOL    HW2 6619   5.736   2.502   4.322 -1.9214  0.2294 -1.2575
 1979SOL     OW 6620   5.382   0.845   1.062 -0.0717 -0.7221 -0.6787
 1979SOL    HW1 6621   5.290   0.872   1.070  0.6204  1.8866 -0.4837
 1979SOL    HW2 6622   5.381   0.750   1.075 -2.7942 -0.8557 -1.3098
 1980SOL     OW 6623   1.217   4.205   5.055  0.4910  0.1169 -0.2343
 1980SOL    HW1 6624   1.169   4.279   5.019  1.4200 -0.4157 -2.8194
 1980SOL    HW2 6625   1.213   4.217   5.150 -3.8609  0.5820 -0.2648
 1981SOL     OW 6626   2.632   2.931   2.427  0.5871  0.3354 -0.3255
 1981SOL    HW1 6627   2.686   2.852   2.429  0.2534  0.1199  0.5338
 1981SOL    HW2 6628   2.687   2.998   2.468 -0.1423 -0.1301  1.5166
 1982SOL     OW 6629   5.660   3.571   5.498 -1.5296  0.4787  0.4107
 1982SOL    HW1 6630   5.649   3.657   5.537 -1.9165 -0.0051  1.4222
 1982SOL    HW2 6631   5.570   3.538   5.489 -1.3542 -0.1168  0.7654
 1983SOL     OW 6632   2.389   6.114   2.654 -0.4582 -0.0434 -0.2285
 1983SOL    HW1 6633   2.322   6.150   2.712 -0.0862  0.1229  0.0962
 1983SOL    HW2 6634   2.353   6.126   2.566  0.0025  1.8790 -0.1986
 1984SOL     OW 6635   6.455   0.256   6.339  0.0697  0.4045 -0.2707
 1984SOL    HW1 6636   6.362   0.249   6.317  0.0154  0.1449  0.0449
 1984SOL    HW2 6637   6.465   0.203   6.418  0.6641 -0.3023 -0.8123
 1985SOL     OW 6638   4.386   0.625   3.595 -0.5209 -0.0715  0.2533
 1985SOL    HW1 6639   4.335   0.562   3.645 -0.2627 -0.9917 -0.5911
 1985SOL    HW2 6640   4.474   0.588   3.593 -0.6290 -0.3207 -1.2527
 1986SOL     OW 6641   4.871   6.510   1.542 -0.3043 -0.1837  0.1258
 1986SOL    HW1 6642   4.849   6.483   1.453  1.5767 -0.9962 -0.1472
 1986SOL    HW2 6643   4.933   6.582   1.530 -1.4539  0.9632  0.8286
 1987SOL     OW 6644   5.182   2.401   2.018  0.3511 -0.1123  0.2605
 1987SOL    HW1 6645   5.116   2.465   1.990  1.3712  0.7189 -0.3444
 1987SOL    HW2 6646   5.258   2.420   1.963  1.6310 -0.0121  1.9727
 1988SOL     OW 6647   1.285   2.256   5.902  0.4541 -0.0035  0.3372
 1988SOL    HW1 6648   1.203   2.218   5.871 -0.6753  2.2708  0.3227
 1988SOL    HW2 6649   1.315   2.311   5.829  2.0777 -0.8711  0.3035
 1989SOL     OW 6650   1.274   2.774   3.132  0.0006  0.0737  0.1781
 1989SOL    HW1 6651   1.309   2.727   3.207  0.4927  2.0479  1.2448
 1989SOL    HW2 6652   1.259   2.863   3.164  0.5714  1.0846 -2.1523
 1990SOL     OW 6653   2.645   5.495   4.043 -0.0327 -0.3324  0.0571
 1990SOL    HW1 6654   2.726   5.481   4.092  0.4371 -2.1057 -1.0931
 1990SOL    HW2 6655   2.672   5.490   3.951 -1.4402 -1.0612 -0.3481
 1991SOL     OW 6656   2.527   3.417   2.667 -0.3548  0.8416 -0.0312
 1991SOL    HW1 6657   2.458   3.360   2.699 -3.0145  1.2990 -4.1173
 1991SOL    HW2 6658   2.516   3.498   2.717 -1.2149  0.1270  0.9827
 1992SOL     OW 6659   5.586   5.923   6.124 -0.3432 -0.1472 -0.2731
 1992SOL    HW1 6660   5.620   5.905   6.036  2.1175 -1.3180  0.8251
 1992SOL    HW2 6661   5.570   5.836   6.161 -2.7716  0.3369  0.0091
 1993SOL     OW 6662   1.516   5.107   0.783 -0.3524  0.3842  0.0161
 1993SOL    HW1 6663   1.493   5.186   0.832 -1.7159 -0.3317  0.5973
 1993SOL    HW2 6664   1.442   5.048   0.799  0.9279 -1.2386  0.0967
 1994SOL     OW 6665   2.237   2.755   1.695  0.4233 -0.6266  0.3222
 1994SOL    HW1 6666   2.245   2.682   1.632 -0.5812 -0.4750 -0.0091
 1994SOL    HW2 6667   2.281   2.724   1.773  1.8674 -0.7536 -0.5051
 1995SOL     OW 6668   3.048   2.777   3.554  0.2681  0.4883 -0.5434
 1995SOL    HW1 6669   2.986   2.805   3.486  0.5656  1.1759 -0.5318
 1995SOL    HW2 6670   3.132   2.768   3.508  0.3843  0.5567 -0.3454
 1996SOL     OW 6671   6.046   0.018   6.363 -0.1833 -0.1262 -0.4378
 1996SOL    HW1 6672   5.988   0.013   6.288  2.0895 -2.6404 -2.2161
 1996SOL    HW2 6673   6.118  -0.042   6.342  2.9978  2.5893  1.6353
 1997SOL     OW 6674   6.483   4.060   6.736  0.1946  0.0188  0.0552
 1997SOL    HW1 6675   6.522   4.050   6.823  1.9386  0.5473 -0.6194
 1997SOL    HW2 6676   6.455   3.971   6.713 -0.2967 -0.1261  1.1482
 1998SOL     OW 6677   2.276   6.838   4.989 -0.2083  0.0405 -0.0822
 1998SOL    HW1 6678   2.196   6.788   5.002  1.7003 -3.0394  0.9115
 1998SOL    HW2 6679   2.272   6.866   4.897 -3.1954  1.7459  0.4237
 1999SOL     OW 6680   2.788   1.473   2.108  0.3976 -0.2668  0.1199
 1999SOL    HW1 6681   2.822   1.529   2.038  0.1411 -0.7273 -0.3888
 1999SOL    HW2 6682   2.847   1.486   2.182  0.0719  1.0292  0.1715
 2000SOL     OW 6683   4.449   1.529   3.834  0.6402 -0.2519 -0.0963
 2000SOL    HW1 6684   4.374   1.514   3.778  1.2834 -0.7541 -0.8474
 2000SOL    HW2 6685   4.507   1.455   3.818  2.4111  1.3076 -1.4022
 2001SOL     OW 6686   5.745   4.945   0.874  0.0866  0.4657  0.1802
 2001SOL    HW1 6687   5.690   4.879   0.916 -0.1815  0.6461  0.1140
 2001SOL    HW2 6688   5.795   4.983   0.947  1.3706 -0.8644  0.0172
 2002SOL     OW 6689   3.691   3.131   0.671 -0.2030 -0.1356  0.1687
 2002SOL    HW1 6690   3.771   3.117   0.722  0.0019  1.7632  0.4388
 2002SOL    HW2 6691   3.710   3.089   0.587  1.0838  0.2528  0.2344
 2003SOL     OW 6692   5.496   2.619   0.206 -0.1633 -0.2036 -1.1246
 2003SOL    HW1 6693   5.416   2.594   0.252 -1.7180  1.0041 -2.9546
 2003SOL    HW2 6694   5.567   2.576   0.253 -1.7102  0.0213  1.5973
 2004SOL     OW 6695   0.493   6.065   6.521 -0.1511 -0.1275  0.4727
 2004SOL    HW1 6696   0.484   6.096   6.431 -0.5826  1.4712  1.0338
 2004SOL    HW2 6697   0.582   6.090   6.546  0.3881 -1.6075  0.1446
 2005SOL     OW 6698   5.817   1.637   4.574  0.0919 -0.1253 -0.3632
 2005SOL    HW1 6699   5.722   1.638   4.585 -0.1155 -2.2767 -1.3555
 2005SOL    HW2 6700   5.831   1.655   4.481  0.6772  0.3384 -0.1922
 2006SOL     OW 6701   2.076   6.111   4.012 -0.2768 -0.3050  0.5483
 2006SOL    HW1 6702   2.006   6.047   4.004 -0.1141 -0.5782  1.2142
 2006SOL    HW2 6703   2.110   6.121   3.923 -1.9465  0.7472 -0.0167
 2007SOL     OW 6704   5.188   1.803   1.263 -0.5056 -0.6650 -0.1457
 2007SOL    HW1 6705   5.184   1.708   1.269  0.3640 -0.7491 -0.7946
 2007SOL    HW2 6706   5.207   1.821   1.171  0.4581  0.0992  0.1885
 2008SOL     OW 6707   0.825   6.822   6.484 -0.6890 -0.1489 -0.4294
 2008SOL    HW1 6708   0.744   6.874   6.481  0.6303  2.1574  0.8491
 2008SOL    HW2 6709   0.858   6.823   6.395 -0.5970  1.4525 -0.4002
 2009SOL     OW 6710   2.308   3.255   1.998 -0.3182  0.7280 -0.4089
 2009SOL    HW1 6711   2.313   3.310   2.076  0.0320  0.6938 -0.4053
 2009SOL    HW2 6712   2.383   3.283   1.944 -1.1869  1.5340 -1.2435
 2010SOL     OW 6713   6.507   6.694   0.053  0.3387  0.1121 -0.5307
 2010SOL    HW1 6714   6.461   6.618   0.017  1.1656 -0.2938 -0.7347
 2010SOL    HW2 6715   6.554   6.660   0.129 -2.4549  1.1853  1.9188
 2011SOL     OW 6716   5.221   4.730   0.981 -0.4461 -0.7673  0.1829
 2011SOL    HW1 6717   5.184   4.680   0.908  1.7580 -0.0238 -1.5285
 2011SOL    HW2 6718   5.267   4.664   1.033 -1.2289 -1.1596  0.3954
 2012SOL     OW 6719   4.514   6.571   5.279 -0.0421  0.0181  0.2479
 2012SOL    HW1 6720   4.525   6.596   5.371  3.5408  1.7045 -0.4598
 2012SOL    HW2 6721   4.542   6.480   5.275 -0.6917 -0.2207  0.8599
 2013SOL     OW 6722   3.196   0.185   5.478 -0.2890 -0.3949  0.2691
 2013SOL    HW1 6723   3.189   0.279   5.457 -1.9977 -0.3420  0.9092
 2013SOL    HW2 6724   3.171   0.141   5.397 -3.5124 -0.2125  1.0292
 2014SOL     OW 6725   0.795   4.883   5.492  0.2949 -0.2607 -0.2958
 2014SOL    HW1 6726   0.749   4.810   5.449 -0.0787 -0.5186  0.5160
 2014SOL    HW2 6727   0.725   4.937   5.528  0.5695  0.5958 -1.0234
 2015SOL     OW 6728   5.387   5.373   1.064  0.8354  0.0530  0.1827
 2015SOL    HW1 6729   5.477   5.344   1.046  0.3609 -1.9534  0.8072
 2015SOL    HW2 6730   5.389   5.400   1.156  0.7182 -0.3437  0.3024
 2016SOL     OW 6731   6.521   0.312   4.134  0.2255  0.1524 -0.7055
 2016SOL    HW1 6732   6.535   0.292   4.042 -0.7482 -1.4676 -0.5357
 2016SOL    HW2 6733   6.428   0.334   4.141  0.2746  0.1983 -0.0902
 2017SOL     OW 6734   5.430   5.211   5.357  0.1045  0.2957 -0.1393
 2017SOL    HW1 6735   5.503   5.248   5.408 -1.0216  0.6789  1.2588
 2017SOL    HW2 6736   5.361   5.276   5.363 -0.3090  0.0290 -1.6264
 2018SOL     OW 6737   1.255   5.851   6.752 -0.1050 -0.4330 -0.2325
 2018SOL    HW1 6738   1.178   5.827   6.803 -0.2485 -0.5772 -0.5167
 2018SOL    HW2 6739   1.259   5.946   6.757 -0.4067 -0.4135 -0.3729
 2019SOL     OW 6740   2.580   4.348   4.266  0.4720 -0.0456 -0.1598
 2019SOL    HW1 6741   2.552   4.395   4.345  0.7345  0.7905 -0.5433
 2019SOL    HW2 6742   2.499   4.311   4.231  0.0444  1.1079 -0.4602
 2020SOL     OW 6743   0.595   3.034   2.774 -0.3393  0.4632 -0.0596
 2020SOL    HW1 6744   0.662   3.095   2.746  1.3193 -1.2771 -0.0648
 2020SOL    HW2 6745   0.572   3.061   2.863  0.8035  0.7350  0.1589
 2021SOL     OW 6746   0.177   0.084   2.488  0.1199  0.0506 -0.3387
 2021SOL    HW1 6747   0.157   0.020   2.419 -0.3486 -0.5794  0.3602
 2021SOL    HW2 6748   0.104   0.076   2.549  1.0952 -0.2448  0.8220
 2022SOL     OW 6749   4.802   0.724   3.800 -0.0055  0.3082 -0.0939
 2022SOL    HW1 6750   4.776   0.779   3.874 -0.2280  1.0554 -0.7165
 2022SOL    HW2 6751   4.866   0.662   3.836 -2.1784 -1.2255  1.3771
 2023SOL     OW 6752   2.190   3.982   3.744 -0.0963  0.3247  0.5809
 2023SOL    HW1 6753   2.217   4.031   3.666 -0.4402  1.1665  0.9778
 2023SOL    HW2 6754   2.151   3.902   3.710 -0.6223  0.8732 -0.1368
 2024SOL     OW 6755   2.608   0.356   5.075  0.5936  0.1018  0.2800
 2024SOL    HW1 6756   2.554   0.346   4.997  1.1359  1.4435 -0.3056
 2024SOL    HW2 6757   2.557   0.414   5.131  0.7980  0.2214  0.3417
 2025SOL     OW 6758   5.732   0.510   3.389 -0.1645 -0.1151  0.1891
 2025SOL    HW1 6759   5.703   0.459   3.314  0.4531 -1.0998  0.5799
 2025SOL    HW2 6760   5.709   0.600   3.369 -1.3039 -0.5542 -0.5324
 2026SOL     OW 6761   1.333   6.279   2.860  0.0784 -0.2056  0.1437
 2026SOL    HW1 6762   1.258   6.262   2.803 -0.0137  1.6758 -0.3725
 2026SOL    HW2 6763   1.372   6.193   2.875 -2.1286 -1.2271  0.3848
 2027SOL     OW 6764   6.265   4.238   1.991 -0.3201 -0.0223 -0.1297
 2027SOL    HW1 6765   6.290   4.319   2.037  0.4019 -0.8037  0.8992
 2027SOL    HW2 6766   6.323   4.234   1.915  0.8905 -0.4616  0.7897
 2028SOL     OW 6767   6.251   0.533   1.568 -0.0141  0.3829 -0.0113
 2028SOL    HW1 6768   6.182   0.487   1.615  1.1732 -0.1932  1.2340
 2028SOL    HW2 6769   6.298   0.464   1.521  0.4137  0.6197  0.0662
 2029SOL     OW 6770   0.080   1.055   0.925 -0.2333 -0.2769  0.0285
 2029SOL    HW1 6771   0.089   1.150   0.930  0.8881 -0.3208 -0.6958
 2029SOL    HW2 6772   0.058   1.028   1.014  2.1743  0.4300  0.9154
 2030SOL     OW 6773   1.838   6.268   4.320 -0.1207 -0.3955  0.3046
 2030SOL    HW1 6774   1.835   6.176   4.292 -0.7396 -0.3285  0.1356
 2030SOL    HW2 6775   1.908   6.306   4.269  0.2654 -0.8214  0.5091
 2031SOL     OW 6776   1.428   2.550   1.026 -0.1134  0.8375  0.0403
 2031SOL    HW1 6777   1.453   2.489   0.957  0.5912 -1.1609  1.9459
 2031SOL    HW2 6778   1.354   2.599   0.990  0.4018  0.0567 -2.1932
 2032SOL     OW 6779   1.356   4.036   0.609  0.2450 -0.0372 -0.5307
 2032SOL    HW1 6780   1.334   4.126   0.585  0.8106  0.7150  1.5829
 2032SOL    HW2 6781   1.336   4.030   0.702 -0.2440 -2.2722 -0.7146
 2033SOL     OW 6782   0.220   3.299   1.308 -0.1976 -0.5881  0.1341
 2033SOL    HW1 6783   0.307   3.302   1.267 -0.2693  0.6835  0.0196
 2033SOL    HW2 6784   0.180   3.220   1.273  0.2266 -0.2062 -1.3017
 2034SOL     OW 6785   3.775   2.072   1.738 -0.5006  0.0071 -0.1999
 2034SOL    HW1 6786   3.867   2.079   1.764 -0.1064 -0.5813 -1.3669
 2034SOL    HW2 6787   3.744   2.162   1.733  0.2477  0.2517 -0.5959
 2035SOL     OW 6788   5.254   2.551   0.953  0.4163 -0.3076  0.1637
 2035SOL    HW1 6789   5.309   2.629   0.959 -1.1922  1.0039 -1.5170
 2035SOL    HW2 6790   5.168   2.579   0.983 -0.0446 -1.6121  0.1311
 2036SOL     OW 6791   5.662   5.890   4.266 -0.2467 -0.0096  0.3939
 2036SOL    HW1 6792   5.577   5.905   4.309 -0.2444  0.0070  0.3926
 2036SOL    HW2 6793   5.672   5.964   4.206 -0.5459 -0.3660 -0.1052
 2037SOL     OW 6794   1.943   6.443   6.506 -0.0541 -0.5370  0.5142
 2037SOL    HW1 6795   1.942   6.392   6.587  1.5486  0.8760  1.4781
 2037SOL    HW2 6796   1.878   6.511   6.519  0.2232 -0.2931  0.6363
 2038SOL     OW 6797   0.983   4.090   5.812 -0.2782 -0.1005 -0.3184
 2038SOL    HW1 6798   0.948   4.011   5.771  1.5527 -1.4653  0.6034
 2038SOL    HW2 6799   0.969   4.076   5.906  1.1988  0.0494 -0.0470
 2039SOL     OW 6800   4.312   4.088   3.181 -1.0686  0.1602 -0.3803
 2039SOL    HW1 6801   4.235   4.141   3.160 -2.3892 -1.2826  0.6312
 2039SOL    HW2 6802   4.316   4.088   3.277 -0.2465 -0.4071 -0.4008
 2040SOL     OW 6803   3.519   5.313   5.962 -0.0381 -0.1539 -0.2261
 2040SOL    HW1 6804   3.492   5.318   5.870 -0.6931  0.4465 -0.0065
 2040SOL    HW2 6805   3.576   5.390   5.974 -1.4165  0.8075  0.3341
 2041SOL     OW 6806   2.077   4.353   5.732 -0.0656 -0.5984  0.1673
 2041SOL    HW1 6807   2.157   4.371   5.782 -0.1269 -2.1037  0.8648
 2041SOL    HW2 6808   2.106   4.300   5.659  0.2612  2.7810 -2.4012
 2042SOL     OW 6809   3.262   5.468   5.461  0.1562 -0.5506 -0.4569
 2042SOL    HW1 6810   3.319   5.524   5.514  1.0146 -1.2583 -0.6252
 2042SOL    HW2 6811   3.182   5.459   5.513  0.7788 -0.7848  0.4678
 2043SOL     OW 6812   2.152   5.705   0.285  0.0327 -0.1461  0.3212
 2043SOL    HW1 6813   2.141   5.634   0.222  0.1296 -1.8433  2.1337
 2043SOL    HW2 6814   2.063   5.739   0.298 -0.1400 -0.4873  0.0609
 2044SOL     OW 6815   3.717   2.564   4.853 -0.3380  0.5396 -0.1054
 2044SOL    HW1 6816   3.719   2.631   4.785 -0.6679 -0.4271 -1.0885
 2044SOL    HW2 6817   3.806   2.529   4.856 -0.2595  0.7579  0.1453
 2045SOL     OW 6818   4.790   2.970   6.085 -0.2511  0.4415  0.1034
 2045SOL    HW1 6819   4.719   2.920   6.125  1.0761 -1.5338  0.1441
 2045SOL    HW2 6820   4.866   2.951   6.140  0.9305  0.1270 -1.5733
 2046SOL     OW 6821   4.004   4.115   2.329  0.5910  0.0886  0.0099
 2046SOL    HW1 6822   4.042   4.090   2.414  1.0773  0.6158 -0.0420
 2046SOL    HW2 6823   4.002   4.034   2.279  1.1878 -0.0471  0.1975
 2047SOL     OW 6824   1.823   0.874   3.903  0.0892  0.4330 -0.3081
 2047SOL    HW1 6825   1.911   0.902   3.877 -0.4499  1.2370 -1.3318
 2047SOL    HW2 6826   1.783   0.840   3.822 -0.8506  0.9133 -0.0619
 2048SOL     OW 6827   6.120   6.642   3.481 -0.6440  0.1507  0.6054
 2048SOL    HW1 6828   6.215   6.648   3.495 -0.5862  0.0890  0.2650
 2048SOL    HW2 6829   6.095   6.559   3.522 -0.5156  0.0758  0.5347
 2049SOL     OW 6830   6.734   1.915   2.042  0.2634 -0.3522 -0.1266
 2049SOL    HW1 6831   6.757   1.822   2.033  0.0696 -0.4583  0.4449
 2049SOL    HW2 6832   6.811   1.961   2.008 -0.1617 -0.7113 -1.6598
 2050SOL     OW 6833   0.928   0.422   0.572 -0.3227  0.4036 -0.5124
 2050SOL    HW1 6834   0.836   0.446   0.558 -0.7689  0.5848  2.1636
 2050SOL    HW2 6835   0.930   0.328   0.559 -0.9142  0.3900 -0.5457
 2051SOL     OW 6836   5.320   1.620   2.857  0.0183 -0.0583  0.1619
 2051SOL    HW1 6837   5.248   1.640   2.797 -0.5439 -0.6991  0.6046
 2051SOL    HW2 6838   5.340   1.528   2.842  2.0027  0.5390 -1.2459
 2052SOL     OW 6839   1.254   5.958   3.726 -0.0711 -0.1917  0.0303
 2052SOL    HW1 6840   1.287   5.910   3.801  1.3762 -0.0058 -0.4542
 2052SOL    HW2 6841   1.240   5.892   3.659  0.2326 -0.1678 -0.0612
 2053SOL     OW 6842   5.862   1.438   4.786 -0.6461 -0.1695 -0.3335
 2053SOL    HW1 6843   5.827   1.497   4.853 -2.8492  0.2791 -1.7646
 2053SOL    HW2 6844   5.868   1.492   4.707  2.6204 -0.4748 -0.4325
 2054SOL     OW 6845   4.343   3.603   4.939  0.0395 -0.3674 -0.6055
 2054SOL    HW1 6846   4.435   3.592   4.915  0.5894 -0.2038  1.2332
 2054SOL    HW2 6847   4.338   3.570   5.029 -1.4778  0.5715 -0.3112
 2055SOL     OW 6848   1.870   4.857   3.424  0.9497 -0.1875 -0.2694
 2055SOL    HW1 6849   1.888   4.874   3.516 -2.3084  0.4726  0.3706
 2055SOL    HW2 6850   1.951   4.820   3.390  2.0505 -1.1213  3.0063
 2056SOL     OW 6851   3.015   0.719   4.551 -0.2461  0.1491 -0.0994
 2056SOL    HW1 6852   2.955   0.787   4.581  0.7082  0.3520  1.4689
 2056SOL    HW2 6853   3.039   0.746   4.462 -2.4101  0.0657 -0.7470
 2057SOL     OW 6854   3.635   0.360   0.941 -0.5807 -0.2022  0.2625
 2057SOL    HW1 6855   3.605   0.388   1.027 -0.2290  0.5542  0.1469
 2057SOL    HW2 6856   3.700   0.426   0.915  0.6967 -1.4096  0.2274
 2058SOL     OW 6857   5.828   5.621   5.860 -0.3408 -0.3974  0.0694
 2058SOL    HW1 6858   5.884   5.592   5.931  1.8370  1.2716 -0.8422
 2058SOL    HW2 6859   5.774   5.545   5.838 -0.1083 -1.3417  2.5502
 2059SOL     OW 6860   3.468   0.600   4.273  0.4562  0.0116  0.0106
 2059SOL    HW1 6861   3.438   0.634   4.358  1.0102 -0.5530  0.4412
 2059SOL    HW2 6862   3.394   0.612   4.215 -0.4504 -0.9099  0.9306
 2060SOL     OW 6863   3.792   1.494   2.890 -0.0304 -0.2748 -0.1371
 2060SOL    HW1 6864   3.737   1.464   2.818  1.0417  0.2539 -1.2092
 2060SOL    HW2 6865   3.730   1.527   2.956 -1.0293 -0.9605 -0.7169
 2061SOL     OW 6866   4.160   6.485   4.248 -0.3472  0.0932  0.7262
 2061SOL    HW1 6867   4.146   6.559   4.307  0.2433 -0.2614  1.3194
 2061SOL    HW2 6868   4.073   6.451   4.230 -0.7010  1.3893 -0.1591
 2062SOL     OW 6869   3.319   6.559   3.682 -0.0536  0.0445 -0.1771
 2062SOL    HW1 6870   3.362   6.631   3.635 -0.4633 -0.2513 -1.0323
 2062SOL    HW2 6871   3.336   6.482   3.629  0.5383 -0.5388  0.8357
 2063SOL     OW 6872   2.341   3.036   4.897 -0.1284 -0.0180  0.4682
 2063SOL    HW1 6873   2.421   3.025   4.845 -0.4229 -0.4155  0.0919
 2063SOL    HW2 6874   2.345   3.126   4.929 -0.1252  0.3569 -0.5614
 2064SOL     OW 6875   5.201   3.583   3.153  0.1696 -0.1555 -0.3012
 2064SOL    HW1 6876   5.194   3.534   3.235 -2.0296 -1.1667 -1.0294
 2064SOL    HW2 6877   5.238   3.521   3.090  0.7934  0.2704 -0.3636
 2065SOL     OW 6878   0.458   0.679   2.225 -0.4888  0.2107 -0.0450
 2065SOL    HW1 6879   0.380   0.668   2.171 -0.9641 -1.9027  0.9414
 2065SOL    HW2 6880   0.429   0.655   2.313  0.5733  2.3042  0.9516
 2066SOL     OW 6881   4.187   4.180   0.503 -0.3763 -0.5528  0.0785
 2066SOL    HW1 6882   4.098   4.147   0.507 -1.1791  1.4814  0.2312
 2066SOL    HW2 6883   4.219   4.153   0.417 -2.1554  1.0287 -1.1521
 2067SOL     OW 6884   4.459   4.998   1.092 -0.8118 -0.0776  0.1467
 2067SOL    HW1 6885   4.370   4.986   1.058 -0.1785 -1.8549 -1.0353
 2067SOL    HW2 6886   4.507   4.922   1.059  1.3478  1.2488  0.0806
 2068SOL     OW 6887   2.893   6.585   4.852  0.6376 -0.3860  0.1173
 2068SOL    HW1 6888   2.830   6.583   4.924  0.5664  0.9620  0.1134
 2068SOL    HW2 6889   2.946   6.663   4.869  0.9429 -0.3363 -1.0165
 2069SOL     OW 6890   1.772   0.144   0.531 -0.4392 -0.1188 -0.1450
 2069SOL    HW1 6891   1.685   0.159   0.569 -0.5062  0.7613 -0.6196
 2069SOL    HW2 6892   1.774   0.199   0.453  0.3707 -0.5108 -0.4128
 2070SOL     OW 6893   3.579   1.372   4.341  0.2002 -0.0743 -0.4385
 2070SOL    HW1 6894   3.612   1.376   4.252 -0.7931  0.4700 -0.7904
 2070SOL    HW2 6895   3.562   1.463   4.365  1.0266 -0.1602  0.5301
 2071SOL     OW 6896   0.612   5.980   6.802 -0.1084  0.1681  0.2033
 2071SOL    HW1 6897   0.542   5.920   6.776  0.9219 -0.3644 -1.5783
 2071SOL    HW2 6898   0.567   6.053   6.843 -1.7125 -0.1823 -0.8200
 2072SOL     OW 6899   3.512   4.744   3.851  0.1364  0.4802  0.8417
 2072SOL    HW1 6900   3.521   4.651   3.873 -1.4827  0.3107  0.9115
 2072SOL    HW2 6901   3.570   4.757   3.776 -0.7993 -0.9806 -0.1806
 2073SOL     OW 6902   6.851   5.199   1.923  0.5061  0.1839 -0.2484
 2073SOL    HW1 6903   6.790   5.249   1.869  2.3145  0.3495 -2.2503
 2073SOL    HW2 6904   6.842   5.109   1.892  2.0019  0.3764 -1.3702
 2074SOL     OW 6905   4.851   0.671   4.228 -1.0339  0.1991  0.8904
 2074SOL    HW1 6906   4.934   0.629   4.249 -1.5770 -1.8676 -0.7591
 2074SOL    HW2 6907   4.833   0.728   4.303  1.4094  0.0439  1.6854
 2075SOL     OW 6908   2.940   3.516   6.870 -0.0551 -0.4296  0.2462
 2075SOL    HW1 6909   2.942   3.490   6.962 -0.7463 -0.3898  0.2732
 2075SOL    HW2 6910   2.929   3.611   6.872  0.6021 -0.3437  0.1245
 2076SOL     OW 6911   3.256   3.080   0.748  0.1382 -0.0767  0.2010
 2076SOL    HW1 6912   3.233   2.994   0.784 -2.4840 -0.4626 -2.0420
 2076SOL    HW2 6913   3.194   3.140   0.790 -1.1720 -0.1197 -1.5416
 2077SOL     OW 6914   4.222   2.073   1.564  0.1504  0.1860  0.9889
 2077SOL    HW1 6915   4.222   2.007   1.494 -0.9204  1.5339 -0.3447
 2077SOL    HW2 6916   4.139   2.120   1.554  0.6670  1.4403  2.1878
 2078SOL     OW 6917   3.380   0.689   2.279  0.4049 -0.3947  0.0424
 2078SOL    HW1 6918   3.294   0.657   2.252  0.3628 -0.1172 -0.1493
 2078SOL    HW2 6919   3.439   0.660   2.210  0.2290  0.6901 -0.5869
 2079SOL     OW 6920   1.353   1.761   6.659  0.1988 -0.1800  0.5149
 2079SOL    HW1 6921   1.434   1.798   6.695 -0.2347 -0.9749  2.4296
 2079SOL    HW2 6922   1.368   1.666   6.660 -1.0765 -0.3978  1.7748
 2080SOL     OW 6923   5.432   2.263   6.466  0.2000  0.2694 -0.6912
 2080SOL    HW1 6924   5.426   2.201   6.538  1.3816  0.2853 -0.5555
 2080SOL    HW2 6925   5.400   2.215   6.390 -0.2262 -0.0316 -0.3228
 2081SOL     OW 6926   3.315   3.282   3.401  0.3728  0.1148 -0.0043
 2081SOL    HW1 6927   3.246   3.345   3.384  0.5554 -0.1063 -1.8260
 2081SOL    HW2 6928   3.290   3.239   3.483 -1.8117 -0.1754 -0.7634
 2082SOL     OW 6929   0.722   6.335   4.759  0.9152 -0.3171 -0.0047
 2082SOL    HW1 6930   0.671   6.416   4.757  1.7005  0.2397  1.3855
 2082SOL    HW2 6931   0.734   6.312   4.666 -1.2481 -0.1171 -0.3953
 2083SOL     OW 6932   2.743   1.878   5.365  0.1310  0.0060 -0.2440
 2083SOL    HW1 6933   2.783   1.877   5.452 -2.5987 -0.4872  1.1044
 2083SOL    HW2 6934   2.720   1.787   5.348 -0.8603  0.3392 -0.7386
 2084SOL     OW 6935   4.860   1.492   5.587 -0.1562  0.0036  0.0910
 2084SOL    HW1 6936   4.806   1.526   5.515 -0.1373 -0.3675 -0.0986
 2084SOL    HW2 6937   4.815   1.413   5.616 -0.3801  0.3685  0.7591
 2085SOL     OW 6938   6.438   4.068   5.356 -0.4715 -0.1256 -0.0383
 2085SOL    HW1 6939   6.390   4.131   5.409  0.9422  0.7975  0.1659
 2085SOL    HW2 6940   6.419   3.983   5.397 -0.3666  0.4385  1.1965
 2086SOL     OW 6941   3.999   0.450   0.026  0.0210 -0.7775 -0.4789
 2086SOL    HW1 6942   4.006   0.413   0.114  2.9252 -3.6154 -1.7213
 2086SOL    HW2 6943   4.084   0.490   0.009 -0.3604 -0.5571 -2.0747
 2087SOL     OW 6944   0.061   1.143   5.651  0.1451  0.1137  0.0955
 2087SOL    HW1 6945   0.075   1.237   5.643  1.7753 -0.0596  0.4718
 2087SOL    HW2 6946   0.068   1.125   5.745 -1.4991 -0.2126  0.1769
 2088SOL     OW 6947   3.790   4.274   4.664  0.0524  0.3086 -0.2680
 2088SOL    HW1 6948   3.715   4.321   4.701  0.5217  0.4119  0.5600
 2088SOL    HW2 6949   3.841   4.341   4.619  0.0670  0.3693 -0.1596
 2089SOL     OW 6950   0.965   0.257   6.815 -0.3730  0.5517  0.4865
 2089SOL    HW1 6951   1.026   0.257   6.889  0.5442  0.0589 -0.2611
 2089SOL    HW2 6952   0.991   0.333   6.763 -0.2139  0.1652  0.0068
 2090SOL     OW 6953   5.379   1.546   1.042  0.2581 -0.1789 -0.1086
 2090SOL    HW1 6954   5.370   1.604   1.118  1.1956 -0.6996  0.4265
 2090SOL    HW2 6955   5.402   1.461   1.080  1.2101 -0.3412 -0.9974
 2091SOL     OW 6956   5.369   6.273   0.152 -0.5718  0.1517  0.5719
 2091SOL    HW1 6957   5.302   6.206   0.143  0.1430 -0.7181  1.4192
 2091SOL    HW2 6958   5.355   6.332   0.078 -1.9328 -0.2889  0.4540
 2092SOL     OW 6959   0.075   6.178   4.194 -0.9235  0.2798  0.4007
 2092SOL    HW1 6960   0.014   6.200   4.264  1.0217 -0.0090  2.2984
 2092SOL    HW2 6961   0.123   6.258   4.177 -0.8646  0.1470 -0.0888
 2093SOL     OW 6962   0.083   1.121   6.508  0.4073  0.7070  0.6889
 2093SOL    HW1 6963   0.151   1.109   6.575 -0.0554  1.3728  1.3080
 2093SOL    HW2 6964   0.012   1.063   6.535 -0.3850  2.0517  1.6609
 2094SOL     OW 6965   2.042   4.356   4.342 -0.1537  0.0490  0.4340
 2094SOL    HW1 6966   1.971   4.322   4.397 -1.6134  1.6096 -0.4151
 2094SOL    HW2 6967   2.050   4.292   4.272 -1.3718  0.3019  0.0391
 2095SOL     OW 6968   1.518   0.763   0.358  0.0907 -0.4051 -0.2140
 2095SOL    HW1 6969   1.521   0.797   0.447 -0.4336 -1.5055  0.2380
 2095SOL    HW2 6970   1.457   0.821   0.312  1.5013  1.0921 -0.2951
 2096SOL     OW 6971   6.170   5.597   4.961  0.0228  0.0836 -0.0771
 2096SOL    HW1 6972   6.159   5.534   5.032  0.4148  1.2689  1.0890
 2096SOL    HW2 6973   6.202   5.546   4.888  4.5121 -0.5552  2.0252
 2097SOL     OW 6974   1.631   5.013   2.433  0.3101  0.8262 -0.7224
 2097SOL    HW1 6975   1.554   5.056   2.394 -0.6109  0.7792  0.9669
 2097SOL    HW2 6976   1.638   5.051   2.520  2.4197  1.0434 -0.9324
 2098SOL     OW 6977   2.116   1.207   5.310 -0.1381  0.0410  0.0219
 2098SOL    HW1 6978   2.132   1.301   5.311  0.7149 -0.0925  0.6693
 2098SOL    HW2 6979   2.120   1.183   5.217  1.4847  0.3683 -0.0229
 2099SOL     OW 6980   6.331   6.843   5.169 -0.2684 -0.6845 -0.0930
 2099SOL    HW1 6981   6.343   6.749   5.159 -0.5732 -0.9112  1.4630
 2099SOL    HW2 6982   6.293   6.871   5.086 -0.5106 -1.9974 -0.4477
 2100SOL     OW 6983   4.048   5.119   3.646  0.1921  0.2811  0.3765
 2100SOL    HW1 6984   4.014   5.120   3.735  0.7189 -0.1314  0.5923
 2100SOL    HW2 6985   4.041   5.210   3.616 -0.4171  0.3351  0.6650
 2101SOL     OW 6986   1.717   3.298   3.623 -0.0932  0.1548  0.4724
 2101SOL    HW1 6987   1.764   3.348   3.555  0.0323  1.8752  1.7468
 2101SOL    HW2 6988   1.636   3.271   3.581  0.4465  0.2589 -0.6843
 2102SOL     OW 6989   3.128   4.804   2.929  0.1002  0.3094 -0.1025
 2102SOL    HW1 6990   3.108   4.861   2.855 -0.3008  0.9027  0.4504
 2102SOL    HW2 6991   3.212   4.763   2.907  1.0966  2.1496  0.0915
 2103SOL     OW 6992   5.545   4.474   4.709 -0.3346  0.4406 -0.2013
 2103SOL    HW1 6993   5.516   4.422   4.634  3.4157  0.6969 -2.0389
 2103SOL    HW2 6994   5.525   4.564   4.685 -1.2678  0.3615  0.2280
 2104SOL     OW 6995   0.991   6.075   0.512  0.5252  0.1523 -0.8699
 2104SOL    HW1 6996   0.903   6.054   0.541 -0.0200  3.1703  0.0610
 2104SOL    HW2 6997   0.979   6.118   0.427  1.2405 -0.5071 -1.3189
 2105SOL     OW 6998   4.910   0.742   0.460 -0.3519 -0.4549  0.2937
 2105SOL    HW1 6999   4.925   0.833   0.483  1.7470 -0.8144  0.5541
 2105SOL    HW2 7000   4.939   0.692   0.537 -0.6386 -1.3737 -0.1715
 2106SOL     OW 7001   3.837   5.685   3.299  0.8463 -0.3257  0.5359
 2106SOL    HW1 7002   3.792   5.769   3.312  1.6054  0.5416 -1.8833
 2106SOL    HW2 7003   3.769   5.626   3.267  0.2858 -0.7470  2.3457
 2107SOL     OW 7004   4.351   1.031   2.607 -0.4677 -0.0272  0.5623
 2107SOL    HW1 7005   4.328   0.983   2.687  0.2212 -1.2364  0.0702
 2107SOL    HW2 7006   4.268   1.044   2.562 -1.0120  1.5543  1.9094
 2108SOL     OW 7007   5.597   1.361   4.441  0.3078 -0.6459 -0.0875
 2108SOL    HW1 7008   5.579   1.267   4.443 -1.2065 -0.4175 -1.0541
 2108SOL    HW2 7009   5.664   1.371   4.373  0.3272 -1.0026 -0.1213
 2109SOL     OW 7010   5.512   6.070   4.911 -0.2472 -0.2793  0.2709
 2109SOL    HW1 7011   5.529   6.116   4.993  0.3971 -1.7652  1.0259
 2109SOL    HW2 7012   5.482   6.137   4.851  0.6260  1.0946  1.3104
 2110SOL     OW 7013   1.582   1.311   0.984  0.1449  0.8960  0.1854
 2110SOL    HW1 7014   1.671   1.324   1.017 -0.3922  1.3057  1.5543
 2110SOL    HW2 7015   1.593   1.289   0.892  1.8097 -1.3297  0.8273
 2111SOL     OW 7016   2.660   3.921   2.270 -0.7001 -0.3900 -0.3215
 2111SOL    HW1 7017   2.703   3.836   2.282 -0.0089 -0.0437 -0.2598
 2111SOL    HW2 7018   2.698   3.977   2.339  0.4286  0.5494 -1.6369
 2112SOL     OW 7019   6.547   3.508   3.628 -0.2395  0.4482 -0.3254
 2112SOL    HW1 7020   6.579   3.520   3.718 -0.2427 -0.5128 -0.1893
 2112SOL    HW2 7021   6.602   3.566   3.576 -0.6422  1.4889  0.3622
 2113SOL     OW 7022   0.806   5.467   4.664  0.0111 -0.0246  0.9227
 2113SOL    HW1 7023   0.894   5.503   4.651  0.1545 -0.6138  0.2511
 2113SOL    HW2 7024   0.819   5.372   4.667 -0.4800 -0.0796  1.8110
 2114SOL     OW 7025   0.859   3.187   2.436  0.2829 -0.1849  0.1611
 2114SOL    HW1 7026   0.843   3.207   2.344  1.5129 -0.5330 -0.1538
 2114SOL    HW2 7027   0.947   3.222   2.453  0.6181 -1.2855  0.8255
 2115SOL     OW 7028   6.716   2.721   2.350  0.1199 -0.3555 -0.1067
 2115SOL    HW1 7029   6.727   2.631   2.318 -0.4359 -0.2276 -0.6643
 2115SOL    HW2 7030   6.685   2.711   2.440  0.9031 -0.7161  0.1326
 2116SOL     OW 7031   5.516   5.084   1.884  0.7431  0.6000  0.5031
 2116SOL    HW1 7032   5.605   5.120   1.884  0.8792  0.4828  3.2412
 2116SOL    HW2 7033   5.492   5.081   1.976 -1.8168 -0.1517 -0.1207
 2117SOL     OW 7034   6.750   4.863   0.098  0.4093  0.0238 -0.3780
 2117SOL    HW1 7035   6.697   4.824   0.028  0.3547  0.9809 -0.8930
 2117SOL    HW2 7036   6.687   4.913   0.150  0.0588 -2.3309  1.6663
 2118SOL     OW 7037   2.361   3.265   6.037  0.0399  0.1417 -0.1882
 2118SOL    HW1 7038   2.292   3.332   6.032  0.9524  1.1092 -0.2216
 2118SOL    HW2 7039   2.413   3.279   5.958  1.1049  0.3721  0.5382
 2119SOL     OW 7040   4.638   6.878   0.875 -0.3742  0.1117 -0.1597
 2119SOL    HW1 7041   4.627   6.899   0.782 -0.8071 -1.5247 -0.4994
 2119SOL    HW2 7042   4.554   6.899   0.915 -0.5546 -0.2583 -0.3473
 2120SOL     OW 7043   6.726   1.886   0.451  0.2539 -0.0869  0.5213
 2120SOL    HW1 7044   6.790   1.956   0.466 -1.5676  1.2052  3.0525
 2120SOL    HW2 7045   6.688   1.907   0.365  0.7434  1.2501  0.6030
 2121SOL     OW 7046   0.477   4.827   1.119 -0.3469  0.3523  0.5401
 2121SOL    HW1 7047   0.471   4.748   1.174 -1.5028  0.2681  0.3177
 2121SOL    HW2 7048   0.399   4.824   1.064  0.0629  1.1891 -0.1127
 2122SOL     OW 7049   3.693   0.779   1.427  0.0278  0.0426  0.0430
 2122SOL    HW1 7050   3.664   0.700   1.473 -1.4199  1.1940  1.1976
 2122SOL    HW2 7051   3.646   0.850   1.469  0.4856  1.4342 -1.6764
 2123SOL     OW 7052   3.537   0.316   4.235  0.1845  0.5689 -0.0333
 2123SOL    HW1 7053   3.539   0.410   4.216  0.1423  0.5695 -0.0356
 2123SOL    HW2 7054   3.514   0.312   4.328 -1.0804  0.5333 -0.3324
 2124SOL     OW 7055   4.787   6.067   6.793  0.0610  0.6209  0.8510
 2124SOL    HW1 7056   4.777   6.163   6.793 -1.3584  0.5171  2.3743
 2124SOL    HW2 7057   4.881   6.053   6.794  0.2982  2.0015  0.4921
 2125SOL     OW 7058   2.805   0.800   2.366 -0.0078 -0.1312  0.1790
 2125SOL    HW1 7059   2.768   0.749   2.293  0.6990 -1.5766  0.7860
 2125SOL    HW2 7060   2.739   0.867   2.384  0.2840  1.0072 -2.4920
 2126SOL     OW 7061   4.160   1.275   6.475 -0.0874  0.0704 -0.3458
 2126SOL    HW1 7062   4.217   1.351   6.490  0.1240 -0.2075  0.3023
 2126SOL    HW2 7063   4.208   1.221   6.413  0.5408 -0.3419  0.4807
 2127SOL     OW 7064   3.878   0.412   6.454 -0.2816 -0.2686 -0.2213
 2127SOL    HW1 7065   3.953   0.353   6.458  1.4425  1.8854  0.7351
 2127SOL    HW2 7066   3.854   0.427   6.545 -0.1012  1.1988 -0.3890
 2128SOL     OW 7067   5.496   1.507   0.785 -0.4529  0.3536  0.5482
 2128SOL    HW1 7068   5.480   1.503   0.879  0.2933 -2.1018  0.6344
 2128SOL    HW2 7069   5.579   1.553   0.776  0.7395 -1.5438  1.3204
 2129SOL     OW 7070   1.711   4.774   2.490 -0.6707 -0.2646  0.0329
 2129SOL    HW1 7071   1.676   4.738   2.409  1.1654  1.8893 -1.8615
 2129SOL    HW2 7072   1.688   4.867   2.488 -0.3976 -0.1008  1.9204
 2130SOL     OW 7073   1.094   1.671   1.572 -0.0529 -0.3262 -0.2846
 2130SOL    HW1 7074   1.048   1.627   1.643 -0.6145 -0.3671 -0.6651
 2130SOL    HW2 7075   1.058   1.760   1.571  1.1897  0.2127  0.5809
 2131SOL     OW 7076   5.053   1.293   2.852  0.0013  0.4053  0.2154
 2131SOL    HW1 7077   5.048   1.248   2.936  1.6049  1.4789  0.9300
 2131SOL    HW2 7078   4.995   1.243   2.795 -2.4297  0.5863  2.3466
 2132SOL     OW 7079   3.396   3.581   2.598  0.0326 -0.2479  0.7604
 2132SOL    HW1 7080   3.328   3.520   2.572 -0.9926  1.2099 -0.1290
 2132SOL    HW2 7081   3.468   3.565   2.537 -1.0852  0.8733 -0.9535
 2133SOL     OW 7082   4.682   1.239   1.300  0.0833  0.3659 -0.3885
 2133SOL    HW1 7083   4.631   1.299   1.246 -0.4114 -1.0992 -1.5804
 2133SOL    HW2 7084   4.717   1.175   1.239 -1.4148 -2.0118  1.1100
 2134SOL     OW 7085   3.428   5.621   6.776  0.0856  0.3377  0.0953
 2134SOL    HW1 7086   3.444   5.713   6.757  0.8956 -0.3245 -3.0151
 2134SOL    HW2 7087   3.462   5.575   6.700  0.0446 -2.5914  1.7180
 2135SOL     OW 7088   3.817   4.684   2.519 -0.4920 -0.0043  0.6788
 2135SOL    HW1 7089   3.767   4.764   2.535 -0.5516  0.0056  0.4450
 2135SOL    HW2 7090   3.863   4.668   2.601  1.6512  1.7660 -0.0894
 2136SOL     OW 7091   3.002   2.677   1.711  0.2572 -0.8297 -0.4600
 2136SOL    HW1 7092   2.970   2.658   1.623 -1.4805  0.8555 -0.2706
 2136SOL    HW2 7093   2.923   2.691   1.763  1.2626 -0.4964  1.0575
 2137SOL     OW 7094   4.952   1.234   2.349 -0.6176  0.3136  0.1191
 2137SOL    HW1 7095   4.985   1.144   2.359 -0.5094  0.4041  0.6086
 2137SOL    HW2 7096   4.859   1.227   2.372 -1.1306 -0.0560 -1.8325
 2138SOL     OW 7097   1.232   5.751   3.562  0.3318  0.0505  0.2515
 2138SOL    HW1 7098   1.156   5.761   3.505  1.0269 -0.7465 -0.8729
 2138SOL    HW2 7099   1.231   5.658   3.586  0.5924  0.1719  0.7346
 2139SOL     OW 7100   3.621   6.733   0.922  0.0756 -0.0858  0.1253
 2139SOL    HW1 7101   3.633   6.680   0.844 -0.5330  0.5747 -0.4230
 2139SOL    HW2 7102   3.530   6.720   0.947  0.9454 -2.5514  2.4168
 2140SOL     OW 7103   4.310   4.832   5.284  0.5896 -0.1047  0.5839
 2140SOL    HW1 7104   4.271   4.842   5.371 -0.8290  1.3671 -0.1714
 2140SOL    HW2 7105   4.238   4.851   5.223  1.7648 -0.2722 -0.9117
 2141SOL     OW 7106   1.197   0.259   1.585 -0.5550  0.3338 -0.0204
 2141SOL    HW1 7107   1.268   0.195   1.582  0.8354  1.7019  1.5000
 2141SOL    HW2 7108   1.216   0.319   1.512 -0.9174 -0.0334 -0.4227
 2142SOL     OW 7109   0.572   5.508   4.962 -0.0365 -0.4335  0.2190
 2142SOL    HW1 7110   0.532   5.428   4.996  0.2666 -0.9968 -0.7225
 2142SOL    HW2 7111   0.659   5.511   5.003 -0.3566 -0.1271  0.9040
 2143SOL     OW 7112   1.789   0.882   0.173 -0.1256  0.2709  0.9555
 2143SOL    HW1 7113   1.835   0.826   0.111 -0.5420  2.7802 -1.8491
 2143SOL    HW2 7114   1.858   0.919   0.228  0.4050 -0.9854  1.1619
 2144SOL     OW 7115   1.838   6.081   6.690  0.1387 -0.4127  0.3826
 2144SOL    HW1 7116   1.930   6.058   6.677  0.1931 -0.1014  0.2137
 2144SOL    HW2 7117   1.840   6.171   6.721 -0.0363 -0.8205  1.6562
 2145SOL     OW 7118   2.000   1.070   2.180  0.5246  0.1746  0.2673
 2145SOL    HW1 7119   2.026   1.101   2.267 -0.3044 -1.6418  1.2063
 2145SOL    HW2 7120   1.912   1.106   2.168 -1.0069 -2.7002  1.9434
 2146SOL     OW 7121   1.662   5.866   4.417 -0.1318  0.2128  0.8566
 2146SOL    HW1 7122   1.589   5.916   4.381  0.3618  0.1620 -0.2580
 2146SOL    HW2 7123   1.636   5.774   4.405  0.7779  0.1552 -1.0742
 2147SOL     OW 7124   2.601   5.264   2.993  0.1791  0.2220  0.0635
 2147SOL    HW1 7125   2.666   5.319   3.037 -0.8855  2.7121 -1.2697
 2147SOL    HW2 7126   2.522   5.272   3.046  0.7301 -2.5514  1.5068
 2148SOL     OW 7127   4.042   4.317   4.425  0.1786 -0.1870 -0.0473
 2148SOL    HW1 7128   4.106   4.251   4.450  0.5864  0.2436  0.0515
 2148SOL    HW2 7129   3.969   4.266   4.389 -0.0855 -0.7774  1.2514
 2149SOL     OW 7130   4.902   3.078   1.969  0.2242  0.5775  0.3110
 2149SOL    HW1 7131   4.926   3.151   2.026  1.0935 -1.1961  2.3474
 2149SOL    HW2 7132   4.871   3.010   2.028  0.8686 -1.2662 -1.3459
 2150SOL     OW 7133   0.098   4.772   3.479 -0.6496 -0.0773  0.0884
 2150SOL    HW1 7134   0.120   4.859   3.513 -0.5411 -0.0958  0.0664
 2150SOL    HW2 7135   0.035   4.789   3.409 -0.3026  0.0172 -0.2056
 2151SOL     OW 7136   0.111   2.649   3.042  0.2706 -0.1709 -0.4198
 2151SOL    HW1 7137   0.035   2.692   3.081 -0.4746 -1.5121 -0.3208
 2151SOL    HW2 7138   0.181   2.714   3.047 -0.8846  1.1231 -0.5808
 2152SOL     OW 7139   5.379   2.806   0.879 -0.6803  0.0092  0.0142
 2152SOL    HW1 7140   5.298   2.809   0.829 -0.0868 -0.2199 -0.9716
 2152SOL    HW2 7141   5.438   2.866   0.834 -0.8034  1.4620  1.6750
 2153SOL     OW 7142   1.802   3.480   3.414 -0.6725  0.0128  0.1325
 2153SOL    HW1 7143   1.809   3.453   3.323 -2.9624 -0.2295 -0.0317
 2153SOL    HW2 7144   1.789   3.575   3.410  1.1964  0.3162  0.3640
 2154SOL     OW 7145   1.863   6.066   5.970  0.3032  0.0708  0.2197
 2154SOL    HW1 7146   1.851   6.047   5.877 -1.8071 -0.6451  0.5830
 2154SOL    HW2 7147   1.931   6.005   5.998  1.5451  0.8324 -0.9736
 2155SOL     OW 7148   3.986   2.541   5.483  0.0955  0.0830  0.0422
 2155SOL    HW1 7149   3.984   2.459   5.433 -0.3924 -0.2543  0.5906
 2155SOL    HW2 7150   3.894   2.563   5.496  0.2250  0.5995  0.0923
 2156SOL     OW 7151   4.232   3.857   4.971  0.4897 -0.1180 -0.5032
 2156SOL    HW1 7152   4.280   3.867   5.053 -0.3478  0.7530 -0.1019
 2156SOL    HW2 7153   4.243   3.765   4.948  2.1140  0.0005 -0.2938
 2157SOL     OW 7154   1.957   6.880   1.103 -0.3515  0.3542 -0.3364
 2157SOL    HW1 7155   1.990   6.908   1.188 -1.7037 -1.9514  1.0461
 2157SOL    HW2 7156   1.947   6.785   1.110 -2.5677  0.3312 -2.3037
 2158SOL     OW 7157   4.032   6.514   6.754  0.1080  0.0505  0.0727
 2158SOL    HW1 7158   4.057   6.605   6.762  0.6267 -0.1697  1.1240
 2158SOL    HW2 7159   4.015   6.485   6.844  0.5164 -1.0378 -0.1780
 2159SOL     OW 7160   6.444   1.177   0.139  0.5200  0.1689 -0.3080
 2159SOL    HW1 7161   6.517   1.215   0.090 -0.5369  0.6447 -1.5840
 2159SOL    HW2 7162   6.368   1.188   0.081 -0.9638  1.4504  1.7313
 2160SOL     OW 7163   1.020   6.581   5.880 -0.2312 -0.2313 -0.2004
 2160SOL    HW1 7164   1.001   6.637   5.804 -1.2093 -0.8178 -0.4022
 2160SOL    HW2 7165   1.060   6.641   5.943  2.5450 -0.1304 -1.9022
 2161SOL     OW 7166   1.959   1.241   6.757 -0.3922 -0.2507 -0.3539
 2161SOL    HW1 7167   2.044   1.233   6.801 -0.3586 -0.3110 -0.4287
 2161SOL    HW2 7168   1.919   1.319   6.795 -1.1294 -1.2707  1.1047
 2162SOL     OW 7169   5.521   2.078   3.088  0.2131 -0.0120  0.1130
 2162SOL    HW1 7170   5.486   2.022   3.019  0.6568 -1.0286  0.6912
 2162SOL    HW2 7171   5.562   2.150   3.041 -0.4474 -0.1164 -0.6447
 2163SOL     OW 7172   5.905   2.764   4.423 -0.0673  0.1347  0.9752
 2163SOL    HW1 7173   5.851   2.827   4.470 -0.4568  0.8475 -0.3643
 2163SOL    HW2 7174   5.845   2.690   4.407 -0.8041  1.0408 -0.7544
 2164SOL     OW 7175   5.752   5.915   1.381  0.7140  0.9072  0.1911
 2164SOL    HW1 7176   5.830   5.970   1.389  2.0720 -0.8255 -0.4552
 2164SOL    HW2 7177   5.721   5.930   1.292  1.7289 -0.1405 -0.3610
 2165SOL     OW 7178   0.865   3.616   1.301 -0.3651 -0.5636  0.1256
 2165SOL    HW1 7179   0.825   3.626   1.387 -0.7420  1.5571 -0.2389
 2165SOL    HW2 7180   0.867   3.704   1.265  1.7221 -1.0780 -1.2087
 2166SOL     OW 7181   4.320   5.463   5.773  0.1829  0.3266  0.2158
 2166SOL    HW1 7182   4.266   5.392   5.739 -0.9670  1.4508 -0.3852
 2166SOL    HW2 7183   4.329   5.524   5.699  3.0171 -0.2007  0.0081
 2167SOL     OW 7184   5.985   2.231   5.148  0.0066  0.8084 -0.2154
 2167SOL    HW1 7185   5.993   2.136   5.150  2.2361  0.9532  1.5395
 2167SOL    HW2 7186   5.903   2.249   5.195 -0.0157 -0.1984  0.1527
 2168SOL     OW 7187   4.655   0.304   4.900  0.0359 -0.3368 -0.3167
 2168SOL    HW1 7188   4.590   0.340   4.839 -0.5612  0.8745  0.9609
 2168SOL    HW2 7189   4.701   0.381   4.933  1.3278 -1.0967 -0.2985
 2169SOL     OW 7190   2.000   4.377   0.676  0.6325  0.2928  0.2164
 2169SOL    HW1 7191   1.939   4.313   0.641  0.4412  0.0916  0.9179
 2169SOL    HW2 7192   2.053   4.402   0.600  1.0452 -1.0604  0.0213
 2170SOL     OW 7193   3.329   5.157   3.666  0.3229  0.0272 -0.2448
 2170SOL    HW1 7194   3.384   5.109   3.728 -0.9082 -2.0083 -0.5974
 2170SOL    HW2 7195   3.383   5.164   3.587  0.6331 -0.5861 -0.0967
 2171SOL     OW 7196   0.301   0.999   4.733 -0.0491  0.2014  0.3603
 2171SOL    HW1 7197   0.356   0.971   4.806 -1.4067  0.0490  1.3684
 2171SOL    HW2 7198   0.316   0.933   4.665 -1.8586 -2.1273  2.0539
 2172SOL     OW 7199   6.774   6.422   2.667 -0.3134 -0.0474  0.0070
 2172SOL    HW1 7200   6.795   6.463   2.584 -0.6255 -1.3117 -0.7315
 2172SOL    HW2 7201   6.705   6.476   2.704  1.1672  1.6601  0.4100
 2173SOL     OW 7202   0.541   1.327   0.723  0.0678 -0.0544  0.1622
 2173SOL    HW1 7203   0.581   1.293   0.803  0.8639 -0.0515 -0.2203
 2173SOL    HW2 7204   0.469   1.381   0.754 -0.9489 -1.6965  0.8055
 2174SOL     OW 7205   5.441   2.060   6.742 -0.7035 -0.3761  0.8154
 2174SOL    HW1 7206   5.383   2.023   6.676  1.7322  1.6591 -2.8531
 2174SOL    HW2 7207   5.501   1.988   6.765 -1.0337 -0.8786  0.1259
 2175SOL     OW 7208   3.891   5.741   5.356 -0.2836  0.0155 -0.1572
 2175SOL    HW1 7209   3.883   5.837   5.356  0.7234  0.1092 -0.3282
 2175SOL    HW2 7210   3.804   5.710   5.383 -0.0961  1.0230  1.8451
 2176SOL     OW 7211   5.781   3.098   0.127 -0.3185  0.4897 -0.0727
 2176SOL    HW1 7212   5.818   3.155   0.060  0.0071  0.1515 -0.1842
 2176SOL    HW2 7213   5.855   3.077   0.185 -0.4926  0.3916  0.1162
 2177SOL     OW 7214   4.287   4.862   4.060 -0.0646 -0.6784 -0.5661
 2177SOL    HW1 7215   4.283   4.957   4.043 -1.5831 -0.8026 -1.0749
 2177SOL    HW2 7216   4.365   4.833   4.013 -0.7274  0.0244 -2.2132
 2178SOL     OW 7217   4.038   1.336   0.835 -0.5971 -0.5263 -0.3356
 2178SOL    HW1 7218   4.012   1.379   0.753  0.8459  1.4236  0.1631
 2178SOL    HW2 7219   3.984   1.377   0.902  0.0839 -0.1932  0.0190
 2179SOL     OW 7220   0.786   1.416   1.964  0.2428 -0.2464 -0.4834
 2179SOL    HW1 7221   0.776   1.345   1.900 -0.2087 -0.7861  0.1696
 2179SOL    HW2 7222   0.828   1.375   2.039 -0.0731  0.1581 -0.0787
 2180SOL     OW 7223   4.758   5.155   3.582 -0.3253 -0.1928  0.8228
 2180SOL    HW1 7224   4.751   5.244   3.615  0.6455  0.0912  0.3068
 2180SOL    HW2 7225   4.722   5.160   3.493 -0.0029 -0.2457  0.6877
 2181SOL     OW 7226   6.555   3.873   6.018 -0.0731  0.6261 -0.0504
 2181SOL    HW1 7227   6.540   3.962   5.986  2.4465  0.5872 -1.6087
 2181SOL    HW2 7228   6.485   3.822   5.979 -1.8029  1.9326  1.1873
 2182SOL     OW 7229   2.104   6.076   1.253 -0.4835 -0.2641 -0.4845
 2182SOL    HW1 7230   2.103   5.982   1.234 -1.3619 -1.1255  3.0803
 2182SOL    HW2 7231   2.027   6.111   1.208 -0.1371 -1.1993 -1.8603
 2183SOL     OW 7232   6.101   2.315   6.327  0.7719  0.6380 -0.1914
 2183SOL    HW1 7233   6.072   2.405   6.309 -2.8580 -0.2614  0.3315
 2183SOL    HW2 7234   6.092   2.270   6.243  2.4082  0.6532 -0.4069
 2184SOL     OW 7235   0.214   5.000   2.862  0.1091  0.0613  0.3514
 2184SOL    HW1 7236   0.265   4.980   2.783 -0.2356 -2.1786  0.6321
 2184SOL    HW2 7237   0.238   5.090   2.884  2.2770 -0.1808 -0.7497
 2185SOL     OW 7238   4.769   4.699   3.955  0.2301 -0.4771 -0.2011
 2185SOL    HW1 7239   4.781   4.613   3.995 -1.7210 -0.5107  0.3928
 2185SOL    HW2 7240   4.854   4.719   3.916  0.4511 -3.1776 -1.3430
 2186SOL     OW 7241   0.383   4.834   3.773 -0.1145 -0.2060 -0.6283
 2186SOL    HW1 7242   0.445   4.903   3.798 -0.1697 -0.8388  1.4654
 2186SOL    HW2 7243   0.437   4.756   3.761 -0.2492 -0.2108 -1.2326
 2187SOL     OW 7244   2.453   6.521   5.384 -0.5398 -0.2941  0.0015
 2187SOL    HW1 7245   2.388   6.591   5.392 -0.7127 -0.2864 -1.2655
 2187SOL    HW2 7246   2.407   6.442   5.411  0.0680  0.2287  2.8656
 2188SOL     OW 7247   5.327   6.331   6.510  0.4950  0.7840  0.2915
 2188SOL    HW1 7248   5.268   6.371   6.446  0.9751  0.7479 -0.1867
 2188SOL    HW2 7249   5.414   6.338   6.470  0.8795  1.2168  1.1665
 2189SOL     OW 7250   4.542   1.263   0.068  0.2060  0.3972  0.1806
 2189SOL    HW1 7251   4.469   1.241   0.011 -0.3766 -1.1394  1.4642
 2189SOL    HW2 7252   4.551   1.358   0.059 -2.4964  0.7763  0.6127
 2190SOL     OW 7253   4.073   4.740   3.884  0.2686  0.1353 -0.5080
 2190SOL    HW1 7254   4.090   4.750   3.978  0.8799 -1.5672 -0.4112
 2190SOL    HW2 7255   4.036   4.824   3.858 -0.1144  0.5700  1.2950
 2191SOL     OW 7256   3.894   1.457   4.057 -0.6761  0.0030 -0.4427
 2191SOL    HW1 7257   3.870   1.512   3.982 -0.4742  1.7001  0.6719
 2191SOL    HW2 7258   3.817   1.402   4.073 -2.3438  2.4264  0.5080
 2192SOL     OW 7259   3.849   6.151   2.681 -0.0777 -0.0969  0.3963
 2192SOL    HW1 7260   3.905   6.102   2.621 -0.3682  0.8860 -0.7239
 2192SOL    HW2 7261   3.902   6.160   2.761  1.0233  0.0636 -0.3330
 2193SOL     OW 7262   5.049   1.983   0.405 -0.3998 -0.5371 -0.3338
 2193SOL    HW1 7263   5.065   2.026   0.489  0.2701 -1.3996 -0.0130
 2193SOL    HW2 7264   5.012   2.052   0.349 -2.2581 -0.2840  1.0999
 2194SOL     OW 7265   5.607   6.329   5.872 -0.1925  0.3289 -0.0219
 2194SOL    HW1 7266   5.575   6.361   5.788  2.9001  3.1139 -0.3721
 2194SOL    HW2 7267   5.626   6.237   5.857 -1.4859  0.2948 -1.7645
 2195SOL     OW 7268   5.822   6.582   2.866  0.1815  0.2180  0.2620
 2195SOL    HW1 7269   5.880   6.521   2.911 -0.5198 -0.0058  0.8928
 2195SOL    HW2 7270   5.876   6.659   2.849  0.1701  0.8385  2.6408
 2196SOL     OW 7271   1.554   3.197   2.619 -0.0316  0.8295 -0.3018
 2196SOL    HW1 7272   1.563   3.277   2.569  2.6610  1.1329  0.4671
 2196SOL    HW2 7273   1.630   3.144   2.594 -0.4344 -0.4367  0.9833
 2197SOL     OW 7274   1.619   5.046   6.847  0.0227 -0.1430  0.7028
 2197SOL    HW1 7275   1.711   5.051   6.873  0.5118 -0.2168 -0.9434
 2197SOL    HW2 7276   1.592   4.957   6.871  2.0601 -2.2598 -3.8257
 2198SOL     OW 7277   2.991   1.367   6.820  0.1313 -0.5098 -0.0242
 2198SOL    HW1 7278   3.000   1.347   6.913 -0.8063 -0.6889  0.0337
 2198SOL    HW2 7279   2.905   1.334   6.796  0.2617 -0.2461 -0.9036
 2199SOL     OW 7280   2.264   0.630   6.574 -0.3806 -0.1761 -0.0077
 2199SOL    HW1 7281   2.333   0.687   6.539  0.0145 -0.4869  0.2624
 2199SOL    HW2 7282   2.188   0.688   6.584  0.7696  0.9808  2.8335
 2200SOL     OW 7283   5.155   3.990   2.339 -0.2370  0.1089 -0.2416
 2200SOL    HW1 7284   5.143   4.020   2.249  0.9323  0.1760 -0.3877
 2200SOL    HW2 7285   5.117   3.903   2.340 -0.3204  0.1338 -0.7847
 2201SOL     OW 7286   4.801   5.531   0.440  0.5777  0.1123 -0.0652
 2201SOL    HW1 7287   4.786   5.494   0.527  1.1694  1.1988  0.5145
 2201SOL    HW2 7288   4.716   5.527   0.397  0.1013  0.2893  0.8443
 2202SOL     OW 7289   0.049   2.142   2.249  0.0746  0.0803 -0.2854
 2202SOL    HW1 7290   0.066   2.201   2.322 -1.4343  0.0194  0.1540
 2202SOL    HW2 7291  -0.043   2.157   2.227  0.2286 -0.6327 -1.5106
 2203SOL     OW 7292   1.829   4.068   1.372  0.4649 -0.3818  0.0454
 2203SOL    HW1 7293   1.736   4.088   1.370  0.7626  1.0747 -0.3325
 2203SOL    HW2 7294   1.872   4.149   1.344  1.7296 -1.7334 -2.3196
 2204SOL     OW 7295   5.732   4.731   5.458  0.5216 -0.0447 -0.5214
 2204SOL    HW1 7296   5.662   4.674   5.426 -0.9109  0.5563  1.4073
 2204SOL    HW2 7297   5.804   4.716   5.397 -1.2922 -0.5967 -2.6483
 2205SOL     OW 7298   0.329   4.769   2.953 -0.4980 -0.2600  0.5302
 2205SOL    HW1 7299   0.244   4.745   2.989 -2.3673  1.0437 -2.6066
 2205SOL    HW2 7300   0.315   4.856   2.914  1.3473 -1.2376 -2.7118
 2206SOL     OW 7301   5.800   5.146   1.353  0.2453  0.1046 -0.2822
 2206SOL    HW1 7302   5.753   5.072   1.391  1.8587 -1.3864 -1.0596
 2206SOL    HW2 7303   5.836   5.112   1.271 -0.4761  2.2994 -1.6160
 2207SOL     OW 7304   6.782   1.771   6.867 -0.4732 -0.8453  0.2087
 2207SOL    HW1 7305   6.849   1.704   6.857 -0.4133 -0.6083 -1.1512
 2207SOL    HW2 7306   6.827   1.845   6.907  0.6359  0.0737 -2.5601
 2208SOL     OW 7307   5.340   4.118   3.963 -0.0544 -0.7060 -0.7605
 2208SOL    HW1 7308   5.292   4.104   3.882  2.5095  1.1878 -2.7765
 2208SOL    HW2 7309   5.307   4.201   3.998  1.2432  0.3228 -1.8640
 2209SOL     OW 7310   0.970   1.757   0.648  0.3901 -0.0854  0.7312
 2209SOL    HW1 7311   0.896   1.701   0.625 -0.0037 -0.0466  1.8237
 2209SOL    HW2 7312   1.033   1.697   0.688  0.2457  0.1340  1.2993
 2210SOL     OW 7313   4.701   4.624   0.313 -0.6203  0.4204  0.5041
 2210SOL    HW1 7314   4.750   4.689   0.364 -0.3271 -0.2933  1.1606
 2210SOL    HW2 7315   4.690   4.550   0.373  0.5848 -0.8567 -0.7695
 2211SOL     OW 7316   1.124   6.747   6.089  0.2028 -0.2668 -0.5316
 2211SOL    HW1 7317   1.129   6.826   6.143 -1.4007 -0.5317  0.0653
 2211SOL    HW2 7318   1.122   6.675   6.152 -0.6805 -0.6403 -0.9752
 2212SOL     OW 7319   0.496   5.674   4.216  0.1715  0.6340  0.0117
 2212SOL    HW1 7320   0.467   5.758   4.180  0.6293  0.3006 -1.1992
 2212SOL    HW2 7321   0.421   5.643   4.267 -0.8229  0.7949 -1.2827
 2213SOL     OW 7322   1.703   0.617   6.419  0.3109  0.4478 -0.0650
 2213SOL    HW1 7323   1.631   0.670   6.383 -0.1562  0.2241  0.5323
 2213SOL    HW2 7324   1.739   0.670   6.490  0.6740  0.5127 -0.2939
 2214SOL     OW 7325   3.598   3.033   2.404  0.1854 -0.0761 -0.2877
 2214SOL    HW1 7326   3.615   2.954   2.352  0.4195 -1.2198  1.4583
 2214SOL    HW2 7327   3.684   3.071   2.419  0.5672 -1.7341  2.2147
 2215SOL     OW 7328   1.974   2.975   5.136 -0.2812 -0.5244  0.7056
 2215SOL    HW1 7329   1.983   2.980   5.041 -1.3769 -5.0319  0.1510
 2215SOL    HW2 7330   1.892   3.022   5.155 -0.2820  0.0429 -0.5827
 2216SOL     OW 7331   5.841   6.746   3.404  0.8900 -0.4196  0.3822
 2216SOL    HW1 7332   5.927   6.736   3.362 -0.5333 -0.5992 -2.7538
 2216SOL    HW2 7333   5.835   6.671   3.464  1.9374 -1.9207 -1.2697
 2217SOL     OW 7334   5.724   6.010   0.347 -0.0038 -0.2809 -0.0261
 2217SOL    HW1 7335   5.688   6.030   0.260 -0.2486  0.4437  0.2359
 2217SOL    HW2 7336   5.741   6.096   0.386 -2.5888 -0.4625  1.7729
 2218SOL     OW 7337   6.015   5.212   6.094 -0.8091  0.3567  0.2802
 2218SOL    HW1 7338   6.079   5.141   6.101 -1.0831  0.0252 -0.5155
 2218SOL    HW2 7339   6.048   5.280   6.153  0.6066  0.4341 -0.5589
 2219SOL     OW 7340   4.991   5.867   2.966  0.5380 -0.2356  0.6956
 2219SOL    HW1 7341   4.966   5.917   2.889  1.9918 -0.2323  0.1860
 2219SOL    HW2 7342   4.963   5.778   2.947  1.2123 -0.3056 -0.0054
 2220SOL     OW 7343   2.074   6.328   4.197  0.1559 -0.1085 -0.1713
 2220SOL    HW1 7344   2.096   6.255   4.139  1.4935 -0.5033  0.8041
 2220SOL    HW2 7345   2.103   6.406   4.149  0.3604 -0.3473 -0.4382
 2221SOL     OW 7346   4.218   3.932   2.776 -0.0851  0.0188 -0.4261
 2221SOL    HW1 7347   4.239   3.872   2.847  0.7797  1.5921  0.7123
 2221SOL    HW2 7348   4.164   4.000   2.816 -3.0995 -1.1635 -2.1906
 2222SOL     OW 7349   0.129   5.946   0.443 -0.3989 -0.5287  0.4254
 2222SOL    HW1 7350   0.075   5.951   0.364 -0.8033  0.9530  0.7766
 2222SOL    HW2 7351   0.145   5.852   0.455 -3.9219 -1.2020  0.9954
 2223SOL     OW 7352   2.682   4.509   3.227  0.3175 -0.2324 -0.1757
 2223SOL    HW1 7353   2.774   4.499   3.203  0.7481 -1.1181  1.6663
 2223SOL    HW2 7354   2.684   4.532   3.320 -1.3584 -2.8163  0.6125
 2224SOL     OW 7355   3.861   2.608   0.229 -0.1072  0.5593  0.2305
 2224SOL    HW1 7356   3.870   2.513   0.237 -1.1931  0.4404  0.0720
 2224SOL    HW2 7357   3.767   2.624   0.220  0.1436  1.5437 -1.0757
 2225SOL     OW 7358   6.354   4.508   3.172  0.4007 -0.0992  0.0149
 2225SOL    HW1 7359   6.290   4.510   3.244  0.2655 -0.2514 -0.0988
 2225SOL    HW2 7360   6.331   4.584   3.119  0.4403 -0.0396  0.0826
 2226SOL     OW 7361   2.653   0.370   1.928  0.1031 -0.1580  0.3119
 2226SOL    HW1 7362   2.621   0.410   1.847  0.6446 -1.1155 -0.3886
 2226SOL    HW2 7363   2.637   0.276   1.917 -1.7229 -0.1495  2.1929
 2227SOL     OW 7364   3.231   0.845   2.977 -0.7669  0.1890  0.5484
 2227SOL    HW1 7365   3.225   0.904   2.902  2.1621 -1.8220 -1.4696
 2227SOL    HW2 7366   3.298   0.884   3.034  1.0218 -0.9460 -0.6869
 2228SOL     OW 7367   4.462   0.277   2.161  0.2149  0.2547 -0.7590
 2228SOL    HW1 7368   4.458   0.185   2.134  0.4338 -0.4783  1.5144
 2228SOL    HW2 7369   4.555   0.300   2.156  0.1174  0.4831 -1.6680
 2229SOL     OW 7370   6.365   3.255   2.015  1.1077  0.1129 -0.2653
 2229SOL    HW1 7371   6.388   3.280   1.925 -2.4039  0.9484 -1.1148
 2229SOL    HW2 7372   6.309   3.178   2.004 -0.1572  0.7900  1.0682
 2230SOL     OW 7373   5.018   2.787   5.236  0.5707 -0.0053 -0.5356
 2230SOL    HW1 7374   5.091   2.732   5.264  0.5835 -1.1588 -2.5790
 2230SOL    HW2 7375   5.059   2.854   5.180  0.2510  0.3616 -0.3298
 2231SOL     OW 7376   1.606   1.591   6.690 -0.6693  0.0238  0.2951
 2231SOL    HW1 7377   1.617   1.684   6.709  1.6051 -0.6334  2.8964
 2231SOL    HW2 7378   1.549   1.559   6.760 -1.9577 -0.4884 -0.9388
 2232SOL     OW 7379   5.708   1.123   5.883 -0.5714 -0.0421  0.8827
 2232SOL    HW1 7380   5.787   1.165   5.849  0.1319 -2.7300 -1.0642
 2232SOL    HW2 7381   5.720   1.124   5.978 -0.0706  2.9656  0.8860
 2233SOL     OW 7382   6.053   6.073   2.644 -0.2306  0.2397 -0.3218
 2233SOL    HW1 7383   6.102   6.003   2.685 -1.7266 -0.2610  0.7023
 2233SOL    HW2 7384   5.974   6.082   2.698 -1.9272  0.0843 -2.6213
 2234SOL     OW 7385   5.143   2.977   0.785  0.1587 -0.1806  0.0232
 2234SOL    HW1 7386   5.148   3.013   0.696  1.3151  0.7602  0.4504
 2234SOL    HW2 7387   5.200   3.033   0.837 -1.4896  0.0681  1.6438
 2235SOL     OW 7388   6.560   3.708   5.253 -0.0398 -0.7079 -0.3454
 2235SOL    HW1 7389   6.498   3.757   5.308 -1.5364 -3.0634  0.2019
 2235SOL    HW2 7390   6.631   3.684   5.313  0.5204  0.4332 -0.5314
 2236SOL     OW 7391   4.357   0.323   3.981  0.0785  0.7052  0.0357
 2236SOL    HW1 7392   4.318   0.297   4.065 -3.0466  0.4930 -1.3141
 2236SOL    HW2 7393   4.326   0.412   3.967  0.0224  0.5198 -1.1442
 2237SOL     OW 7394   4.085   4.917   5.155 -0.2900 -0.0104 -0.2788
 2237SOL    HW1 7395   4.092   4.905   5.060 -0.4193  0.9164 -0.4161
 2237SOL    HW2 7396   4.005   4.869   5.179  0.2746 -1.0846 -0.4707
 2238SOL     OW 7397   6.653   0.246   5.964  0.2968  0.5249  0.1730
 2238SOL    HW1 7398   6.722   0.192   6.004  0.6072  0.8418  0.0705
 2238SOL    HW2 7399   6.671   0.241   5.870 -0.6717 -0.5476  0.0250
 2239SOL     OW 7400   6.896   2.129   0.447 -0.4218 -0.0719  0.6707
 2239SOL    HW1 7401   6.973   2.072   0.447 -0.9036 -0.7307  0.4553
 2239SOL    HW2 7402   6.911   2.189   0.374  1.1972  1.6329  2.3099
 2240SOL     OW 7403   3.125   3.055   6.265  0.1236  0.4961  0.0897
 2240SOL    HW1 7404   3.176   3.106   6.328 -2.8334  2.5885  1.0372
 2240SOL    HW2 7405   3.066   3.003   6.318  0.2263 -0.7305 -0.9556
 2241SOL     OW 7406   6.461   2.863   0.696 -0.5789  0.4031 -0.2402
 2241SOL    HW1 7407   6.453   2.830   0.607 -0.0172 -0.0813 -0.1163
 2241SOL    HW2 7408   6.469   2.958   0.686 -1.0101  0.3928 -0.6733
 2242SOL     OW 7409   1.396   5.740   5.132 -0.1180 -0.2693  0.1982
 2242SOL    HW1 7410   1.472   5.692   5.165 -1.8860 -2.1118  1.8438
 2242SOL    HW2 7411   1.393   5.820   5.184  0.9505  0.0592 -0.2243
 2243SOL     OW 7412   6.831   6.276   4.411 -0.1269 -0.8028 -0.0186
 2243SOL    HW1 7413   6.743   6.311   4.421 -0.2430 -1.4982  1.9193
 2243SOL    HW2 7414   6.849   6.232   4.495  2.0245 -0.7411 -0.3798
 2244SOL     OW 7415   6.288   0.859   6.180 -0.4944  0.1371  0.4063
 2244SOL    HW1 7416   6.210   0.805   6.189 -0.1461 -0.5373 -0.4033
 2244SOL    HW2 7417   6.255   0.944   6.153 -1.0521  0.3517  1.7036
 2245SOL     OW 7418   6.748   4.424   3.023  0.0136  0.3979  0.2349
 2245SOL    HW1 7419   6.841   4.447   3.022  0.4517 -0.9711  2.1837
 2245SOL    HW2 7420   6.741   4.353   2.959  0.3739  0.2945  0.3070
 2246SOL     OW 7421   0.541   0.388   3.621 -0.6793 -0.0256  0.0883
 2246SOL    HW1 7422   0.482   0.463   3.620 -0.2421  0.3196 -0.3805
 2246SOL    HW2 7423   0.628   0.426   3.634 -0.2857 -0.3129 -1.5180
 2247SOL     OW 7424   2.735   4.495   0.181 -0.2311 -0.1640 -0.1675
 2247SOL    HW1 7425   2.734   4.417   0.237  1.9370 -0.0353  0.1205
 2247SOL    HW2 7426   2.697   4.564   0.236 -1.2827 -0.7804 -0.0939
 2248SOL     OW 7427   1.754   1.349   2.869 -0.0668 -0.0105 -0.3483
 2248SOL    HW1 7428   1.667   1.332   2.905  0.1088  0.8311  0.5349
 2248SOL    HW2 7429   1.794   1.409   2.932  0.9806 -0.0155 -0.9864
 2249SOL     OW 7430   2.410   5.595   0.078 -0.3933 -0.2409 -0.5295
 2249SOL    HW1 7431   2.470   5.526   0.048  1.1255  0.3668  0.9387
 2249SOL    HW2 7432   2.368   5.558   0.155 -1.8837 -0.6168 -1.4847
 2250SOL     OW 7433   1.545   2.315   6.658 -0.3125 -0.4473  0.2902
 2250SOL    HW1 7434   1.500   2.392   6.625 -0.4184 -0.5579  0.1790
 2250SOL    HW2 7435   1.586   2.345   6.740 -0.3284 -0.2666  0.2318
 2251SOL     OW 7436   3.176   3.747   4.807  0.0702  0.0197 -0.1585
 2251SOL    HW1 7437   3.097   3.702   4.778  2.1117 -3.8133 -0.4870
 2251SOL    HW2 7438   3.243   3.722   4.743  2.1844  0.6952  1.6498
 2252SOL     OW 7439   1.122   5.877   0.921  0.1546 -0.6011 -0.0748
 2252SOL    HW1 7440   1.060   5.853   0.853  1.6788 -0.3033 -1.6278
 2252SOL    HW2 7441   1.113   5.809   0.987 -1.0988 -1.0989 -0.7333
 2253SOL     OW 7442   5.687   2.954   3.243 -0.2285 -0.1662  0.2764
 2253SOL    HW1 7443   5.712   3.035   3.288  0.5741  0.3148 -0.9765
 2253SOL    HW2 7444   5.766   2.901   3.243 -0.3537 -0.3590 -0.1223
 2254SOL     OW 7445   1.567   2.072   0.898 -0.0907  0.4098  0.0726
 2254SOL    HW1 7446   1.496   2.011   0.878 -0.9193  1.6233 -0.8652
 2254SOL    HW2 7447   1.548   2.102   0.987 -1.6231  1.7946 -0.6699
 2255SOL     OW 7448   3.365   3.682   3.400  0.3135  0.2771  0.2152
 2255SOL    HW1 7449   3.350   3.608   3.340 -1.0431  0.9859 -0.3755
 2255SOL    HW2 7450   3.456   3.673   3.426 -0.4009 -3.0725  2.1702
 2256SOL     OW 7451   4.759   2.056   3.161 -0.1107  0.0782  0.2890
 2256SOL    HW1 7452   4.852   2.076   3.155  0.1268 -1.2660 -0.7094
 2256SOL    HW2 7453   4.719   2.138   3.192  1.4279  0.5510  1.0949
 2257SOL     OW 7454   1.664   6.037   0.243  0.1181 -0.0643  0.0603
 2257SOL    HW1 7455   1.568   6.041   0.250  0.2259  1.7678  1.0148
 2257SOL    HW2 7456   1.680   6.022   0.150 -1.0987 -0.5191 -0.0938
 2258SOL     OW 7457   6.517   5.103   0.634 -0.2672  0.2570 -0.7183
 2258SOL    HW1 7458   6.429   5.079   0.607 -0.6203  0.8937 -0.1502
 2258SOL    HW2 7459   6.560   5.132   0.553  0.3575 -2.6702 -1.5504
 2259SOL     OW 7460   2.239   2.978   0.727  0.4652 -0.1967 -0.1104
 2259SOL    HW1 7461   2.162   2.952   0.677  0.3172  0.7527 -0.4042
 2259SOL    HW2 7462   2.312   2.965   0.667  0.6170 -1.5892  0.3400
 2260SOL     OW 7463   2.687   0.375   2.222  1.1435 -0.2294 -0.3176
 2260SOL    HW1 7464   2.682   0.280   2.230  0.3132 -0.1098  0.8776
 2260SOL    HW2 7465   2.659   0.393   2.132 -1.5094 -0.9680  0.2604
 2261SOL     OW 7466   6.491   4.648   2.024  0.1963  0.3326 -0.3696
 2261SOL    HW1 7467   6.449   4.578   2.074 -0.3675 -0.4455 -1.8758
 2261SOL    HW2 7468   6.425   4.716   2.017  0.5995  0.8625  0.7260
 2262SOL     OW 7469   2.975   4.457   3.161 -0.3380 -0.3662 -0.1419
 2262SOL    HW1 7470   2.988   4.391   3.229  0.3863  0.3300  0.4185
 2262SOL    HW2 7471   3.020   4.421   3.084  0.6876 -0.2187  0.3677
 2263SOL     OW 7472   4.888   0.039   5.967 -0.0801 -0.2872 -0.6831
 2263SOL    HW1 7473   4.931   0.100   5.907 -1.1648  0.1614 -1.0224
 2263SOL    HW2 7474   4.933  -0.044   5.952  0.3092  0.0448 -1.4065
 2264SOL     OW 7475   1.263   2.250   1.140 -0.0661 -0.3755  0.0414
 2264SOL    HW1 7476   1.253   2.327   1.196 -0.5814 -1.2045  1.1213
 2264SOL    HW2 7477   1.238   2.281   1.053 -1.9564  0.2785  0.7598
 2265SOL     OW 7478   0.716   4.183   1.546  0.3570  0.0319  0.3392
 2265SOL    HW1 7479   0.621   4.184   1.536  0.3047 -1.0414  0.5930
 2265SOL    HW2 7480   0.748   4.233   1.471 -0.1981 -3.9423 -2.9335
 2266SOL     OW 7481   3.540   3.878   0.545  0.5757 -0.1236  0.2536
 2266SOL    HW1 7482   3.479   3.805   0.531  0.9423 -0.3109 -0.4001
 2266SOL    HW2 7483   3.515   3.943   0.478  0.4222  0.2410  0.6606
 2267SOL     OW 7484   4.900   1.094   4.842  0.1286 -0.2679 -0.2648
 2267SOL    HW1 7485   4.926   1.002   4.841  0.1201 -0.2728 -0.0863
 2267SOL    HW2 7486   4.804   1.092   4.844  0.1434 -0.2799  1.6476
 2268SOL     OW 7487   3.450   2.022   1.312 -0.1084  0.1246  0.3239
 2268SOL    HW1 7488   3.368   2.033   1.265  0.2100 -1.4046 -0.6535
 2268SOL    HW2 7489   3.424   2.016   1.404 -1.3153 -2.0080 -0.0827
 2269SOL     OW 7490   1.879   1.918   0.043  0.3386 -0.2066  0.1741
 2269SOL    HW1 7491   1.803   1.973   0.025  1.4506  2.0498  1.9161
 2269SOL    HW2 7492   1.864   1.885   0.132  0.2266 -1.8649 -0.4302
 2270SOL     OW 7493   0.175   6.442   5.963 -0.1286  0.7959 -0.6331
 2270SOL    HW1 7494   0.108   6.376   5.942  1.3424 -2.1834  2.7677
 2270SOL    HW2 7495   0.254   6.411   5.919  0.0184  1.7448 -1.0433
 2271SOL     OW 7496   2.369   6.354   3.934  0.0727  0.2663 -0.2772
 2271SOL    HW1 7497   2.343   6.315   3.851  0.9961 -0.0740 -0.4194
 2271SOL    HW2 7498   2.363   6.448   3.920 -1.1215  0.2060 -0.2777
 2272SOL     OW 7499   2.125   2.073   1.841  0.3042  0.0704 -0.1763
 2272SOL    HW1 7500   2.123   2.144   1.905 -1.5330 -0.4575  0.4201
 2272SOL    HW2 7501   2.034   2.065   1.811  0.7490 -1.0767 -1.2883
 2273SOL     OW 7502   5.659   2.104   2.269 -0.2089  0.3469 -0.4294
 2273SOL    HW1 7503   5.699   2.124   2.185 -1.6492 -0.7238 -1.3971
 2273SOL    HW2 7504   5.651   2.009   2.270 -0.7987  0.3959  0.6506
 2274SOL     OW 7505   0.985   2.022   0.591  0.5383 -0.3523 -0.0398
 2274SOL    HW1 7506   0.986   1.938   0.637  1.7417 -0.8108 -0.8430
 2274SOL    HW2 7507   0.965   1.999   0.500 -0.1320  0.3572 -0.0797
 2275SOL     OW 7508   0.254   1.810   5.815 -0.2076  0.0916  0.3242
 2275SOL    HW1 7509   0.273   1.846   5.729  3.3928 -1.5532  0.2675
 2275SOL    HW2 7510   0.177   1.859   5.845  0.8303  3.5826 -2.0901
 2276SOL     OW 7511   2.931   2.855   6.402  0.4445 -0.1393  0.2932
 2276SOL    HW1 7512   2.926   2.885   6.493  0.1871 -0.2820  0.3289
 2276SOL    HW2 7513   2.929   2.759   6.409  1.1386 -0.1719  0.1762
 2277SOL     OW 7514   1.840   2.524   5.459 -0.7198 -0.9316  0.2029
 2277SOL    HW1 7515   1.867   2.539   5.550  0.6487  2.8083 -0.6296
 2277SOL    HW2 7516   1.922   2.501   5.414 -0.8579 -0.1069 -0.4984
 2278SOL     OW 7517   6.352   6.232   1.644 -0.4011  0.2745  0.1277
 2278SOL    HW1 7518   6.340   6.318   1.684 -0.7123  0.3848 -0.1987
 2278SOL    HW2 7519   6.350   6.249   1.550  4.0655  0.6200 -0.1419
 2279SOL     OW 7520   4.859   3.491   0.172  0.3390  0.6182 -0.1002
 2279SOL    HW1 7521   4.944   3.535   0.181 -0.6541  2.5092  0.6149
 2279SOL    HW2 7522   4.832   3.511   0.082  0.8754 -0.4710 -0.5212
 2280SOL     OW 7523   5.441   6.341   5.621 -0.0074 -0.2551 -0.0787
 2280SOL    HW1 7524   5.347   6.327   5.612 -0.6731  2.4394  1.3440
 2280SOL    HW2 7525   5.472   6.360   5.533 -1.1064  0.2901 -0.3612
 2281SOL     OW 7526   1.336   5.218   1.207 -0.2269 -0.2511  0.1370
 2281SOL    HW1 7527   1.362   5.230   1.116 -1.2904 -0.6400 -0.2298
 2281SOL    HW2 7528   1.342   5.124   1.221  1.2123 -0.0822  0.8851
 2282SOL     OW 7529   3.591   1.661   0.360  0.2563 -0.1751  0.8044
 2282SOL    HW1 7530   3.534   1.706   0.423 -3.0803  0.3080 -2.2540
 2282SOL    HW2 7531   3.656   1.726   0.335  0.1024  0.4164  1.8507
 2283SOL     OW 7532   6.557   1.708   0.546 -0.1772 -0.0223  0.4789
 2283SOL    HW1 7533   6.557   1.719   0.641 -0.0480  0.8575  0.3856
 2283SOL    HW2 7534   6.597   1.788   0.512  0.8408 -0.8223 -0.2743
 2284SOL     OW 7535   3.516   0.968   2.354 -0.1889 -0.3401  0.6313
 2284SOL    HW1 7536   3.513   0.873   2.350  1.9034 -0.5657  2.4795
 2284SOL    HW2 7537   3.492   0.988   2.445  0.1402  0.8537  0.4699
 2285SOL     OW 7538   3.500   5.170   1.236 -0.3297  0.4223  0.2702
 2285SOL    HW1 7539   3.485   5.185   1.330 -1.5842 -0.8398  0.3092
 2285SOL    HW2 7540   3.558   5.094   1.233 -0.7572  0.1015  0.0258
 2286SOL     OW 7541   0.740   4.890   4.939  0.2052 -0.4003 -0.1415
 2286SOL    HW1 7542   0.827   4.914   4.908  0.7992 -1.3676  0.7227
 2286SOL    HW2 7543   0.680   4.943   4.885  1.2912 -0.1008 -1.1014
 2287SOL     OW 7544   6.794   4.030   4.816 -0.2080 -0.4082  0.1106
 2287SOL    HW1 7545   6.758   4.056   4.731 -0.0615  1.1403  0.4897
 2287SOL    HW2 7546   6.888   4.022   4.801 -0.2677 -0.8692 -0.0352
 2288SOL     OW 7547   4.006   3.357   2.099  0.2082  0.2552  0.1971
 2288SOL    HW1 7548   4.040   3.300   2.168  1.4727  0.6981 -0.0251
 2288SOL    HW2 7549   3.927   3.313   2.068  1.5601 -1.8258 -0.5150
 2289SOL     OW 7550   2.754   3.099   3.207  0.1656  0.0351  0.5434
 2289SOL    HW1 7551   2.683   3.088   3.270 -0.0556 -1.4090  0.0631
 2289SOL    HW2 7552   2.742   3.029   3.143  1.2433  0.5798 -0.3036
 2290SOL     OW 7553   5.340   5.830   4.962  0.3751  0.2364 -0.0623
 2290SOL    HW1 7554   5.394   5.907   4.942  0.9588  0.0928  0.8745
 2290SOL    HW2 7555   5.306   5.848   5.050 -0.2079 -0.1826 -0.1990
 2291SOL     OW 7556   1.274   2.077   1.590  0.3923 -0.0731  0.4230
 2291SOL    HW1 7557   1.357   2.031   1.600  0.7852  0.4792 -0.1739
 2291SOL    HW2 7558   1.250   2.063   1.498 -0.3272 -0.4733  0.6671
 2292SOL     OW 7559   1.510   0.924   0.055  0.1745 -0.3757 -0.7805
 2292SOL    HW1 7560   1.440   0.949   0.116  0.2306 -0.0451 -0.8541
 2292SOL    HW2 7561   1.587   0.913   0.110  0.4108  0.6612 -0.8799
 2293SOL     OW 7562   2.498   5.629   4.751 -0.0735  0.0263  0.3111
 2293SOL    HW1 7563   2.478   5.535   4.759  0.5574  0.0136  2.2606
 2293SOL    HW2 7564   2.422   5.673   4.790  0.1134  0.2850  0.3817
 2294SOL     OW 7565   4.124   6.356   1.657  0.1780 -0.0848 -0.4259
 2294SOL    HW1 7566   4.062   6.287   1.678  0.3686 -0.6325 -1.5830
 2294SOL    HW2 7567   4.162   6.381   1.742 -0.2239 -1.0778  0.0595
 2295SOL     OW 7568   4.126   3.890   5.486  1.2852  0.5282  0.1609
 2295SOL    HW1 7569   4.188   3.857   5.421  0.8690 -0.0214  0.0336
 2295SOL    HW2 7570   4.073   3.954   5.439  0.2564 -0.6577 -0.3731
 2296SOL     OW 7571   1.410   3.094   6.301 -0.1705  0.2525  0.3176
 2296SOL    HW1 7572   1.458   3.058   6.226  0.1695  1.4988 -0.0891
 2296SOL    HW2 7573   1.407   3.023   6.364 -0.4191 -0.8168 -0.8571
 2297SOL     OW 7574   1.776   6.131   6.343  0.2336  0.0402  0.0494
 2297SOL    HW1 7575   1.830   6.054   6.360 -0.9982 -0.9111 -0.1634
 2297SOL    HW2 7576   1.755   6.165   6.429 -0.2099 -0.6001  0.2042
 2298SOL     OW 7577   6.284   4.267   5.962  0.0509  0.1122 -0.2097
 2298SOL    HW1 7578   6.287   4.350   5.914  0.5884 -0.0104 -0.3898
 2298SOL    HW2 7579   6.315   4.289   6.050 -0.5737  0.2602 -0.0190
 2299SOL     OW 7580   6.496   0.678   1.064 -0.0400  0.1340  0.1922
 2299SOL    HW1 7581   6.469   0.658   0.975  2.0535 -1.5564 -0.1266
 2299SOL    HW2 7582   6.431   0.634   1.119 -0.5739  0.0504 -0.4897
 2300SOL     OW 7583   3.386   1.089   3.063  0.0586  0.3494  0.0884
 2300SOL    HW1 7584   3.438   1.156   3.020  0.8620  0.3724  1.0553
 2300SOL    HW2 7585   3.354   1.131   3.143 -0.4343 -0.0482  0.1037
 2301SOL     OW 7586   3.276   0.702   0.420  0.2915  0.0503 -0.5004
 2301SOL    HW1 7587   3.188   0.723   0.453 -0.2138 -0.3141 -1.5393
 2301SOL    HW2 7588   3.271   0.608   0.398  1.0120 -0.0233 -0.3685
 2302SOL     OW 7589   6.878   5.282   1.120  0.0331  0.5439  0.1419
 2302SOL    HW1 7590   6.898   5.290   1.213  1.2453  0.4845 -0.1019
 2302SOL    HW2 7591   6.948   5.226   1.085 -0.5050  0.4213 -0.7750
 2303SOL     OW 7592   3.753   1.124   5.794  0.5804  0.0359  0.3312
 2303SOL    HW1 7593   3.724   1.034   5.806  3.0307 -1.0124 -0.9221
 2303SOL    HW2 7594   3.801   1.145   5.875  0.2860  0.1223  0.4865
 2304SOL     OW 7595   1.133   0.821   0.910 -0.5010  0.3874  0.0807
 2304SOL    HW1 7596   1.169   0.806   0.998  0.5199 -2.6212 -0.7317
 2304SOL    HW2 7597   1.062   0.757   0.902 -1.8637  1.9096 -0.6711
 2305SOL     OW 7598   0.980   1.255   3.829  0.3869 -0.1072 -0.1684
 2305SOL    HW1 7599   1.074   1.237   3.832  0.2493 -0.8028  0.7316
 2305SOL    HW2 7600   0.940   1.168   3.826 -0.2213  0.1623 -3.2346
 2306SOL     OW 7601   0.729   3.991   0.699 -0.3476  0.3851  0.0876
 2306SOL    HW1 7602   0.718   3.904   0.661  0.2658 -1.0773  3.0278
 2306SOL    HW2 7603   0.821   4.013   0.682  0.0876 -0.5210  1.1550
 2307SOL     OW 7604   3.223   0.694   5.251 -0.0859 -0.0081  0.3028
 2307SOL    HW1 7605   3.266   0.700   5.166 -0.6492  2.0251  0.1013
 2307SOL    HW2 7606   3.152   0.758   5.247 -0.6542 -0.4659  2.0133
 2308SOL     OW 7607   0.485   3.479   4.336 -0.3361 -0.1591 -1.0494
 2308SOL    HW1 7608   0.531   3.459   4.254  0.7715  0.4886 -0.6062
 2308SOL    HW2 7609   0.498   3.573   4.349  1.6648 -0.6202  1.0969
 2309SOL     OW 7610   6.647   6.872   4.344 -0.4607 -0.5953 -0.5747
 2309SOL    HW1 7611   6.732   6.830   4.329  0.0970  0.3284 -0.0779
 2309SOL    HW2 7612   6.584   6.815   4.300  0.4138 -1.2953 -0.9488
 2310SOL     OW 7613   1.500   5.209   6.627 -0.0520 -0.0237  0.0668
 2310SOL    HW1 7614   1.524   5.156   6.703  1.4403  0.4495 -0.0413
 2310SOL    HW2 7615   1.418   5.251   6.652 -0.3233 -0.9665  0.8538
 2311SOL     OW 7616   3.139   0.741   4.913  0.3619  0.1378 -0.0748
 2311SOL    HW1 7617   3.229   0.757   4.942  0.9411 -0.8685 -1.2162
 2311SOL    HW2 7618   3.144   0.661   4.861 -0.9605  0.7628 -1.2504
 2312SOL     OW 7619   6.363   2.635   0.810  0.2965  0.0797 -0.3132
 2312SOL    HW1 7620   6.425   2.590   0.868  0.9593 -0.0083 -1.0777
 2312SOL    HW2 7621   6.414   2.707   0.773  0.2137 -0.5187 -1.6271
 2313SOL     OW 7622   0.450   2.836   5.415  0.4310 -0.2251  0.5036
 2313SOL    HW1 7623   0.361   2.872   5.419  0.1611 -0.9176  0.8857
 2313SOL    HW2 7624   0.483   2.847   5.504  1.0628  0.8219  0.1664
 2314SOL     OW 7625   4.290   5.810   6.011 -0.5334  0.0049 -0.1264
 2314SOL    HW1 7626   4.236   5.742   5.972 -0.3023 -0.3950  0.2407
 2314SOL    HW2 7627   4.229   5.865   6.060 -1.0164  1.2424 -2.0165
 2315SOL     OW 7628   4.177   6.827   1.725  0.7670  0.6084  0.4560
 2315SOL    HW1 7629   4.149   6.918   1.724  1.2794  0.7635  0.1339
 2315SOL    HW2 7630   4.272   6.831   1.715  0.7249  0.0116 -0.2445
 2316SOL     OW 7631   5.566   0.288   2.783 -0.3750 -0.0944 -0.6263
 2316SOL    HW1 7632   5.620   0.226   2.832 -1.5986 -0.4161  0.3924
 2316SOL    HW2 7633   5.625   0.360   2.761  0.2898 -0.0278  1.1874
 2317SOL     OW 7634   2.644   2.154   5.596  0.2743 -0.2848  0.0120
 2317SOL    HW1 7635   2.555   2.119   5.607 -0.1980  0.1235 -2.1417
 2317SOL    HW2 7636   2.700   2.076   5.601  0.1344 -0.3483  3.5562
 2318SOL     OW 7637   2.950   0.781   3.738 -0.0900 -0.4275 -0.0704
 2318SOL    HW1 7638   3.024   0.784   3.799  0.6578  0.7456 -0.9767
 2318SOL    HW2 7639   2.960   0.860   3.685 -1.9744 -0.2868 -0.2725
 2319SOL     OW 7640   1.199   4.915   4.324 -0.4197  0.5561 -0.1096
 2319SOL    HW1 7641   1.142   4.965   4.382  0.5309 -0.9736  2.2606
 2319SOL    HW2 7642   1.253   4.981   4.280 -1.7023  1.8003  0.1483
 2320SOL     OW 7643   4.890   6.737   1.932  0.0295 -0.0533  0.5281
 2320SOL    HW1 7644   4.925   6.785   2.007 -1.9869 -0.0377  1.5197
 2320SOL    HW2 7645   4.843   6.803   1.881 -0.0516 -0.3942  0.1524
 2321SOL     OW 7646   3.081   2.035   6.258 -0.4225  0.1390  0.2313
 2321SOL    HW1 7647   3.165   2.056   6.299  0.2708 -0.6838 -0.7018
 2321SOL    HW2 7648   3.074   2.096   6.185 -0.0941 -0.5106 -0.3547
 2322SOL     OW 7649   2.353   6.276   1.728  0.4920 -0.1987 -0.1805
 2322SOL    HW1 7650   2.363   6.181   1.733  0.8464 -0.0978  1.5994
 2322SOL    HW2 7651   2.263   6.288   1.697  0.5142 -1.1042 -0.6427
 2323SOL     OW 7652   5.036   0.764   4.019 -0.0594  0.0879 -0.4470
 2323SOL    HW1 7653   4.963   0.781   4.079 -0.0999  0.4023 -0.5831
 2323SOL    HW2 7654   5.057   0.672   4.033 -2.3397 -0.8304 -2.4466
 2324SOL     OW 7655   5.407   1.629   3.732 -0.1219  0.4076  0.0317
 2324SOL    HW1 7656   5.483   1.570   3.740 -0.7505 -0.6230 -1.1921
 2324SOL    HW2 7657   5.445   1.717   3.737  1.1069 -0.0877 -0.1066
 2325SOL     OW 7658   3.011   3.501   5.579 -0.3480  0.6254  0.1288
 2325SOL    HW1 7659   2.997   3.574   5.518  1.0384  0.4800 -0.3994
 2325SOL    HW2 7660   2.950   3.433   5.550 -0.8474  1.1564 -0.0787
 2326SOL     OW 7661   3.324   5.465   3.583  0.9764 -0.3709  0.1517
 2326SOL    HW1 7662   3.266   5.389   3.583  0.3082  0.0517  2.7936
 2326SOL    HW2 7663   3.406   5.433   3.545 -0.3742 -1.4040 -2.1177
 2327SOL     OW 7664   3.815   6.053   5.990  0.3102 -0.2521  0.5189
 2327SOL    HW1 7665   3.743   6.046   6.052 -0.6495 -1.1235 -0.6315
 2327SOL    HW2 7666   3.843   5.963   5.975  0.7019 -0.0359 -0.0995
 2328SOL     OW 7667   0.135   1.465   2.860  0.2670  0.0320  0.3858
 2328SOL    HW1 7668   0.121   1.449   2.767  0.8038 -0.0606  0.3193
 2328SOL    HW2 7669   0.166   1.555   2.865  0.6293 -0.0922  0.4325
 2329SOL     OW 7670   5.821   4.505   6.604 -0.0817  0.2200  0.2298
 2329SOL    HW1 7671   5.857   4.560   6.673  0.4109 -0.7779  0.7969
 2329SOL    HW2 7672   5.840   4.415   6.632 -1.6035 -0.2873 -0.2531
 2330SOL     OW 7673   1.974   3.490   0.105 -0.4101  0.0426 -0.2900
 2330SOL    HW1 7674   1.964   3.404   0.147  1.2960 -0.1174 -0.1638
 2330SOL    HW2 7675   1.925   3.550   0.162 -0.0034 -0.5390  0.6940
 2331SOL     OW 7676   3.288   6.622   3.945  0.2139  0.0403  0.4148
 2331SOL    HW1 7677   3.337   6.703   3.930  1.4721 -0.6695  0.5295
 2331SOL    HW2 7678   3.282   6.581   3.859 -0.7210  0.3988  0.2960
 2332SOL     OW 7679   1.225   1.628   5.671  0.1363  0.3494  0.2698
 2332SOL    HW1 7680   1.241   1.717   5.639  2.4292 -0.7016 -1.9443
 2332SOL    HW2 7681   1.253   1.629   5.762  0.9975  1.7248  0.0214
 2333SOL     OW 7682   3.868   1.196   3.141  0.8142  0.7437  0.3435
 2333SOL    HW1 7683   3.935   1.253   3.103  1.3109  0.4591  0.7802
 2333SOL    HW2 7684   3.808   1.256   3.187  0.7258  1.0036 -0.1040
 2334SOL     OW 7685   2.892   5.894   4.989  0.1206 -0.0082 -0.3667
 2334SOL    HW1 7686   2.847   5.824   5.037 -0.5728 -0.3672 -1.4903
 2334SOL    HW2 7687   2.822   5.938   4.940  0.6651  0.9897 -0.2565
 2335SOL     OW 7688   1.820   4.321   2.685 -0.7558  0.0127  0.2933
 2335SOL    HW1 7689   1.798   4.241   2.637  1.6148 -0.1649 -0.6100
 2335SOL    HW2 7690   1.793   4.391   2.626  0.5371 -0.1907 -0.5757
 2336SOL     OW 7691   5.918   4.221   6.584  0.0445 -0.1696 -0.4340
 2336SOL    HW1 7692   5.919   4.167   6.663  0.0755 -0.8808 -0.9154
 2336SOL    HW2 7693   6.006   4.259   6.580  0.2535 -0.6541 -0.4782
 2337SOL     OW 7694   0.019   6.323   2.209 -0.0897  0.2747  0.1534
 2337SOL    HW1 7695  -0.048   6.275   2.160 -0.8633 -0.0222  1.4512
 2337SOL    HW2 7696   0.044   6.264   2.279  1.6722  0.3305 -0.3866
 2338SOL     OW 7697   5.556   1.081   4.438 -0.5429 -0.0582  0.3365
 2338SOL    HW1 7698   5.647   1.062   4.415 -0.3760  1.3311 -0.2765
 2338SOL    HW2 7699   5.504   1.032   4.375 -0.3200 -2.2671  1.7541
 2339SOL     OW 7700   5.699   6.416   2.152 -0.1921  0.4246 -0.8475
 2339SOL    HW1 7701   5.794   6.420   2.145  0.1205  0.2810  2.0233
 2339SOL    HW2 7702   5.677   6.325   2.131  0.5116  0.0598 -0.0563
 2340SOL     OW 7703   5.707   5.170   2.379 -0.5354  0.4115  0.2061
 2340SOL    HW1 7704   5.679   5.084   2.348  0.9296  0.2837 -0.9077
 2340SOL    HW2 7705   5.651   5.232   2.334 -0.1610  0.1063 -0.7056
 2341SOL     OW 7706   4.534   0.483   4.519  0.1410 -0.1246  0.2396
 2341SOL    HW1 7707   4.473   0.497   4.447  0.2116 -0.0382  0.1950
 2341SOL    HW2 7708   4.617   0.463   4.476 -0.3455 -2.5572  0.2954
 2342SOL     OW 7709   0.048   0.896   6.716 -0.3181 -0.1603  0.1112
 2342SOL    HW1 7710   0.082   0.981   6.745  3.1720 -1.9004  1.6198
 2342SOL    HW2 7711  -0.024   0.877   6.777 -0.0803  0.9982  0.7766
 2343SOL     OW 7712   4.525   6.107   0.239  0.1527 -0.2801  0.6060
 2343SOL    HW1 7713   4.565   6.184   0.199  0.2383 -0.5958  0.0814
 2343SOL    HW2 7714   4.571   6.096   0.323 -0.5444  0.8296  1.1575
 2344SOL     OW 7715   2.259   4.772   4.151  0.1580 -0.0237  0.5720
 2344SOL    HW1 7716   2.202   4.697   4.131 -0.8778  1.2207 -1.3525
 2344SOL    HW2 7717   2.273   4.766   4.246 -4.0734  0.1679  1.4076
 2345SOL     OW 7718   4.808   5.159   2.101  0.1915  0.9182  0.0033
 2345SOL    HW1 7719   4.770   5.149   2.013 -1.8831 -1.4874  1.0403
 2345SOL    HW2 7720   4.787   5.249   2.126  1.5587  1.9539 -2.1871
 2346SOL     OW 7721   0.688   3.285   0.892 -0.1027 -0.6040 -0.3719
 2346SOL    HW1 7722   0.709   3.306   0.983 -0.2893 -0.9820 -0.2396
 2346SOL    HW2 7723   0.773   3.273   0.849  0.1053  2.0269 -0.8590
 2347SOL     OW 7724   0.620   5.394   4.252  0.1258 -0.0210  0.0462
 2347SOL    HW1 7725   0.529   5.379   4.227  0.5500 -0.1740 -1.5160
 2347SOL    HW2 7726   0.660   5.435   4.175  1.3493  0.1857  0.7552
 2348SOL     OW 7727   2.507   1.615   6.734  0.8442  0.3699  0.0109
 2348SOL    HW1 7728   2.436   1.668   6.769 -0.2821 -0.5593 -0.7966
 2348SOL    HW2 7729   2.503   1.628   6.639  0.7244 -0.9121 -0.1790
 2349SOL     OW 7730   6.179   6.215   5.100 -0.7198 -0.0651  0.6019
 2349SOL    HW1 7731   6.182   6.309   5.113 -0.0391 -0.0973  0.7230
 2349SOL    HW2 7732   6.121   6.203   5.025 -2.9322  0.2665  2.1632
 2350SOL     OW 7733   4.767   4.572   1.811  0.0045 -0.2371 -0.0266
 2350SOL    HW1 7734   4.744   4.650   1.759  0.7813  1.5958  2.2204
 2350SOL    HW2 7735   4.862   4.567   1.805  0.0520 -0.3538  0.7234
 2351SOL     OW 7736   3.329   2.728   2.062  0.0823 -0.3812 -0.0989
 2351SOL    HW1 7737   3.351   2.675   1.985 -0.7374  0.4733 -0.9530
 2351SOL    HW2 7738   3.252   2.684   2.100  0.4857 -0.8017  0.2467
 2352SOL     OW 7739   5.011   0.048   5.312  0.0021 -0.9309 -0.4878
 2352SOL    HW1 7740   5.081   0.113   5.317 -0.0922 -0.7790 -1.0768
 2352SOL    HW2 7741   4.972   0.062   5.226  0.3034 -2.1023 -0.8330
 2353SOL     OW 7742   5.468   5.493   0.562 -0.1230 -0.0903  0.0937
 2353SOL    HW1 7743   5.446   5.519   0.472  0.0024 -1.8528 -0.4884
 2353SOL    HW2 7744   5.487   5.575   0.607  2.7677  0.6949 -2.2634
 2354SOL     OW 7745   0.055   1.549   2.247  1.0105  0.2570 -0.6309
 2354SOL    HW1 7746   0.096   1.492   2.313 -1.6724 -0.7942  0.2607
 2354SOL    HW2 7747   0.066   1.501   2.164  2.0704  0.3091 -0.5397
 2355SOL     OW 7748   0.278   0.299   2.085  0.3601  0.5533 -0.2939
 2355SOL    HW1 7749   0.336   0.276   2.157 -1.8125 -0.0726  1.3877
 2355SOL    HW2 7750   0.271   0.220   2.033  0.0374  0.2191  0.2457
 2356SOL     OW 7751   4.423   4.397   2.800  0.3432 -0.3249 -0.0972
 2356SOL    HW1 7752   4.494   4.448   2.761  0.4273 -0.4400 -0.0938
 2356SOL    HW2 7753   4.419   4.317   2.747  0.4498 -0.4777  0.1234
 2357SOL     OW 7754   4.017   1.755   5.650  0.1288 -0.0345 -0.5861
 2357SOL    HW1 7755   4.091   1.781   5.704 -0.1170  1.7002 -1.0251
 2357SOL    HW2 7756   4.031   1.662   5.634  2.3024  0.2623 -0.7742
 2358SOL     OW 7757   4.049   0.998   1.887 -0.1786 -0.3083  0.4982
 2358SOL    HW1 7758   4.008   0.987   1.800  1.7367 -1.8737 -0.2689
 2358SOL    HW2 7759   4.101   1.078   1.879  1.1515 -1.2169 -0.3335
 2359SOL     OW 7760   1.603   1.637   2.628 -0.0205  0.0791 -0.3576
 2359SOL    HW1 7761   1.624   1.720   2.586  0.0929 -0.4310 -1.3372
 2359SOL    HW2 7762   1.509   1.626   2.617 -0.1336  0.3430  0.2845
 2360SOL     OW 7763   3.350   0.991   2.077  0.3071 -0.0992 -0.0754
 2360SOL    HW1 7764   3.362   1.081   2.109  1.0848 -0.2487  0.0623
 2360SOL    HW2 7765   3.437   0.962   2.053  0.0480 -0.7964 -0.2014
 2361SOL     OW 7766   2.624   5.948   1.647  0.3437  0.6917 -0.1419
 2361SOL    HW1 7767   2.621   5.986   1.559 -0.5050  3.3787  0.9582
 2361SOL    HW2 7768   2.533   5.925   1.666  0.6376 -0.6141 -0.2180
 2362SOL     OW 7769   6.602   1.892   3.257 -0.0316 -0.2369  0.2095
 2362SOL    HW1 7770   6.694   1.900   3.284  0.3814 -1.3876 -0.8045
 2362SOL    HW2 7771   6.571   1.813   3.301  0.2707 -1.3777 -1.5294
 2363SOL     OW 7772   5.382   6.040   0.432 -0.0514 -0.2153 -0.4278
 2363SOL    HW1 7773   5.337   6.023   0.349 -0.0827  0.8269 -0.6387
 2363SOL    HW2 7774   5.359   6.131   0.453  0.4619 -0.2738  0.4045
 2364SOL     OW 7775   3.233   3.739   5.910 -0.6483  0.4114  0.5468
 2364SOL    HW1 7776   3.167   3.702   5.969  0.2641  0.8941  1.9193
 2364SOL    HW2 7777   3.232   3.832   5.929 -0.7373  0.6592 -0.6401
 2365SOL     OW 7778   3.450   5.345   0.252 -0.1253 -0.3805 -0.6041
 2365SOL    HW1 7779   3.399   5.409   0.203  0.2091  0.3363 -0.0323
 2365SOL    HW2 7780   3.429   5.261   0.211 -0.9967  0.0226 -1.0116
 2366SOL     OW 7781   2.580   1.978   4.282 -0.2133  0.7154  0.1502
 2366SOL    HW1 7782   2.546   2.057   4.323 -1.3722  0.9177 -1.1224
 2366SOL    HW2 7783   2.509   1.914   4.290 -0.2162  0.5642 -0.9455
 2367SOL     OW 7784   0.370   0.637   1.547  0.7291  0.1301 -0.5274
 2367SOL    HW1 7785   0.301   0.683   1.593  2.4742  1.0067  1.3447
 2367SOL    HW2 7786   0.449   0.688   1.564  2.1375 -1.6862 -1.2701
 2368SOL     OW 7787   6.228   4.799   3.964 -0.3850 -0.3865 -0.1289
 2368SOL    HW1 7788   6.235   4.894   3.961  0.0745 -0.4261 -2.5699
 2368SOL    HW2 7789   6.317   4.769   3.984 -0.8741 -0.3248  2.3893
 2369SOL     OW 7790   6.426   0.722   3.167  0.3694  0.7603  0.1627
 2369SOL    HW1 7791   6.461   0.703   3.080  0.1274 -1.0022  0.4144
 2369SOL    HW2 7792   6.340   0.680   3.168  0.7753 -0.0965  1.5572
 2370SOL     OW 7793   2.539   4.162   1.409  0.0853 -0.2421 -0.2070
 2370SOL    HW1 7794   2.457   4.117   1.391 -0.5704 -0.0293  1.9696
 2370SOL    HW2 7795   2.584   4.105   1.472  1.0375  0.2576 -0.4199
 2371SOL     OW 7796   0.639   0.701   1.469 -0.1533  0.6493  0.5062
 2371SOL    HW1 7797   0.708   0.651   1.425 -0.0549  0.6986  0.6034
 2371SOL    HW2 7798   0.596   0.750   1.398 -0.8897 -0.3129  0.2630
 2372SOL     OW 7799   1.274   6.412   6.772 -0.4937 -0.2995  0.6732
 2372SOL    HW1 7800   1.321   6.493   6.747 -0.5344 -0.2029  0.9090
 2372SOL    HW2 7801   1.342   6.355   6.808 -0.3324 -0.6647 -0.1897
 2373SOL     OW 7802   6.317   6.163   1.901  0.4027 -0.2372  0.3460
 2373SOL    HW1 7803   6.347   6.194   1.815  0.2383 -0.5977  0.1547
 2373SOL    HW2 7804   6.308   6.242   1.953 -1.8941  0.2714 -0.7133
 2374SOL     OW 7805   1.045   4.547   6.545 -0.4705  0.1541  0.4423
 2374SOL    HW1 7806   0.983   4.609   6.508  0.0531  0.0960 -0.5775
 2374SOL    HW2 7807   1.059   4.578   6.634  0.8074  2.3603 -0.4353
 2375SOL     OW 7808   6.621   5.746   5.425 -0.1108 -0.3769  0.4790
 2375SOL    HW1 7809   6.663   5.739   5.340 -2.8761  0.8009 -1.1175
 2375SOL    HW2 7810   6.550   5.681   5.423 -0.4347 -0.1063  1.7755
 2376SOL     OW 7811   3.195   1.275   3.873  0.2394 -0.5403 -0.6071
 2376SOL    HW1 7812   3.277   1.225   3.875  0.2617 -0.5601 -1.5151
 2376SOL    HW2 7813   3.222   1.365   3.891  0.6602 -0.3325 -2.1273
 2377SOL     OW 7814   6.692   3.659   6.582 -0.5484  0.1931  0.2776
 2377SOL    HW1 7815   6.751   3.594   6.622 -2.6065 -1.4649  0.8137
 2377SOL    HW2 7816   6.694   3.733   6.642  1.6871  0.6048 -0.2255
 2378SOL     OW 7817   1.050   0.474   4.555  0.4193  0.4746 -0.4922
 2378SOL    HW1 7818   1.075   0.549   4.609  0.0456  0.0845  0.2425
 2378SOL    HW2 7819   1.116   0.408   4.573 -0.5567 -0.2105  0.7065
 2379SOL     OW 7820   2.663   2.535   5.058  0.0193  0.1153 -0.3609
 2379SOL    HW1 7821   2.612   2.534   4.977 -0.9012  0.3173  0.1953
 2379SOL    HW2 7822   2.602   2.503   5.125  0.5456  0.6179  0.3788
 2380SOL     OW 7823   5.838   0.492   0.402 -0.2398  0.0298 -0.3573
 2380SOL    HW1 7824   5.864   0.523   0.488 -1.5645  0.6437 -0.1586
 2380SOL    HW2 7825   5.896   0.539   0.341 -0.0878  0.4866  0.1318
 2381SOL     OW 7826   4.606   4.416   0.460 -0.0032  1.0335 -0.1448
 2381SOL    HW1 7827   4.533   4.394   0.518 -0.0975 -1.1395 -1.0106
 2381SOL    HW2 7828   4.684   4.407   0.514  0.0185 -2.2942 -0.5691
 2382SOL     OW 7829   4.326   3.481   3.539  0.0512  0.1218 -0.1599
 2382SOL    HW1 7830   4.402   3.497   3.483  0.2904 -1.5663 -0.3712
 2382SOL    HW2 7831   4.295   3.394   3.514 -1.8807  0.7038  0.0225
 2383SOL     OW 7832   6.440   0.336   1.517 -0.7730 -0.0187 -0.8604
 2383SOL    HW1 7833   6.457   0.317   1.425 -1.0250  0.5483 -1.0290
 2383SOL    HW2 7834   6.526   0.351   1.555 -0.4969 -1.9910 -0.5861
 2384SOL     OW 7835   4.105   3.259   5.426 -0.4647 -0.0591  0.3222
 2384SOL    HW1 7836   4.014   3.277   5.452 -0.9418 -0.9974 -0.5928
 2384SOL    HW2 7837   4.098   3.238   5.333  0.5211 -1.3473  0.5182
 2385SOL     OW 7838   2.158   5.039   6.007 -0.1178 -0.6414 -0.3447
 2385SOL    HW1 7839   2.088   5.000   5.954  0.5517 -0.2369 -1.5820
 2385SOL    HW2 7840   2.223   5.069   5.942  0.5545  0.2349  0.6962
 2386SOL     OW 7841   3.945   2.673   4.537 -0.4264 -0.1702  0.0103
 2386SOL    HW1 7842   3.860   2.666   4.580 -0.5876  1.5688  0.0679
 2386SOL    HW2 7843   4.001   2.719   4.601 -0.1489  0.8232 -0.9204
 2387SOL     OW 7844   6.312   4.548   2.479 -0.0106  0.3201 -0.0354
 2387SOL    HW1 7845   6.272   4.633   2.458  1.7711  1.7229  1.8797
 2387SOL    HW2 7846   6.373   4.567   2.550 -0.6014 -2.8722  1.4682
 2388SOL     OW 7847   2.860   6.632   3.258 -0.2003  0.3535  0.2095
 2388SOL    HW1 7848   2.885   6.713   3.214  0.8444  0.2675  0.6310
 2388SOL    HW2 7849   2.865   6.565   3.189 -0.2217  0.5016  0.0631
 2389SOL     OW 7850   3.270   2.428   4.000  0.1690  0.3154  0.1084
 2389SOL    HW1 7851   3.290   2.396   3.912  0.1176  0.1038  0.1722
 2389SOL    HW2 7852   3.307   2.516   4.003 -0.4066  0.5798 -0.3469
 2390SOL     OW 7853   5.317   6.627   5.023 -0.0024  0.1624 -0.4706
 2390SOL    HW1 7854   5.245   6.683   4.995  0.2637  2.1279  2.3320
 2390SOL    HW2 7855   5.299   6.610   5.116  1.0036 -2.8431 -0.7037
 2391SOL     OW 7856   4.668   1.803   4.981  0.3149 -0.1883  0.5683
 2391SOL    HW1 7857   4.580   1.765   4.986 -0.2924  1.1945  1.0024
 2391SOL    HW2 7858   4.678   1.830   4.890  0.4185 -0.6297  0.4480
 2392SOL     OW 7859   0.022   5.217   0.527  0.3780 -0.1060  0.2742
 2392SOL    HW1 7860   0.084   5.179   0.465 -0.6176 -0.7977 -0.3470
 2392SOL    HW2 7861   0.073   5.280   0.577  1.2112  0.5306 -1.2956
 2393SOL     OW 7862   3.698   5.874   2.283  0.0212  0.4228 -0.1353
 2393SOL    HW1 7863   3.623   5.933   2.291  0.7663  1.2471  1.0648
 2393SOL    HW2 7864   3.686   5.810   2.352 -0.5254 -0.5806 -1.1256
 2394SOL     OW 7865   0.742   6.855   4.305  0.2042 -0.1099 -0.6189
 2394SOL    HW1 7866   0.669   6.834   4.362  0.3429  2.0339  0.4240
 2394SOL    HW2 7867   0.733   6.794   4.231 -3.4056  0.9300 -1.2116
 2395SOL     OW 7868   2.304   3.340   4.972 -0.6353 -0.2322  0.9273
 2395SOL    HW1 7869   2.377   3.365   4.915  0.1173 -1.1895  1.4453
 2395SOL    HW2 7870   2.226   3.368   4.925  0.0337  0.1613  0.0297
 2396SOL     OW 7871   2.685   0.368   5.389  0.1686 -0.2993 -0.5214
 2396SOL    HW1 7872   2.642   0.290   5.425  0.7725 -0.6718 -0.6092
 2396SOL    HW2 7873   2.766   0.336   5.351  1.3990  0.6279  1.1531
 2397SOL     OW 7874   2.594   2.654   4.188  0.5763 -0.4557  0.0330
 2397SOL    HW1 7875   2.552   2.709   4.122  0.5272  0.6907  0.9769
 2397SOL    HW2 7876   2.678   2.697   4.206  1.1043 -1.3902 -0.0969
 2398SOL     OW 7877   3.883   3.674   1.824  0.1408 -0.1287 -0.0656
 2398SOL    HW1 7878   3.888   3.647   1.732  1.2573  2.2866 -0.7867
 2398SOL    HW2 7879   3.792   3.658   1.848 -0.4637  0.2006 -1.9486
 2399SOL     OW 7880   3.905   1.450   1.050 -0.1744 -0.1808  0.5986
 2399SOL    HW1 7881   3.841   1.521   1.047  0.1960  0.1973  1.4566
 2399SOL    HW2 7882   3.956   1.466   1.129  1.1350 -0.3508 -0.1742
 2400SOL     OW 7883   1.920   1.742   0.549  0.4862 -1.0608 -0.5945
 2400SOL    HW1 7884   1.978   1.697   0.611  0.3422  0.6094  0.8268
 2400SOL    HW2 7885   1.925   1.834   0.574 -0.0332 -0.3887 -2.7361
 2401SOL     OW 7886   1.084   1.974   6.495 -0.7850 -0.3673  0.2631
 2401SOL    HW1 7887   0.994   2.005   6.507 -0.8681  0.1041 -1.3615
 2401SOL    HW2 7888   1.089   1.952   6.402  1.2193  1.1209 -0.0300
 2402SOL     OW 7889   4.811   4.817   4.190  0.0182 -0.0510  0.5482
 2402SOL    HW1 7890   4.768   4.791   4.109  0.6751 -0.1960  0.2379
 2402SOL    HW2 7891   4.802   4.742   4.248  0.8904 -0.5472  0.0626
 2403SOL     OW 7892   1.033   4.602   1.391 -0.1056  0.1578 -0.1488
 2403SOL    HW1 7893   1.065   4.512   1.393  0.5972  0.3883 -0.7883
 2403SOL    HW2 7894   1.095   4.649   1.336  0.2668  1.3217  1.2076
 2404SOL     OW 7895   4.055   5.564   4.225 -0.1508 -0.0516  0.5833
 2404SOL    HW1 7896   4.025   5.654   4.214 -0.2158 -0.2873 -1.3718
 2404SOL    HW2 7897   4.003   5.531   4.299 -0.0911  1.4905  1.3582
 2405SOL     OW 7898   3.343   5.252   3.408  0.0499  0.0329  0.3699
 2405SOL    HW1 7899   3.415   5.290   3.358 -0.6917  2.5016  1.0495
 2405SOL    HW2 7900   3.268   5.256   3.349  0.2012 -1.5776  0.0271
 2406SOL     OW 7901   0.057   5.627   4.451  0.3360  0.5310  0.2330
 2406SOL    HW1 7902   0.026   5.696   4.392 -1.0977  0.6792  1.1240
 2406SOL    HW2 7903   0.133   5.590   4.406 -0.5452  0.8119 -1.5842
 2407SOL     OW 7904   0.633   2.890   1.744  0.2720  0.1060 -0.4038
 2407SOL    HW1 7905   0.605   2.880   1.835 -2.6983  0.0286 -1.2367
 2407SOL    HW2 7906   0.595   2.973   1.716  0.5527 -0.2103 -1.7893
 2408SOL     OW 7907   5.984   0.221   6.546 -0.3152  0.4242  0.3251
 2408SOL    HW1 7908   6.033   0.166   6.485  1.1993  1.4435  0.5546
 2408SOL    HW2 7909   5.898   0.180   6.552  0.4413 -1.3383 -0.2518
 2409SOL     OW 7910   5.581   3.554   0.623  0.5611 -0.3349  0.7495
 2409SOL    HW1 7911   5.599   3.584   0.712 -0.2386 -1.2813  1.2469
 2409SOL    HW2 7912   5.619   3.467   0.618 -1.1345 -1.1206  0.8405
 2410SOL     OW 7913   2.098   4.538   0.281 -0.1355  0.1912 -0.6586
 2410SOL    HW1 7914   2.053   4.601   0.337 -1.3823 -0.5035 -0.8476
 2410SOL    HW2 7915   2.150   4.484   0.342  0.4055  0.9482 -0.4346
 2411SOL     OW 7916   3.731   0.279   1.888 -0.1891  0.4763 -0.2747
 2411SOL    HW1 7917   3.737   0.230   1.970  1.5137  0.6529 -0.2568
 2411SOL    HW2 7918   3.806   0.338   1.889 -2.0281  3.0270 -0.3841
 2412SOL     OW 7919   0.371   6.419   2.350  0.3982  0.4774  0.1931
 2412SOL    HW1 7920   0.433   6.362   2.395 -1.5323 -1.8895  0.0751
 2412SOL    HW2 7921   0.296   6.362   2.330 -0.6437  2.4796 -2.1724
 2413SOL     OW 7922   2.048   6.657   2.288 -0.3640 -0.5095 -0.0544
 2413SOL    HW1 7923   2.046   6.744   2.328 -0.1131  0.4068 -1.9240
 2413SOL    HW2 7924   2.129   6.618   2.322  1.9679  1.7549 -2.5003
 2414SOL     OW 7925   3.945   5.318   5.594  0.7105  0.2813 -0.5639
 2414SOL    HW1 7926   4.035   5.285   5.605  1.0967  1.5979  0.3993
 2414SOL    HW2 7927   3.920   5.350   5.680 -0.6762  0.0164 -0.8428
 2415SOL     OW 7928   2.241   4.411   6.678 -0.0567 -0.0207 -0.0694
 2415SOL    HW1 7929   2.224   4.505   6.674  1.7724  0.4227  1.4933
 2415SOL    HW2 7930   2.223   4.387   6.769  1.8201 -0.6628  0.1693
 2416SOL     OW 7931   5.041   5.636   4.039 -0.0929 -0.3448  0.5249
 2416SOL    HW1 7932   5.129   5.633   4.077  0.1341 -2.5116  0.0005
 2416SOL    HW2 7933   4.993   5.696   4.095  1.2584 -0.4678  1.8955
 2417SOL     OW 7934   2.341   5.773   4.357  0.4949  0.1639 -0.2375
 2417SOL    HW1 7935   2.379   5.753   4.271  0.1506  0.7526 -0.5366
 2417SOL    HW2 7936   2.416   5.787   4.414  0.7336 -0.6800 -0.3259
 2418SOL     OW 7937   3.266   6.740   6.451 -0.0223  0.0222  0.2237
 2418SOL    HW1 7938   3.230   6.820   6.414 -0.1177  0.1720  0.6363
 2418SOL    HW2 7939   3.360   6.758   6.462 -0.0292  0.0473  0.2400
 2419SOL     OW 7940   5.591   3.526   1.735  0.3608  0.4756 -0.7001
 2419SOL    HW1 7941   5.559   3.451   1.685 -1.5984  0.0739  1.0163
 2419SOL    HW2 7942   5.662   3.491   1.788 -1.4942 -0.6550  1.2049
 2420SOL     OW 7943   2.686   5.559   3.507  0.6993 -0.0454  0.2168
 2420SOL    HW1 7944   2.705   5.514   3.590  0.7209  0.5300  0.5308
 2420SOL    HW2 7945   2.689   5.490   3.441  4.1625 -0.0001  0.1735
 2421SOL     OW 7946   2.595   6.187   3.439  0.4160 -0.0865  0.3099
 2421SOL    HW1 7947   2.634   6.236   3.511  1.2564 -0.8506  0.3923
 2421SOL    HW2 7948   2.669   6.152   3.390 -0.1328  0.4396 -0.9615
 2422SOL     OW 7949   4.413   1.297   2.550  0.2393 -0.9574  0.3555
 2422SOL    HW1 7950   4.374   1.210   2.550 -2.6017  0.1754  2.0969
 2422SOL    HW2 7951   4.380   1.339   2.629 -0.4376  2.4601 -1.5112
 2423SOL     OW 7952   3.808   1.818   0.144  0.1669  0.4902 -0.0637
 2423SOL    HW1 7953   3.761   1.880   0.199 -0.5432  1.0555 -1.2814
 2423SOL    HW2 7954   3.879   1.786   0.200 -1.4830 -0.2282  1.7624
 2424SOL     OW 7955   3.262   2.772   0.277 -0.6000 -0.6625 -0.1354
 2424SOL    HW1 7956   3.238   2.730   0.359  0.9703  2.3878  2.0936
 2424SOL    HW2 7957   3.352   2.743   0.260 -0.9020 -1.2450 -0.8050
 2425SOL     OW 7958   5.346   4.305   3.253  0.4793  0.5875  0.4198
 2425SOL    HW1 7959   5.396   4.227   3.276  1.0439  0.4096 -1.2631
 2425SOL    HW2 7960   5.270   4.272   3.206 -1.3238  0.8523  2.9341
 2426SOL     OW 7961   5.134   2.789   1.710 -0.0872  0.1114 -0.0708
 2426SOL    HW1 7962   5.207   2.800   1.649  1.9236  0.6932  2.2556
 2426SOL    HW2 7963   5.090   2.874   1.711 -0.9571 -0.2889 -1.6032
 2427SOL     OW 7964   2.247   6.805   0.126  0.0777  0.3185  0.0528
 2427SOL    HW1 7965   2.174   6.835   0.071 -0.0761 -1.0475 -0.5471
 2427SOL    HW2 7966   2.206   6.748   0.191  0.5056  0.2771  0.2909
 2428SOL     OW 7967   0.825   5.896   0.217 -0.0714 -0.0152  0.0151
 2428SOL    HW1 7968   0.808   5.974   0.164  0.2716 -0.2715 -0.4749
 2428SOL    HW2 7969   0.751   5.838   0.200 -0.1589  0.0634  0.1240
 2429SOL     OW 7970   3.157   0.795   3.921  0.3191  0.3603 -0.7030
 2429SOL    HW1 7971   3.133   0.884   3.946  0.7409  1.3824 -3.4963
 2429SOL    HW2 7972   3.248   0.802   3.891  0.6961 -1.2533 -0.0771
 2430SOL     OW 7973   0.837   5.156   4.741  0.6347 -0.1159  0.2301
 2430SOL    HW1 7974   0.899   5.109   4.686 -0.4329 -0.6766 -0.5368
 2430SOL    HW2 7975   0.760   5.168   4.685  0.3976  1.3920  0.8407
 2431SOL     OW 7976   2.553   1.987   0.517  0.1335  0.5310 -0.4876
 2431SOL    HW1 7977   2.496   1.973   0.442  0.3733 -0.6076 -0.4762
 2431SOL    HW2 7978   2.554   1.903   0.563  2.4820  0.1950 -0.9828
 2432SOL     OW 7979   1.167   3.706   0.777 -0.3885  0.0845  0.4251
 2432SOL    HW1 7980   1.101   3.769   0.749 -0.4404  0.0678  0.5102
 2432SOL    HW2 7981   1.118   3.626   0.794 -0.1154 -0.5424 -1.4453
 2433SOL     OW 7982   5.532   2.402   1.960  0.0564 -0.2773 -0.1321
 2433SOL    HW1 7983   5.572   2.489   1.970 -2.4048  0.6746  2.4164
 2433SOL    HW2 7984   5.581   2.346   2.020  0.3865 -0.1960 -0.3216
 2434SOL     OW 7985   2.037   6.073   4.919  0.0521  0.1184  0.3879
 2434SOL    HW1 7986   1.995   6.149   4.960  0.3329  0.3572  0.2306
 2434SOL    HW2 7987   2.043   6.096   4.826 -0.4892 -0.3800  0.2231
 2435SOL     OW 7988   0.136   6.897   0.932  1.0425  0.3325  0.0408
 2435SOL    HW1 7989   0.198   6.829   0.959  0.8467  1.0918  2.5908
 2435SOL    HW2 7990   0.188   6.978   0.933  0.3064  0.8056  1.0907
 2436SOL     OW 7991   4.426   0.698   2.194 -0.6583 -0.2046 -0.0719
 2436SOL    HW1 7992   4.424   0.709   2.289  0.2886 -0.1943 -0.0392
 2436SOL    HW2 7993   4.395   0.781   2.159  1.0518  0.6024  0.2234
 2437SOL     OW 7994   4.892   4.132   1.159 -0.4389  0.0192  0.4588
 2437SOL    HW1 7995   4.960   4.180   1.206  1.0760 -1.4510 -0.1411
 2437SOL    HW2 7996   4.812   4.148   1.210  0.5020  1.1105  1.6568
 2438SOL     OW 7997   0.130   4.444   3.024  0.3054 -0.1591 -0.1876
 2438SOL    HW1 7998   0.210   4.494   3.039  0.9508 -1.3275  0.4012
 2438SOL    HW2 7999   0.140   4.366   3.079 -1.8412  0.3031  0.9617
 2439SOL     OW 8000   0.712   1.375   2.309  0.0680 -0.6551 -0.4417
 2439SOL    HW1 8001   0.663   1.376   2.227  1.0620 -2.8444 -1.1304
 2439SOL    HW2 8002   0.758   1.460   2.310  1.0197 -1.0638 -2.8025
 2440SOL     OW 8003   6.810   5.358   4.108  0.1793  0.0013  0.6523
 2440SOL    HW1 8004   6.797   5.400   4.192 -0.3889  0.2544  0.4363
 2440SOL    HW2 8005   6.793   5.426   4.043 -0.5247 -0.4869  0.3064
 2441SOL     OW 8006   3.272   2.284   0.981  0.3278  0.8265  0.5561
 2441SOL    HW1 8007   3.211   2.211   0.994  0.6756  0.1714 -1.2211
 2441SOL    HW2 8008   3.337   2.273   1.051  0.5253 -0.7594  0.1682
 2442SOL     OW 8009   5.484   1.719   6.648 -0.2972  0.2690  0.2704
 2442SOL    HW1 8010   5.429   1.692   6.722 -1.6676  1.3557 -0.2999
 2442SOL    HW2 8011   5.548   1.779   6.687  0.9383 -1.4627  1.0412
 2443SOL     OW 8012   1.113   4.276   4.055  0.6722 -0.1274 -0.4068
 2443SOL    HW1 8013   1.191   4.255   4.003  0.8211 -1.8916  0.4516
 2443SOL    HW2 8014   1.148   4.318   4.134  0.6754 -0.0958 -0.4249
 2444SOL     OW 8015   1.907   5.398   5.882 -0.0518  0.5482  0.9788
 2444SOL    HW1 8016   1.974   5.397   5.950  1.5789  1.6512 -0.5265
 2444SOL    HW2 8017   1.874   5.488   5.883  0.7213  0.8658 -0.3370
 2445SOL     OW 8018   5.380   6.328   0.421  0.0068  0.3813 -0.6224
 2445SOL    HW1 8019   5.351   6.294   0.336 -1.3050 -1.8704  0.6086
 2445SOL    HW2 8020   5.400   6.420   0.405 -4.0059  1.1508 -2.5822
 2446SOL     OW 8021   1.423   5.337   0.016 -0.5968 -0.0719  0.0559
 2446SOL    HW1 8022   1.448   5.251   0.052  0.3326  0.1227 -0.0948
 2446SOL    HW2 8023   1.330   5.345   0.036 -0.0212  0.3501  3.1427
 2447SOL     OW 8024   1.033   5.916   2.661  0.1182 -0.1426  0.1665
 2447SOL    HW1 8025   1.117   5.958   2.681  0.1682 -1.4442  3.2154
 2447SOL    HW2 8026   0.967   5.976   2.696  0.1396 -1.7612  3.3237
 2448SOL     OW 8027   1.038   5.307   1.085 -0.0538 -0.2079 -0.0108
 2448SOL    HW1 8028   1.097   5.369   1.044  2.5395 -0.4440  2.9740
 2448SOL    HW2 8029   1.075   5.221   1.066 -0.0708 -0.4346  0.9077
 2449SOL     OW 8030   2.049   1.520   6.200  0.0290  0.5628  0.8878
 2449SOL    HW1 8031   2.130   1.479   6.228 -1.6807 -2.7199  1.5725
 2449SOL    HW2 8032   2.029   1.584   6.268  1.8771  1.2943  0.7892
 2450SOL     OW 8033   4.277   6.599   3.179  0.7473  0.0804 -0.4420
 2450SOL    HW1 8034   4.315   6.676   3.136  1.2592  0.4048  0.5430
 2450SOL    HW2 8035   4.353   6.544   3.200  0.5215 -0.0336  0.0973
 2451SOL     OW 8036   3.382   3.736   4.205  0.0449 -0.0735 -0.5483
 2451SOL    HW1 8037   3.474   3.713   4.190  0.1525  1.1479 -2.0204
 2451SOL    HW2 8038   3.382   3.831   4.215 -0.7859 -0.2558  2.0398
 2452SOL     OW 8039   2.871   3.047   0.621 -0.4963  0.1430  0.2696
 2452SOL    HW1 8040   2.920   2.971   0.653  1.0503  1.5417  1.4189
 2452SOL    HW2 8041   2.784   3.013   0.602  0.4463 -2.1339 -0.3165
 2453SOL     OW 8042   3.609   0.473   6.359  0.1552 -0.0782 -0.0004
 2453SOL    HW1 8043   3.634   0.462   6.267 -2.2159  1.8271 -0.9780
 2453SOL    HW2 8044   3.691   0.489   6.405  1.3775 -0.8488 -1.8027
 2454SOL     OW 8045   6.613   5.356   5.526  0.0067  0.0789 -0.1665
 2454SOL    HW1 8046   6.567   5.315   5.452  0.3728  1.8347 -1.4437
 2454SOL    HW2 8047   6.658   5.284   5.569 -0.6264 -1.0803 -1.3515
 2455SOL     OW 8048   2.816   5.692   0.822 -0.0923 -0.9130  0.3967
 2455SOL    HW1 8049   2.809   5.681   0.917  2.0199  0.6655  0.7960
 2455SOL    HW2 8050   2.860   5.612   0.792 -2.3158 -2.2435  0.4088
 2456SOL     OW 8051   3.830   6.214   3.183 -0.1050 -0.2558 -0.7746
 2456SOL    HW1 8052   3.891   6.282   3.214  1.3662 -2.3038  1.1226
 2456SOL    HW2 8053   3.870   6.132   3.211 -2.7081 -1.8381 -1.3993
 2457SOL     OW 8054   0.433   3.817   6.275 -0.0207  0.3039  0.4412
 2457SOL    HW1 8055   0.365   3.867   6.320  0.1856  0.2612  0.8017
 2457SOL    HW2 8056   0.414   3.829   6.182  0.8387  2.1875  0.4671
 2458SOL     OW 8057   3.476   4.580   6.789  0.5884 -0.0746  0.0833
 2458SOL    HW1 8058   3.552   4.526   6.808 -0.1914 -1.4405 -0.5914
 2458SOL    HW2 8059   3.416   4.564   6.862  0.2421 -0.3241 -0.2568
 2459SOL     OW 8060   1.825   4.568   0.053  0.5170 -0.2369 -0.1929
 2459SOL    HW1 8061   1.785   4.551   0.138 -0.4931  0.8452 -0.4239
 2459SOL    HW2 8062   1.901   4.624   0.073  0.0623  0.3284 -0.0308
 2460SOL     OW 8063   5.869   6.189   1.647  0.7519 -0.9240 -0.6391
 2460SOL    HW1 8064   5.804   6.254   1.621 -0.2079 -1.4724  0.3260
 2460SOL    HW2 8065   5.822   6.130   1.706  1.5367 -2.6312 -1.6485
 2461SOL     OW 8066   2.655   5.824   1.207  0.4492  0.3595 -0.3096
 2461SOL    HW1 8067   2.657   5.919   1.197 -0.8879  0.4372 -0.0102
 2461SOL    HW2 8068   2.616   5.792   1.125 -0.3709  0.1871  0.1368
 2462SOL     OW 8069   4.190   6.623   1.529  0.6217  0.2510 -0.4279
 2462SOL    HW1 8070   4.245   6.668   1.593  0.1344 -0.9888  0.9200
 2462SOL    HW2 8071   4.170   6.538   1.570 -2.3911  0.6863 -0.7803
 2463SOL     OW 8072   0.934   6.334   5.750  0.1509 -0.1865 -0.2077
 2463SOL    HW1 8073   0.898   6.268   5.810  0.5639  0.1019  0.3647
 2463SOL    HW2 8074   0.963   6.405   5.807  0.0884  0.3133 -0.7906
 2464SOL     OW 8075   2.561   1.504   5.713  0.5600  0.1344  0.3071
 2464SOL    HW1 8076   2.553   1.546   5.627 -0.6009 -0.6911 -0.0218
 2464SOL    HW2 8077   2.559   1.576   5.775  0.6066  0.6978 -0.3316
 2465SOL     OW 8078   3.357   4.336   3.803  0.0123 -0.1390 -0.5446
 2465SOL    HW1 8079   3.440   4.316   3.845 -0.8789  0.5373  1.6863
 2465SOL    HW2 8080   3.368   4.307   3.712  3.1055  1.1644 -0.6797
 2466SOL     OW 8081   0.141   4.416   5.042 -0.0460  0.1491 -0.0820
 2466SOL    HW1 8082   0.133   4.340   5.099 -1.0102 -0.5943 -1.1747
 2466SOL    HW2 8083   0.055   4.459   5.046 -0.7269 -0.8603 -2.2164
 2467SOL     OW 8084   2.367   5.730   1.117 -0.3076 -0.0149 -0.2449
 2467SOL    HW1 8085   2.311   5.666   1.072 -0.4691  0.2612 -0.4408
 2467SOL    HW2 8086   2.353   5.811   1.069  0.5603 -0.0292 -0.5397
 2468SOL     OW 8087   2.344   4.129   3.544 -0.1947  0.7734  0.1176
 2468SOL    HW1 8088   2.414   4.072   3.509 -0.3082 -0.7737  2.2130
 2468SOL    HW2 8089   2.292   4.152   3.467  0.0029 -1.7972 -0.8974
 2469SOL     OW 8090   5.867   0.637   5.610  0.0216  0.0987  0.3718
 2469SOL    HW1 8091   5.860   0.727   5.641 -1.3698  0.4335 -0.8528
 2469SOL    HW2 8092   5.881   0.645   5.516  0.6658 -0.9721  0.3581
 2470SOL     OW 8093   4.391   4.000   0.625 -0.3115  0.1396  0.5128
 2470SOL    HW1 8094   4.348   4.057   0.562 -0.4197 -0.5834 -0.0795
 2470SOL    HW2 8095   4.327   3.989   0.695 -0.3615  0.5779  0.5413
 2471SOL     OW 8096   2.789   0.637   4.253  0.5774 -0.1945  0.0715
 2471SOL    HW1 8097   2.729   0.703   4.217 -0.8029 -1.3191  0.2094
 2471SOL    HW2 8098   2.854   0.624   4.184 -0.4664 -0.3450 -0.9115
 2472SOL     OW 8099   4.545   5.836   2.272 -0.0676  0.1973 -0.1110
 2472SOL    HW1 8100   4.472   5.897   2.283  0.4969  0.6590  1.4980
 2472SOL    HW2 8101   4.602   5.855   2.347  1.0013 -1.1105 -0.5632
 2473SOL     OW 8102   6.207   6.020   5.984  0.4831 -0.4840 -0.5618
 2473SOL    HW1 8103   6.167   5.934   5.997  0.2239 -0.2489  0.2182
 2473SOL    HW2 8104   6.142   6.082   6.017  0.5979  0.0235 -1.2836
 2474SOL     OW 8105   4.064   0.063   5.415 -0.4144  0.5619 -0.3040
 2474SOL    HW1 8106   4.023  -0.022   5.428  0.3748  0.2557  0.2217
 2474SOL    HW2 8107   3.996   0.126   5.442 -0.8183  0.0904 -0.2044
 2475SOL     OW 8108   4.170   3.625   6.853 -0.6104 -0.3062 -0.2303
 2475SOL    HW1 8109   4.239   3.629   6.919  0.0676 -1.4323 -0.8383
 2475SOL    HW2 8110   4.098   3.579   6.897 -0.1539 -1.0749 -0.2690
 2476SOL     OW 8111   6.674   3.771   2.113 -0.4932  0.2105  0.0229
 2476SOL    HW1 8112   6.685   3.712   2.188 -0.9858  0.7121  0.5104
 2476SOL    HW2 8113   6.587   3.810   2.127 -0.1759  1.0486 -0.2787
 2477SOL     OW 8114   1.253   1.551   3.285 -0.1738 -0.7486  0.5459
 2477SOL    HW1 8115   1.339   1.542   3.326 -0.2675  0.1553  0.9677
 2477SOL    HW2 8116   1.192   1.559   3.359 -0.4143  0.2627  0.2586
 2478SOL     OW 8117   0.973   1.682   4.551  0.3771  0.3993 -0.0908
 2478SOL    HW1 8118   0.983   1.770   4.586 -0.3814  0.1234  0.9065
 2478SOL    HW2 8119   1.004   1.687   4.461 -1.1472  2.0868 -0.5927
 2479SOL     OW 8120   1.519   3.217   5.140 -0.4862  0.1477  0.1112
 2479SOL    HW1 8121   1.615   3.218   5.150 -0.4689 -0.7801  0.1802
 2479SOL    HW2 8122   1.487   3.271   5.212 -0.0543 -0.4615  0.7746
 2480SOL     OW 8123   3.300   1.987   1.548 -0.3502 -0.0592  0.3217
 2480SOL    HW1 8124   3.334   2.076   1.548 -0.6650  0.1026  1.9414
 2480SOL    HW2 8125   3.216   1.994   1.594 -0.8436 -1.0383 -0.3913
 2481SOL     OW 8126   5.377   0.146   2.645 -0.1162 -0.6579  0.5529
 2481SOL    HW1 8127   5.403   0.234   2.671 -1.4964 -0.5616  1.7311
 2481SOL    HW2 8128   5.455   0.110   2.602 -0.0027  1.6529 -1.4084
 2482SOL     OW 8129   6.380   0.941   6.685  0.1069 -0.5100 -0.3577
 2482SOL    HW1 8130   6.434   1.003   6.636  0.9386  0.9493  2.2131
 2482SOL    HW2 8131   6.319   0.996   6.734 -1.6137 -1.9773 -0.7712
 2483SOL     OW 8132   6.589   3.629   0.213  0.6702 -0.2047 -0.2579
 2483SOL    HW1 8133   6.603   3.715   0.254 -1.2322  0.9820 -1.8545
 2483SOL    HW2 8134   6.602   3.566   0.283  2.6894  1.3339  0.8399
 2484SOL     OW 8135   4.416   2.728   3.928 -0.4018 -0.0847 -0.2276
 2484SOL    HW1 8136   4.410   2.672   4.005  1.0073 -2.1723 -1.5137
 2484SOL    HW2 8137   4.495   2.780   3.942 -0.1113 -0.5080 -0.2722
 2485SOL     OW 8138   6.841   1.153   1.468 -0.2424 -0.6202  0.7318
 2485SOL    HW1 8139   6.788   1.171   1.391 -0.0460 -0.0582  0.7227
 2485SOL    HW2 8140   6.931   1.173   1.441  0.0633 -2.0443  0.5853
 2486SOL     OW 8141   1.427   0.274   2.364 -0.4474  0.2750  0.2672
 2486SOL    HW1 8142   1.486   0.252   2.292 -0.2673 -1.2699  0.8379
 2486SOL    HW2 8143   1.439   0.368   2.378 -0.5208  0.6189 -1.7205
 2487SOL     OW 8144   4.506   4.324   6.820 -0.1964 -0.1280 -0.3382
 2487SOL    HW1 8145   4.565   4.267   6.770  0.0089  0.6344 -0.9933
 2487SOL    HW2 8146   4.553   4.341   6.901 -0.0025 -0.4264 -0.3843
 2488SOL     OW 8147   6.263   3.363   0.474  0.2979 -0.3580 -0.5654
 2488SOL    HW1 8148   6.192   3.410   0.518  0.3765  0.8816 -1.6738
 2488SOL    HW2 8149   6.220   3.311   0.406  0.4698  1.4871 -2.1893
 2489SOL     OW 8150   0.256   0.595   6.070 -0.1934 -0.1041  0.7365
 2489SOL    HW1 8151   0.308   0.523   6.103 -0.3934 -0.7906 -0.3742
 2489SOL    HW2 8152   0.295   0.674   6.108  1.7008 -0.5856 -0.1062
 2490SOL     OW 8153   0.047   5.658   0.560 -0.5425  0.2066 -0.4568
 2490SOL    HW1 8154  -0.023   5.632   0.500 -0.9363  0.4667 -0.1174
 2490SOL    HW2 8155   0.127   5.620   0.522 -1.1206 -1.7582  0.1630
 2491SOL     OW 8156   4.196   4.569   3.332  0.7396  0.1721 -0.5272
 2491SOL    HW1 8157   4.214   4.510   3.405 -0.8240  0.1153 -0.1616
 2491SOL    HW2 8158   4.283   4.593   3.298  1.5353  0.6693  1.7095
 2492SOL     OW 8159   3.063   3.776   3.920 -0.6900  0.1807  0.3779
 2492SOL    HW1 8160   2.972   3.806   3.921 -0.3785  1.1842 -0.2813
 2492SOL    HW2 8161   3.056   3.682   3.904 -1.5870  0.6256 -2.3989
 2493SOL     OW 8162   2.545   1.498   3.410  0.2017  0.1686  0.6936
 2493SOL    HW1 8163   2.483   1.453   3.353 -0.5471  1.6552  0.2632
 2493SOL    HW2 8164   2.582   1.568   3.355 -0.7531  1.8239  2.0586
 2494SOL     OW 8165   1.531   0.852   3.713  0.3992  0.3263 -0.2477
 2494SOL    HW1 8166   1.545   0.936   3.757 -1.9778 -0.5703  2.5802
 2494SOL    HW2 8167   1.487   0.874   3.632  0.6413  1.8632  0.0111
 2495SOL     OW 8168   0.491   6.455   6.293  0.3151 -0.2143  0.1526
 2495SOL    HW1 8169   0.456   6.463   6.381 -1.5705 -0.4454 -0.5254
 2495SOL    HW2 8170   0.439   6.515   6.240 -0.0144 -1.5894 -1.1751
 2496SOL     OW 8171   6.192   3.872   4.331 -0.6418  0.4201 -0.0892
 2496SOL    HW1 8172   6.098   3.853   4.329 -0.5711 -0.0435  0.5256
 2496SOL    HW2 8173   6.216   3.864   4.424  0.2314 -0.6322 -0.3782
 2497SOL     OW 8174   3.897   6.448   5.266 -0.0643  0.9557  0.1687
 2497SOL    HW1 8175   3.810   6.415   5.289 -0.4648  1.1450 -1.0301
 2497SOL    HW2 8176   3.958   6.382   5.301 -0.6158  1.2258  1.7347
 2498SOL     OW 8177   1.668   5.550   5.920 -0.0004  0.0523 -0.4916
 2498SOL    HW1 8178   1.587   5.593   5.948 -0.9055 -2.2654  0.6291
 2498SOL    HW2 8179   1.640   5.471   5.875  1.5384 -2.1284  2.0549
 2499SOL     OW 8180   0.921   4.349   0.316  0.6592 -0.2033  0.1067
 2499SOL    HW1 8181   0.879   4.358   0.230 -0.1028 -0.0635  0.4867
 2499SOL    HW2 8182   0.901   4.259   0.343  0.5073 -0.1013  0.3365
 2500SOL     OW 8183   4.115   1.287   1.610 -0.0697 -0.4380 -0.1736
 2500SOL    HW1 8184   4.187   1.272   1.549  1.2239  2.9171  0.2739
 2500SOL    HW2 8185   4.155   1.279   1.697  0.3532  3.0215  0.0845
 2501SOL     OW 8186   3.207   6.185   4.475  0.6499  0.1907  0.4234
 2501SOL    HW1 8187   3.251   6.269   4.489  0.8579  0.1209  0.1721
 2501SOL    HW2 8188   3.194   6.180   4.381  0.6687 -0.0779  0.4352
 2502SOL     OW 8189   1.172   6.819   3.783  0.1319 -0.4620 -0.0910
 2502SOL    HW1 8190   1.194   6.826   3.876  1.5922 -2.4816 -0.1991
 2502SOL    HW2 8191   1.253   6.840   3.737  0.1206 -1.8281 -0.7928
 2503SOL     OW 8192   6.150   0.854   5.182 -0.1433  0.0517 -0.0388
 2503SOL    HW1 8193   6.081   0.822   5.124  0.2406  0.7821 -0.9199
 2503SOL    HW2 8194   6.214   0.783   5.185 -0.2458 -0.0541 -0.3729
 2504SOL     OW 8195   5.299   6.821   2.954 -0.4120 -0.3489  0.3380
 2504SOL    HW1 8196   5.394   6.827   2.960 -0.3133 -0.0349 -1.2306
 2504SOL    HW2 8197   5.282   6.728   2.937 -0.3174 -0.2614 -0.2585
 2505SOL     OW 8198   2.892   4.856   6.502 -0.0001 -0.7589 -0.2709
 2505SOL    HW1 8199   2.874   4.762   6.509 -1.8046 -0.3882  0.8206
 2505SOL    HW2 8200   2.893   4.887   6.592  0.7087  0.2679 -0.6125
 2506SOL     OW 8201   5.190   0.326   6.095 -0.6250  0.1134 -0.1863
 2506SOL    HW1 8202   5.169   0.390   6.163 -0.3802  0.6183 -0.5707
 2506SOL    HW2 8203   5.130   0.254   6.109 -0.2682  0.0096  0.8485
 2507SOL     OW 8204   2.023   2.968   5.412  0.1587 -0.1649 -0.0639
 2507SOL    HW1 8205   2.037   2.960   5.317  0.0762 -0.2486 -0.0688
 2507SOL    HW2 8206   2.092   2.915   5.451 -0.2678 -0.7463 -0.0925
 2508SOL     OW 8207   1.825   2.549   6.164 -0.1369 -0.3944 -0.0346
 2508SOL    HW1 8208   1.751   2.607   6.145  1.6566  1.9090 -0.4735
 2508SOL    HW2 8209   1.804   2.468   6.118 -2.0029  0.4619 -0.8262
 2509SOL     OW 8210   0.215   5.513   1.905 -0.6042  0.1065 -0.0158
 2509SOL    HW1 8211   0.169   5.590   1.872 -0.8167  0.7894  1.7592
 2509SOL    HW2 8212   0.283   5.548   1.963  0.3519 -0.9981 -0.4125
 2510SOL     OW 8213   0.347   1.840   3.614  0.1345  0.1758 -0.1159
 2510SOL    HW1 8214   0.361   1.933   3.635  0.6578  0.6272 -2.2646
 2510SOL    HW2 8215   0.252   1.831   3.610  0.0627  0.4562  0.6712
 2511SOL     OW 8216   5.107   3.619   0.214 -0.4679  0.1956  0.0614
 2511SOL    HW1 8217   5.082   3.705   0.249  0.4432  0.4679  0.0805
 2511SOL    HW2 8218   5.167   3.583   0.279 -3.2554 -1.8992  1.6620
 2512SOL     OW 8219   2.132   0.899   2.703  0.1860  0.0126  0.0285
 2512SOL    HW1 8220   2.131   0.812   2.741  2.5693 -0.2368 -0.3550
 2512SOL    HW2 8221   2.043   0.932   2.716 -0.5382 -2.1381  0.8985
 2513SOL     OW 8222   2.231   6.419   2.788 -0.1641 -0.0952  0.4829
 2513SOL    HW1 8223   2.217   6.451   2.877 -1.9403  2.3767 -0.5702
 2513SOL    HW2 8224   2.160   6.357   2.773 -1.3877  1.3469  0.0438
 2514SOL     OW 8225   3.081   5.672   1.289 -0.5491 -0.2309  0.3690
 2514SOL    HW1 8226   3.131   5.735   1.237 -1.3334 -1.4474 -1.9594
 2514SOL    HW2 8227   3.135   5.593   1.289 -0.7194 -0.3592  1.1764
 2515SOL     OW 8228   3.227   4.524   2.421 -0.7987  0.7680 -0.1437
 2515SOL    HW1 8229   3.270   4.454   2.471 -3.8954 -1.3374 -0.1517
 2515SOL    HW2 8230   3.246   4.603   2.471  1.1416 -0.3311  1.0313
 2516SOL     OW 8231   6.838   3.130   4.066 -0.3846  0.0503 -0.2758
 2516SOL    HW1 8232   6.906   3.097   4.125  0.4795 -0.3299 -1.4236
 2516SOL    HW2 8233   6.853   3.225   4.062  0.6795 -0.1249 -1.1769
 2517SOL     OW 8234   1.773   3.057   2.548 -0.5732 -0.1342  0.1719
 2517SOL    HW1 8235   1.735   3.040   2.462  0.0432 -1.4687  0.1333
 2517SOL    HW2 8236   1.868   3.046   2.535 -0.4893 -0.5411  1.0420
 2518SOL     OW 8237   1.175   1.059   5.421  0.0332 -0.1214  0.9423
 2518SOL    HW1 8238   1.132   1.118   5.483  0.4628  0.7492  0.4390
 2518SOL    HW2 8239   1.112   0.989   5.406 -1.5905  1.5172 -0.4013
 2519SOL     OW 8240   1.791   5.043   0.581 -0.9302 -0.0042  0.0337
 2519SOL    HW1 8241   1.726   5.091   0.632 -0.5504  0.9463 -0.3517
 2519SOL    HW2 8242   1.814   5.102   0.509 -0.3739 -0.7266 -0.3945
 2520SOL     OW 8243   3.415   5.792   1.094 -0.3352 -0.3023  0.1055
 2520SOL    HW1 8244   3.483   5.856   1.075  0.0017 -1.1449 -1.6919
 2520SOL    HW2 8245   3.364   5.832   1.165 -0.0166  1.8373 -0.8021
 2521SOL     OW 8246   5.247   2.689   5.336 -0.0469  0.4423  0.1910
 2521SOL    HW1 8247   5.318   2.743   5.371 -0.8108  1.5021  0.1833
 2521SOL    HW2 8248   5.245   2.611   5.392  1.7652 -0.1022 -0.4493
 2522SOL     OW 8249   6.500   1.554   4.010  0.4207  0.1788 -0.7692
 2522SOL    HW1 8250   6.510   1.488   3.941 -2.1856  0.7143 -1.7662
 2522SOL    HW2 8251   6.439   1.515   4.072  0.1731  0.9801 -0.4974
 2523SOL     OW 8252   3.900   1.465   6.368  0.4338 -0.4499 -0.1927
 2523SOL    HW1 8253   3.816   1.448   6.324  0.5736  0.6640 -0.9218
 2523SOL    HW2 8254   3.939   1.537   6.318  1.1199  0.0868  1.0810
 2524SOL     OW 8255   0.392   0.841   6.144 -0.5098 -0.2005  0.3607
 2524SOL    HW1 8256   0.369   0.934   6.152  1.5460  0.5762 -1.7561
 2524SOL    HW2 8257   0.454   0.826   6.215 -0.7893  0.0583  0.6632
 2525SOL     OW 8258   3.324   6.245   6.897  0.0688 -0.6048 -0.6403
 2525SOL    HW1 8259   3.415   6.275   6.905 -0.6384  1.5965 -0.1369
 2525SOL    HW2 8260   3.309   6.237   6.803 -0.1638  2.4029 -0.9429
 2526SOL     OW 8261   6.163   3.105   2.274 -0.3165  0.3169 -0.1969
 2526SOL    HW1 8262   6.127   3.016   2.273 -0.3280  0.3180  0.0148
 2526SOL    HW2 8263   6.258   3.092   2.278 -0.2879  0.3143 -0.7856
 2527SOL     OW 8264   0.471   1.527   2.174  0.0342  0.1485 -0.1094
 2527SOL    HW1 8265   0.405   1.574   2.124 -0.1173 -0.1424 -0.1850
 2527SOL    HW2 8266   0.446   1.435   2.167 -0.4478  0.1526  1.1364
 2528SOL     OW 8267   2.152   3.771   3.557 -0.1937 -0.2715 -0.8671
 2528SOL    HW1 8268   2.172   3.749   3.467 -0.4202  1.6438 -1.4294
 2528SOL    HW2 8269   2.088   3.705   3.584 -0.3644 -0.6807 -2.1929
 2529SOL     OW 8270   2.249   2.858   6.730  0.5952  0.2378  0.5658
 2529SOL    HW1 8271   2.288   2.944   6.746  0.7885  0.1747  0.4371
 2529SOL    HW2 8272   2.161   2.864   6.768  0.4400  0.6472  0.1467
 2530SOL     OW 8273   3.965   2.618   3.030 -0.2945 -0.5630 -0.0221
 2530SOL    HW1 8274   4.030   2.668   2.980 -0.5493  1.7033  1.7548
 2530SOL    HW2 8275   3.971   2.529   2.994  1.2711  0.3578 -2.3067
 2531SOL     OW 8276   4.348   3.427   0.456  0.2513  0.0415 -0.1112
 2531SOL    HW1 8277   4.377   3.518   0.460 -0.3096  0.1913  0.9282
 2531SOL    HW2 8278   4.273   3.427   0.396  0.6005  0.1565 -0.5512
 2532SOL     OW 8279   0.745   6.423   6.176 -0.1194  0.5993  0.2742
 2532SOL    HW1 8280   0.660   6.431   6.218 -0.2609  1.1043 -0.1001
 2532SOL    HW2 8281   0.791   6.503   6.199 -0.8881  1.7875 -2.0434
 2533SOL     OW 8282   1.537   3.841   6.316  0.1387 -0.0388  0.8950
 2533SOL    HW1 8283   1.505   3.927   6.345  0.2107  0.0301  0.7717
 2533SOL    HW2 8284   1.627   3.837   6.347  0.9349  0.9189 -1.1091
 2534SOL     OW 8285   1.270   0.904   1.216  0.2772 -0.5227  0.0045
 2534SOL    HW1 8286   1.330   0.932   1.146  0.2102 -0.4820 -0.0363
 2534SOL    HW2 8287   1.322   0.843   1.269  0.8875  0.7224  0.8976
 2535SOL     OW 8288   6.221   5.446   2.089 -0.4394  0.4620  0.0662
 2535SOL    HW1 8289   6.181   5.530   2.065 -0.9738  0.1172 -0.2803
 2535SOL    HW2 8290   6.269   5.419   2.011 -0.6634  0.2181  0.0111
 2536SOL     OW 8291   4.408   6.667   1.743  0.5029 -0.2650  0.3514
 2536SOL    HW1 8292   4.464   6.671   1.821  1.7427 -3.7928 -0.2182
 2536SOL    HW2 8293   4.465   6.695   1.671 -0.2118  1.5328  0.4234
 2537SOL     OW 8294   1.533   3.614   0.763  0.1677  0.2529 -0.5930
 2537SOL    HW1 8295   1.546   3.525   0.796  0.4089  0.0415 -1.2291
 2537SOL    HW2 8296   1.460   3.606   0.702  0.7612  0.3041 -1.3259
 2538SOL     OW 8297   5.707   4.064   6.469 -0.7292  0.6211 -0.9167
 2538SOL    HW1 8298   5.731   3.972   6.484 -0.8419  0.3604 -2.2447
 2538SOL    HW2 8299   5.782   4.113   6.502 -0.8987  0.0968  0.3165
 2539SOL     OW 8300   5.070   5.854   1.840  0.5447  0.7204 -0.1832
 2539SOL    HW1 8301   5.044   5.946   1.839 -1.2999  0.2455 -1.5844
 2539SOL    HW2 8302   5.017   5.816   1.911  1.9434  0.8625  0.9814
 2540SOL     OW 8303   0.590   5.323   6.559  0.6026  0.0631  0.5446
 2540SOL    HW1 8304   0.675   5.321   6.602  0.6551 -1.8724  0.4666
 2540SOL    HW2 8305   0.537   5.259   6.607 -0.9710  1.5172  0.8487
 2541SOL     OW 8306   3.257   2.626   3.367  0.3205  0.4535 -0.1104
 2541SOL    HW1 8307   3.324   2.625   3.435  0.6552  0.9085 -0.4312
 2541SOL    HW2 8308   3.185   2.573   3.404  0.6361  0.4041  0.4473
 2542SOL     OW 8309   5.741   1.867   3.055 -0.0518  0.5521 -0.3883
 2542SOL    HW1 8310   5.646   1.854   3.065 -0.4802  1.7201 -2.4317
 2542SOL    HW2 8311   5.774   1.784   3.023 -1.0443  1.1246 -3.1882
 2543SOL     OW 8312   1.802   2.889   6.322 -0.4575 -0.2797  0.3865
 2543SOL    HW1 8313   1.828   2.980   6.337 -0.3437 -0.1749 -0.4128
 2543SOL    HW2 8314   1.871   2.852   6.268 -1.2688 -0.3882 -0.6059
 2544SOL     OW 8315   6.120   2.090   6.476  0.0412 -0.1258 -0.3079
 2544SOL    HW1 8316   6.147   2.158   6.415 -0.9167  0.2878 -0.2904
 2544SOL    HW2 8317   6.049   2.044   6.432  1.7827 -2.2877 -1.0604
 2545SOL     OW 8318   2.211   2.848   4.568 -0.4473  0.3250 -0.6227
 2545SOL    HW1 8319   2.301   2.833   4.539 -0.3530 -0.9709  0.2221
 2545SOL    HW2 8320   2.171   2.761   4.566 -1.9944  1.0225 -1.9374
 2546SOL     OW 8321   3.442   2.284   1.852 -0.2884  0.1976  0.3094
 2546SOL    HW1 8322   3.446   2.297   1.947 -3.3041  0.3968  0.4894
 2546SOL    HW2 8323   3.432   2.189   1.841 -1.3960  0.3035  0.3047
 2547SOL     OW 8324   1.945   1.755   4.560  0.1613  0.0812  0.0078
 2547SOL    HW1 8325   1.932   1.665   4.591  0.0756 -0.1611 -0.7127
 2547SOL    HW2 8326   1.857   1.785   4.537  0.0970  0.5875  0.8526
 2548SOL     OW 8327   4.635   5.442   6.408  0.7361  0.5010  0.6935
 2548SOL    HW1 8328   4.587   5.364   6.437 -2.0309  1.1663 -1.6942
 2548SOL    HW2 8329   4.714   5.407   6.367 -2.2015 -1.7227 -3.9822
 2549SOL     OW 8330   3.718   1.743   2.191 -0.0625  0.4153 -0.1658
 2549SOL    HW1 8331   3.640   1.739   2.136 -0.5934  0.3827  0.5911
 2549SOL    HW2 8332   3.749   1.652   2.195 -0.4880  0.2866  0.2522
 2550SOL     OW 8333   2.049   5.155   6.226  0.3108 -0.1212 -0.0385
 2550SOL    HW1 8334   2.071   5.118   6.141  1.0131  0.8544 -0.3055
 2550SOL    HW2 8335   2.047   5.081   6.286 -0.1342 -0.8107 -0.8924
 2551SOL     OW 8336   1.335   6.768   2.413  0.1457 -0.2654 -0.8471
 2551SOL    HW1 8337   1.353   6.686   2.367  0.7410  1.1282 -3.3193
 2551SOL    HW2 8338   1.327   6.833   2.343  1.8631  2.1882  1.0490
 2552SOL     OW 8339   2.216   1.843   4.507  0.5132 -0.8006 -0.2620
 2552SOL    HW1 8340   2.234   1.795   4.588  1.3411 -1.2706 -0.7156
 2552SOL    HW2 8341   2.148   1.906   4.532  1.2059 -0.4985  0.9556
 2553SOL     OW 8342   0.275   3.380   4.106  0.0161 -0.0489 -0.4570
 2553SOL    HW1 8343   0.267   3.475   4.121  2.3028  0.0170  0.8194
 2553SOL    HW2 8344   0.354   3.371   4.053  1.8896 -1.3724  2.3294
 2554SOL     OW 8345   4.998   1.824   2.143  0.3270 -0.4446 -0.5797
 2554SOL    HW1 8346   5.075   1.858   2.098  0.3251  0.6915  0.2268
 2554SOL    HW2 8347   4.966   1.898   2.195 -1.1240 -0.9908 -0.6522
 2555SOL     OW 8348   1.022   4.595   4.420 -0.3212  0.0842  0.1696
 2555SOL    HW1 8349   1.006   4.627   4.331 -2.1807  0.6208  0.6514
 2555SOL    HW2 8350   1.067   4.667   4.463 -0.1053  0.1269 -0.1233
 2556SOL     OW 8351   3.293   6.600   5.616  0.0340  0.2969 -0.1652
 2556SOL    HW1 8352   3.352   6.608   5.691  0.5530 -0.7452 -0.4478
 2556SOL    HW2 8353   3.274   6.691   5.591  1.5764  0.6700 -0.1194
 2557SOL     OW 8354   3.985   1.705   3.493 -0.2738 -0.9484  0.3778
 2557SOL    HW1 8355   3.980   1.680   3.401 -1.0295 -2.1005  0.7027
 2557SOL    HW2 8356   3.974   1.800   3.493 -0.0813 -0.9088 -0.7226
 2558SOL     OW 8357   0.681   1.494   6.888  0.4172 -0.4819 -0.2300
 2558SOL    HW1 8358   0.597   1.495   6.841  0.2493  0.5896  0.0639
 2558SOL    HW2 8359   0.691   1.584   6.920  1.1439 -0.8786  0.6829
 2559SOL     OW 8360   4.935   2.610   6.068 -0.3558  0.5922  0.0993
 2559SOL    HW1 8361   5.000   2.677   6.046 -0.1559 -0.2492 -2.0845
 2559SOL    HW2 8362   4.985   2.529   6.076 -0.9144  0.2493  0.1858
 2560SOL     OW 8363   4.424   6.774   3.033 -0.4977 -0.5641  0.0790
 2560SOL    HW1 8364   4.388   6.844   2.979 -1.5494 -0.9734  0.2139
 2560SOL    HW2 8365   4.518   6.781   3.023 -0.5169  1.5578  0.9374
 2561SOL     OW 8366   3.944   1.394   4.818 -0.0404  0.2533  0.4456
 2561SOL    HW1 8367   4.029   1.391   4.862 -0.3775 -0.4899  1.0606
 2561SOL    HW2 8368   3.961   1.357   4.731 -0.1355 -1.8464  1.2767
 2562SOL     OW 8369   6.692   6.315   5.396 -0.1385 -0.1089 -0.1135
 2562SOL    HW1 8370   6.760   6.263   5.353 -0.0458  1.3929 -1.8734
 2562SOL    HW2 8371   6.611   6.266   5.380  0.1830 -0.6404 -0.1501
 2563SOL     OW 8372   1.059   0.778   5.582 -0.1434 -0.4646  0.1317
 2563SOL    HW1 8373   1.033   0.704   5.638 -0.5533 -1.1068 -0.8915
 2563SOL    HW2 8374   1.029   0.754   5.495  2.3988 -0.4896 -0.8218
 2564SOL     OW 8375   6.029   6.511   6.131 -0.2801 -0.2186  0.7956
 2564SOL    HW1 8376   5.954   6.470   6.088  0.1102  0.1083 -0.2181
 2564SOL    HW2 8377   5.993   6.549   6.211 -1.4188  0.7931 -0.1514
 2565SOL     OW 8378   4.599   2.032   2.229  0.0618  0.2585  0.1586
 2565SOL    HW1 8379   4.666   2.099   2.220  1.1994 -0.6623  1.4096
 2565SOL    HW2 8380   4.529   2.073   2.280  0.5567  0.6137  0.5526
 2566SOL     OW 8381   3.704   1.448   0.745  0.2667  0.4843 -0.3183
 2566SOL    HW1 8382   3.632   1.482   0.798  1.7894  0.9103  1.6012
 2566SOL    HW2 8383   3.742   1.525   0.703 -0.1011  0.3260 -0.9417
 2567SOL     OW 8384   0.467   6.031   4.442 -0.0077  0.3022 -0.1600
 2567SOL    HW1 8385   0.393   6.090   4.452  1.6187  2.0447  2.5295
 2567SOL    HW2 8386   0.529   6.079   4.388  1.8346  1.7993  3.0230
 2568SOL     OW 8387   3.682   5.626   4.470 -0.4017  0.1002  0.3273
 2568SOL    HW1 8388   3.661   5.540   4.507  0.0866 -0.1019  0.1352
 2568SOL    HW2 8389   3.724   5.673   4.541  2.9132 -1.1641 -0.5957
 2569SOL     OW 8390   1.040   3.802   5.082 -0.4392 -0.2137  0.0336
 2569SOL    HW1 8391   0.990   3.853   5.146 -0.7779 -1.5933  0.9327
 2569SOL    HW2 8392   1.015   3.711   5.100  2.1173 -0.9538  0.3164
 2570SOL     OW 8393   4.594   2.292   1.427  0.1224  0.7734  0.2267
 2570SOL    HW1 8394   4.632   2.236   1.494  1.0028  1.1991  0.0917
 2570SOL    HW2 8395   4.669   2.330   1.381 -0.4342  2.3411  0.5489
 2571SOL     OW 8396   2.636   3.778   0.122  0.1346 -0.2330  0.4223
 2571SOL    HW1 8397   2.637   3.688   0.092  2.3625  0.0256 -0.4964
 2571SOL    HW2 8398   2.705   3.781   0.189  0.7589  0.9770 -0.2480
 2572SOL     OW 8399   6.852   1.394   4.584  0.2303  0.4649  0.2565
 2572SOL    HW1 8400   6.880   1.484   4.598  0.8140  0.8643 -2.7481
 2572SOL    HW2 8401   6.904   1.343   4.646  0.4961  2.0932  1.4395
 2573SOL     OW 8402   3.542   3.417   1.424  0.6179 -0.3226 -0.0685
 2573SOL    HW1 8403   3.451   3.388   1.427  0.8218 -1.1169 -1.1588
 2573SOL    HW2 8404   3.546   3.474   1.348  0.8237  0.4849  0.5412
 2574SOL     OW 8405   3.133   1.550   1.797  0.0734 -0.6056  0.2814
 2574SOL    HW1 8406   3.188   1.535   1.720 -0.8540 -1.5168 -0.2457
 2574SOL    HW2 8407   3.143   1.471   1.850 -0.0962 -0.4327  0.5769
 2575SOL     OW 8408   0.730   0.451   5.006 -0.3951 -0.0905 -0.2306
 2575SOL    HW1 8409   0.822   0.448   5.032 -0.5789 -0.4387  0.3780
 2575SOL    HW2 8410   0.732   0.490   4.918  0.3008  0.2062 -0.0882
 2576SOL     OW 8411   4.884   6.501   2.787 -0.2965 -0.5000 -0.0342
 2576SOL    HW1 8412   4.933   6.547   2.855  0.6641  1.0384 -1.6661
 2576SOL    HW2 8413   4.921   6.412   2.787  2.2550  0.4735 -0.8840
 2577SOL     OW 8414   6.325   0.558   4.338 -0.4743  0.1163  0.1199
 2577SOL    HW1 8415   6.264   0.630   4.328  0.2279  0.9257  1.3845
 2577SOL    HW2 8416   6.292   0.490   4.279  0.0613  2.2199 -2.8278
 2578SOL     OW 8417   1.490   5.563   3.285  0.3336 -0.1285  0.3311
 2578SOL    HW1 8418   1.531   5.486   3.244 -2.5515 -1.2595 -0.6514
 2578SOL    HW2 8419   1.401   5.563   3.252  0.0785  3.4695  0.6442
 2579SOL     OW 8420   4.983   2.074   5.931  0.1041  0.2116  0.0133
 2579SOL    HW1 8421   5.002   2.147   5.990  2.4153 -0.9801  0.8819
 2579SOL    HW2 8422   4.904   2.034   5.966  0.9836  0.0218  1.8594
 2580SOL     OW 8423   2.120   3.746   2.479 -0.4169 -0.4333  0.6132
 2580SOL    HW1 8424   2.082   3.665   2.513 -0.0157 -0.9612 -0.1829
 2580SOL    HW2 8425   2.045   3.804   2.467 -1.2148 -1.8693 -2.1152
 2581SOL     OW 8426   5.600   2.505   5.439 -0.0694  0.5803  0.1940
 2581SOL    HW1 8427   5.674   2.552   5.479  0.2210  0.4239 -0.1558
 2581SOL    HW2 8428   5.589   2.546   5.354  0.1946  0.0090 -0.1219
 2582SOL     OW 8429   4.167   5.786   5.268  0.2735 -0.0593  0.6343
 2582SOL    HW1 8430   4.184   5.865   5.318 -2.5629  0.9672  0.2037
 2582SOL    HW2 8431   4.078   5.761   5.294 -0.2275 -1.0687 -1.8071
 2583SOL     OW 8432   0.842   6.530   1.879  0.1550 -0.0209 -0.1312
 2583SOL    HW1 8433   0.846   6.537   1.784 -1.2990 -0.1464 -0.2221
 2583SOL    HW2 8434   0.785   6.454   1.896 -1.6527  1.4484  0.7943
 2584SOL     OW 8435   3.180   2.180   2.962  0.4480 -0.5475  0.3162
 2584SOL    HW1 8436   3.157   2.125   2.887 -2.7942  0.9375  0.0103
 2584SOL    HW2 8437   3.107   2.168   3.023  0.9298  1.4037  1.3543
 2585SOL     OW 8438   1.167   3.121   2.957 -0.1496 -0.0801 -0.8222
 2585SOL    HW1 8439   1.096   3.183   2.939  0.2373 -0.3973 -4.0172
 2585SOL    HW2 8440   1.146   3.044   2.904  0.9679 -1.4944  0.6809
 2586SOL     OW 8441   3.659   2.331   1.682  0.5882 -0.0673 -0.3310
 2586SOL    HW1 8442   3.616   2.333   1.596  1.6506  0.3033 -0.8686
 2586SOL    HW2 8443   3.587   2.335   1.744 -0.1892 -0.0438 -1.2047
 2587SOL     OW 8444   5.254   2.252   4.248  0.1861  0.3620  0.1182
 2587SOL    HW1 8445   5.210   2.300   4.179  0.7559  0.7310  0.0091
 2587SOL    HW2 8446   5.237   2.302   4.328 -0.8694 -0.3158  0.3353
 2588SOL     OW 8447   6.796   3.613   5.368  0.7082  0.1517 -0.2606
 2588SOL    HW1 8448   6.768   3.621   5.459 -0.7447 -0.0310 -0.6706
 2588SOL    HW2 8449   6.839   3.696   5.348 -0.1553  0.7202  0.2034
 2589SOL     OW 8450   5.393   4.297   3.529 -1.1485  0.3277  0.0638
 2589SOL    HW1 8451   5.315   4.252   3.559 -1.2364 -0.8064 -1.7081
 2589SOL    HW2 8452   5.364   4.348   3.453 -0.8112  2.5455  1.3636
 2590SOL     OW 8453   6.451   5.218   4.937  0.1831  0.9492 -0.1305
 2590SOL    HW1 8454   6.512   5.166   4.990 -0.9285  1.2399  1.4783
 2590SOL    HW2 8455   6.404   5.153   4.885  0.9920  0.6278 -0.4903
 2591SOL     OW 8456   5.025   0.748   6.574  0.2906 -0.1239 -0.0285
 2591SOL    HW1 8457   5.114   0.720   6.552  0.4619 -0.4333  1.0037
 2591SOL    HW2 8458   5.034   0.841   6.596  0.0899  0.2320 -1.3530
 2592SOL     OW 8459   6.216   6.219   3.813 -0.5114  0.2723  0.9869
 2592SOL    HW1 8460   6.281   6.242   3.879 -0.2370 -1.6252  1.4250
 2592SOL    HW2 8461   6.217   6.123   3.811 -2.2842  0.2452 -0.0163
 2593SOL     OW 8462   0.864   5.817   5.905 -0.5582 -0.3173 -0.2633
 2593SOL    HW1 8463   0.936   5.866   5.944 -1.0456  1.1391 -1.1060
 2593SOL    HW2 8464   0.891   5.726   5.910  1.2742  0.1844 -0.4073
 2594SOL     OW 8465   2.615   0.881   4.329  0.4625  0.4327 -0.2801
 2594SOL    HW1 8466   2.582   0.940   4.396 -3.0367 -0.4473 -1.0374
 2594SOL    HW2 8467   2.589   0.922   4.246  0.9580 -0.5435 -0.9435
 2595SOL     OW 8468   5.921   2.822   1.984 -0.0868  0.4112  0.4787
 2595SOL    HW1 8469   5.996   2.785   2.029 -0.4146 -1.2250 -0.2538
 2595SOL    HW2 8470   5.940   2.916   1.979  1.7193  0.0838  0.6283
 2596SOL     OW 8471   0.731   2.265   6.774 -0.2566  0.3349 -0.0820
 2596SOL    HW1 8472   0.804   2.251   6.714  0.6651  0.6183  0.9430
 2596SOL    HW2 8473   0.734   2.358   6.795  0.4081 -0.0171  1.5772
 2597SOL     OW 8474   3.143   4.274   0.092 -0.5032 -0.0045  0.2112
 2597SOL    HW1 8475   3.167   4.365   0.108 -2.8615  0.7680 -0.2752
 2597SOL    HW2 8476   3.062   4.278   0.040  0.0193 -2.3880 -0.9506
 2598SOL     OW 8477   6.406   2.695   0.438 -0.3852  0.0396  0.1537
 2598SOL    HW1 8478   6.494   2.670   0.407 -0.3444  1.0445 -0.5990
 2598SOL    HW2 8479   6.378   2.622   0.492  0.1956 -1.0993 -1.0378
 2599SOL     OW 8480   2.797   3.778   3.939 -0.9343 -0.5706  0.3056
 2599SOL    HW1 8481   2.712   3.751   3.904 -1.1918  0.7029 -0.0976
 2599SOL    HW2 8482   2.778   3.813   4.026 -0.6927 -1.0776  0.5682
 2600SOL     OW 8483   3.219   5.662   1.866  0.4088  0.2107 -0.4528
 2600SOL    HW1 8484   3.303   5.708   1.865  1.7887 -2.0312 -2.6662
 2600SOL    HW2 8485   3.183   5.676   1.778 -0.7479 -0.2107 -0.0659
 2601SOL     OW 8486   1.931   3.726   2.262  0.0252  0.1865  0.1183
 2601SOL    HW1 8487   1.948   3.748   2.170 -0.5331  0.4690  0.0787
 2601SOL    HW2 8488   1.994   3.657   2.282  1.4731  1.4711  0.1013
 2602SOL     OW 8489   3.779   3.893   0.635 -0.4092 -0.0189 -0.0191
 2602SOL    HW1 8490   3.685   3.884   0.618 -0.2409  0.4368 -1.3310
 2602SOL    HW2 8491   3.805   3.971   0.586  0.1350  1.6043  2.6582
 2603SOL     OW 8492   4.278   3.242   6.207 -0.0237 -0.5327  0.2835
 2603SOL    HW1 8493   4.232   3.312   6.161  0.2738 -0.6475 -0.1884
 2603SOL    HW2 8494   4.343   3.210   6.145  1.2738  0.1823  1.2259
 2604SOL     OW 8495   1.808   5.833   0.350 -0.7959  0.0552 -0.1159
 2604SOL    HW1 8496   1.755   5.757   0.326  1.6593 -1.2358 -1.8505
 2604SOL    HW2 8497   1.749   5.907   0.339 -2.4250 -1.3318 -1.3232
 2605SOL     OW 8498   3.590   6.347   0.038 -0.3448 -0.1882  0.0094
 2605SOL    HW1 8499   3.619   6.387  -0.044 -2.0626  0.2302 -0.4466
 2605SOL    HW2 8500   3.662   6.291   0.064  0.3010 -0.2451 -1.7419
 2606SOL     OW 8501   5.570   4.703   4.349  0.4292  0.5096 -0.4183
 2606SOL    HW1 8502   5.638   4.641   4.320 -0.2371  0.2429 -1.4790
 2606SOL    HW2 8503   5.557   4.760   4.273  0.1901  1.2098  0.1429
 2607SOL     OW 8504   2.378   1.110   1.207 -0.0430  0.7212  0.0107
 2607SOL    HW1 8505   2.421   1.025   1.217 -2.1435 -0.2447  1.4778
 2607SOL    HW2 8506   2.393   1.133   1.115  0.3165 -1.4050 -0.5208
 2608SOL     OW 8507   1.326   0.098   5.046 -0.4314  0.1069  0.2470
 2608SOL    HW1 8508   1.387   0.138   5.108  0.9145 -1.1847 -0.1987
 2608SOL    HW2 8509   1.274   0.039   5.100  1.7039 -2.1211  0.0378
 2609SOL     OW 8510   5.316   0.309   4.144  0.0866  0.1312 -0.7723
 2609SOL    HW1 8511   5.315   0.218   4.113 -0.4044 -0.2272  0.2684
 2609SOL    HW2 8512   5.284   0.304   4.234 -0.3912  1.3995 -0.8592
 2610SOL     OW 8513   1.948   3.455   4.571  0.1959  0.3629 -0.0578
 2610SOL    HW1 8514   1.864   3.491   4.599  0.9332  0.7045  1.9529
 2610SOL    HW2 8515   1.990   3.526   4.522  0.2588  1.0908  1.0035
 2611SOL     OW 8516   0.605   6.854   0.635  0.7241  0.0711 -0.3639
 2611SOL    HW1 8517   0.533   6.821   0.581  0.8920  1.2884 -1.3612
 2611SOL    HW2 8518   0.623   6.941   0.600 -0.1892  1.5833  2.6147
 2612SOL     OW 8519   4.092   3.623   3.435 -0.3423 -0.2885 -0.3552
 2612SOL    HW1 8520   4.133   3.694   3.385 -0.1569 -0.1145  0.0406
 2612SOL    HW2 8521   4.166   3.570   3.466 -0.4852 -0.7748 -0.8148
 2613SOL     OW 8522   1.960   1.493   2.034 -0.2887  0.3229 -0.6404
 2613SOL    HW1 8523   1.919   1.493   2.120 -1.3498 -1.1364 -1.1204
 2613SOL    HW2 8524   2.017   1.416   2.034 -1.3723 -0.5108 -1.7153
 2614SOL     OW 8525   0.144   1.085   4.405  0.5450  0.1470  0.1153
 2614SOL    HW1 8526   0.055   1.120   4.406  0.3226 -0.3560 -0.8816
 2614SOL    HW2 8527   0.135   0.997   4.371  1.3224 -0.2715  0.9551
 2615SOL     OW 8528   2.424   5.834   2.471 -0.2189 -0.1258 -0.1467
 2615SOL    HW1 8529   2.328   5.838   2.475 -0.2031  0.3585 -0.1814
 2615SOL    HW2 8530   2.453   5.859   2.559 -0.1335 -0.6630 -0.0229
 2616SOL     OW 8531   5.269   4.045   1.454  0.2041 -0.1651 -0.2374
 2616SOL    HW1 8532   5.261   3.979   1.523 -2.1601  1.5400  1.2694
 2616SOL    HW2 8533   5.201   4.024   1.391 -0.6335  0.8352  0.3036
 2617SOL     OW 8534   3.503   6.582   3.026  0.0017  0.1471  0.3051
 2617SOL    HW1 8535   3.424   6.625   2.992 -1.0884 -1.5027  0.6288
 2617SOL    HW2 8536   3.494   6.588   3.122 -0.1548 -0.7574  0.3514
 2618SOL     OW 8537   4.355   0.724   6.671 -0.3012  0.0804 -0.1033
 2618SOL    HW1 8538   4.447   0.741   6.650 -0.0276  0.4355  1.2731
 2618SOL    HW2 8539   4.306   0.766   6.600  0.5862 -0.9326 -1.3898
 2619SOL     OW 8540   0.451   5.006   6.345  0.1630  0.3990 -0.1903
 2619SOL    HW1 8541   0.438   5.075   6.280 -0.5737  0.0333 -0.4450
 2619SOL    HW2 8542   0.436   4.924   6.297 -4.1913  0.1693  1.1333
 2620SOL     OW 8543   0.255   1.538   0.229  0.9085 -0.3677  0.2230
 2620SOL    HW1 8544   0.222   1.593   0.300 -0.8609 -1.0689 -0.0042
 2620SOL    HW2 8545   0.266   1.597   0.155  0.7881 -0.0003  0.4970
 2621SOL     OW 8546   2.524   0.202   0.038 -0.0352 -0.0525  0.3776
 2621SOL    HW1 8547   2.481   0.286   0.024 -0.4624 -0.1039  1.3148
 2621SOL    HW2 8548   2.484   0.144  -0.027  0.9707  0.6893 -0.9453
 2622SOL     OW 8549   0.059   3.346   2.840 -0.2754 -0.6629 -0.0809
 2622SOL    HW1 8550   0.088   3.402   2.768  1.6491 -2.5071 -0.8387
 2622SOL    HW2 8551   0.132   3.348   2.902 -0.5346 -1.6564  0.2673
 2623SOL     OW 8552   0.359   0.677   5.012 -0.0333  0.2598  0.1877
 2623SOL    HW1 8553   0.319   0.690   5.099 -0.0988  0.3149  0.1492
 2623SOL    HW2 8554   0.287   0.690   4.951  0.3431  1.7533  0.0447
 2624SOL     OW 8555   0.328   1.093   0.800 -0.2182 -0.5341 -0.4594
 2624SOL    HW1 8556   0.259   1.048   0.849 -0.9165  0.5402 -0.4281
 2624SOL    HW2 8557   0.375   1.143   0.867  0.3996 -1.0258 -0.5272
 2625SOL     OW 8558   0.118   1.431   1.258  0.1590 -0.1510 -0.1543
 2625SOL    HW1 8559   0.131   1.436   1.163 -1.8691  1.1476 -0.4340
 2625SOL    HW2 8560   0.116   1.523   1.286  1.4766 -0.5228  1.3112
 2626SOL     OW 8561   3.173   4.014   2.066  0.5434  0.6028 -0.1018
 2626SOL    HW1 8562   3.216   4.091   2.028 -0.2360  0.7160 -0.7849
 2626SOL    HW2 8563   3.220   3.998   2.148  0.9959  1.5477 -0.1643
 2627SOL     OW 8564   3.487   6.085   2.259  0.3231  0.8668  0.5833
 2627SOL    HW1 8565   3.517   6.082   2.350  0.5539  0.7455  0.5044
 2627SOL    HW2 8566   3.392   6.077   2.265  0.3778  0.3364  0.7833
 2628SOL     OW 8567   6.110   6.766   2.529 -0.3772  0.3286  0.0874
 2628SOL    HW1 8568   6.056   6.764   2.450 -0.1665  0.8353 -0.0705
 2628SOL    HW2 8569   6.147   6.677   2.534 -1.6596 -0.1977  0.5181
 2629SOL     OW 8570   1.057   2.671   0.577 -0.0577  0.3070 -0.4729
 2629SOL    HW1 8571   1.014   2.700   0.657 -1.3988 -0.3781 -0.9260
 2629SOL    HW2 8572   1.037   2.739   0.513 -0.2351  0.1134 -0.6208
 2630SOL     OW 8573   4.836   1.632   3.907  0.1997  0.4697  0.2040
 2630SOL    HW1 8574   4.850   1.552   3.857 -2.4021  0.1448 -0.1713
 2630SOL    HW2 8575   4.905   1.632   3.974 -0.6641 -3.0167  1.2985
 2631SOL     OW 8576   6.715   0.533   4.256 -0.0805 -0.1385  0.2489
 2631SOL    HW1 8577   6.751   0.496   4.337 -0.1604 -0.6075  0.0744
 2631SOL    HW2 8578   6.639   0.479   4.236 -0.3135  0.2421  0.0874
 2632SOL     OW 8579   4.214   2.723   0.723  0.1768 -0.0241  0.4243
 2632SOL    HW1 8580   4.172   2.666   0.788  1.2391 -0.3673  0.8239
 2632SOL    HW2 8581   4.307   2.700   0.727  1.0438  3.2027  2.1620
 2633SOL     OW 8582   0.461   0.087   1.274 -0.2046 -0.1232  0.1065
 2633SOL    HW1 8583   0.397   0.020   1.248  0.3293 -0.3326 -0.6872
 2633SOL    HW2 8584   0.466   0.145   1.198 -0.6050  0.7842  0.7628
 2634SOL     OW 8585   3.846   4.925   6.603 -0.7660  0.0158 -0.1640
 2634SOL    HW1 8586   3.790   4.848   6.608  0.8384 -1.2427 -0.5391
 2634SOL    HW2 8587   3.873   4.941   6.693 -0.5187 -0.3392 -0.1718
 2635SOL     OW 8588   6.666   3.240   3.215 -0.1164  0.1855 -0.8402
 2635SOL    HW1 8589   6.661   3.333   3.193 -2.2718  0.0203 -1.2956
 2635SOL    HW2 8590   6.581   3.204   3.189  0.4618 -1.8243 -0.2027
 2636SOL     OW 8591   2.323   6.769   1.389  0.0545  0.1317  0.5123
 2636SOL    HW1 8592   2.330   6.796   1.480 -2.1107  0.3665  0.6587
 2636SOL    HW2 8593   2.230   6.750   1.376  0.4585 -0.8588 -1.3863
 2637SOL     OW 8594   4.228   1.732   1.796  0.3084 -0.1824  0.2235
 2637SOL    HW1 8595   4.163   1.679   1.751  1.0052 -0.9326  0.0770
 2637SOL    HW2 8596   4.207   1.721   1.889 -0.0588 -0.0376  0.1597
 2638SOL     OW 8597   1.797   2.571   3.940 -0.1003 -0.1729 -0.0997
 2638SOL    HW1 8598   1.796   2.593   3.847  0.9093 -0.7700 -0.2701
 2638SOL    HW2 8599   1.815   2.477   3.942 -0.5027 -0.2436  0.6907
 2639SOL     OW 8600   0.823   0.131   1.823 -0.1220 -0.4228  0.0828
 2639SOL    HW1 8601   0.807   0.067   1.892 -2.2689  0.6384  0.6654
 2639SOL    HW2 8602   0.843   0.078   1.745  0.8790 -1.6692  1.1371
 2640SOL     OW 8603   5.018   4.204   5.153  0.0010 -0.0223  0.0288
 2640SOL    HW1 8604   5.082   4.229   5.220  0.8802 -2.2136  0.1189
 2640SOL    HW2 8605   4.963   4.281   5.142  0.1278  0.5971  2.9088
 2641SOL     OW 8606   5.816   2.893   1.336  0.2702  0.3611 -0.7015
 2641SOL    HW1 8607   5.796   2.861   1.424  0.8896  2.4348  0.2426
 2641SOL    HW2 8608   5.753   2.848   1.279 -0.6440 -0.4419  0.8773
 2642SOL     OW 8609   5.717   5.540   5.510 -0.3426 -0.5960  0.2096
 2642SOL    HW1 8610   5.755   5.604   5.449 -0.2231 -0.6094  0.2692
 2642SOL    HW2 8611   5.793   5.496   5.548 -0.4558 -2.0918 -1.2120
 2643SOL     OW 8612   3.750   4.971   6.123  0.5793 -0.0462  0.1682
 2643SOL    HW1 8613   3.738   5.049   6.178 -1.2220  0.2598 -0.5890
 2643SOL    HW2 8614   3.845   4.961   6.117  0.8623  1.9165  0.5354
 2644SOL     OW 8615   1.880   4.329   6.790 -0.1392  0.5509  0.1759
 2644SOL    HW1 8616   1.894   4.344   6.697 -1.2333 -0.5233 -0.1930
 2644SOL    HW2 8617   1.877   4.416   6.829 -1.9533  1.1455 -1.1616
 2645SOL     OW 8618   6.120   4.772   1.958  0.1443  0.1203  0.7449
 2645SOL    HW1 8619   6.090   4.728   2.037 -0.0000  0.8335  1.0967
 2645SOL    HW2 8620   6.140   4.701   1.897 -0.4994 -0.4175  1.1425
 2646SOL     OW 8621   5.230   5.877   1.339  0.3347 -0.2194  0.4668
 2646SOL    HW1 8622   5.282   5.957   1.331  1.6947 -1.0932  0.2881
 2646SOL    HW2 8623   5.248   5.829   1.258 -0.9251 -0.4531  0.3115
 2647SOL     OW 8624   1.920   3.025   3.339  0.3225 -0.0441 -0.2163
 2647SOL    HW1 8625   1.980   3.057   3.407  0.2332 -0.0156 -0.1505
 2647SOL    HW2 8626   1.975   3.014   3.261  0.0595  1.8445 -0.7224
 2648SOL     OW 8627   2.143   5.372   1.462  0.0620 -0.2135  0.1580
 2648SOL    HW1 8628   2.217   5.320   1.495 -0.4122 -0.4571  0.8608
 2648SOL    HW2 8629   2.066   5.330   1.499 -0.5585 -0.8464 -1.7795
 2649SOL     OW 8630   5.153   2.664   3.976 -0.7726  0.1286 -0.3864
 2649SOL    HW1 8631   5.106   2.724   4.033 -0.4694 -0.6569  0.7226
 2649SOL    HW2 8632   5.226   2.632   4.029 -0.0912 -0.1265 -1.4374
 2650SOL     OW 8633   0.853   5.668   3.577 -0.2175 -0.0856 -0.1508
 2650SOL    HW1 8634   0.805   5.745   3.547  1.5136  0.5783 -1.3923
 2650SOL    HW2 8635   0.891   5.631   3.497  1.7275 -0.2586  0.7856
 2651SOL     OW 8636   0.516   5.932   0.355 -0.4336  0.5144 -0.4102
 2651SOL    HW1 8637   0.561   6.015   0.340 -1.2836  1.0804  0.1332
 2651SOL    HW2 8638   0.433   5.940   0.307  0.2905 -0.7998 -2.0044
 2652SOL     OW 8639   5.164   4.262   1.737  0.3829  0.0941 -0.1414
 2652SOL    HW1 8640   5.192   4.267   1.646 -0.1903 -1.0613 -0.4046
 2652SOL    HW2 8641   5.244   4.273   1.788  0.8586 -0.2082 -0.8114
 2653SOL     OW 8642   3.852   4.056   1.928 -0.0269  0.2491  0.3764
 2653SOL    HW1 8643   3.862   4.055   2.024 -0.7697  2.6080  0.5403
 2653SOL    HW2 8644   3.760   4.077   1.914  0.4015  1.4203 -0.8400
 2654SOL     OW 8645   1.901   4.449   1.640  0.6852  0.0844  0.0480
 2654SOL    HW1 8646   1.968   4.512   1.666  0.1400  0.3726  0.7965
 2654SOL    HW2 8647   1.929   4.366   1.679 -0.1273  0.5108  1.6672
 2655SOL     OW 8648   5.888   3.760   0.638  0.0805 -0.3432  0.4014
 2655SOL    HW1 8649   5.860   3.707   0.713 -4.2796 -0.8074 -1.2645
 2655SOL    HW2 8650   5.926   3.697   0.577  0.3947 -0.5545  0.8117
 2656SOL     OW 8651   2.344   6.025   1.017 -0.7369 -0.2016  0.2129
 2656SOL    HW1 8652   2.376   6.095   0.960 -2.1707  0.5539  0.3129
 2656SOL    HW2 8653   2.336   6.066   1.103  2.1359 -1.5178  1.2550
 2657SOL     OW 8654   4.378   6.077   1.917 -0.4738 -0.1804  0.7787
 2657SOL    HW1 8655   4.461   6.079   1.965 -0.6136 -0.4846  1.0379
 2657SOL    HW2 8656   4.311   6.075   1.985 -0.7246  0.9279  0.5728
 2658SOL     OW 8657   0.362   2.915   2.078  0.1793  0.0120 -0.6880
 2658SOL    HW1 8658   0.447   2.879   2.105  0.3028  0.3756 -0.5717
 2658SOL    HW2 8659   0.362   2.908   1.983  0.8043  0.9893 -0.7764
 2659SOL     OW 8660   6.897   6.079   3.473 -0.5989  0.2317  0.5302
 2659SOL    HW1 8661   6.895   5.986   3.494 -1.2828  0.4249  1.4166
 2659SOL    HW2 8662   6.963   6.116   3.532 -2.6113  0.7979  2.5724
 2660SOL     OW 8663   5.259   3.097   4.013  0.1706 -0.3199  0.3462
 2660SOL    HW1 8664   5.219   3.177   4.048 -0.4214 -0.8079  0.8239
 2660SOL    HW2 8665   5.322   3.127   3.948 -0.8330  0.5035 -0.2839
 2661SOL     OW 8666   4.246   2.677   4.342 -0.2182  1.0939  0.3855
 2661SOL    HW1 8667   4.245   2.715   4.254  1.9855 -1.1063 -0.6880
 2661SOL    HW2 8668   4.157   2.647   4.357 -1.0635  3.1139 -0.2917
 2662SOL     OW 8669   0.735   0.282   6.088 -0.4389  0.2430 -0.8783
 2662SOL    HW1 8670   0.643   0.255   6.090 -0.6408  0.9438  0.4881
 2662SOL    HW2 8671   0.763   0.280   6.180  0.3064  2.0241 -1.0160
 2663SOL     OW 8672   2.827   2.400   1.418 -0.2766  0.4926 -0.1463
 2663SOL    HW1 8673   2.746   2.350   1.414 -0.8754  1.4164 -0.0537
 2663SOL    HW2 8674   2.897   2.334   1.420 -1.0675 -0.3419  0.9780
 2664SOL     OW 8675   1.244   0.522   0.000 -0.5259 -0.3522  0.0542
 2664SOL    HW1 8676   1.290   0.438   0.006  0.0876  0.0050  0.4274
 2664SOL    HW2 8677   1.307   0.582  -0.038 -0.8133  0.0500  0.2033
 2665SOL     OW 8678   3.050   0.818   0.526 -0.4796 -0.1579 -0.2364
 2665SOL    HW1 8679   3.032   0.780   0.612 -0.2575 -1.1658 -0.6183
 2665SOL    HW2 8680   2.971   0.801   0.475  0.4874 -2.3447 -1.1438
 2666SOL     OW 8681   5.490   1.042   0.868  0.7901 -0.3560 -0.0680
 2666SOL    HW1 8682   5.426   1.078   0.806  1.5868  1.3442  0.0606
 2666SOL    HW2 8683   5.437   0.991   0.929 -0.3182  0.1279 -0.5979
 2667SOL     OW 8684   0.197   6.760   2.910 -0.1343  0.3160  0.2078
 2667SOL    HW1 8685   0.171   6.716   2.829 -1.0017  1.9152 -0.4460
 2667SOL    HW2 8686   0.240   6.693   2.962 -1.6977 -1.3602 -0.5757
 2668SOL     OW 8687   6.568   3.211   6.842 -0.0883  0.1667  0.2792
 2668SOL    HW1 8688   6.611   3.149   6.783  1.6768  1.4452  0.1374
 2668SOL    HW2 8689   6.594   3.183   6.929  0.5750  0.5762  0.2230
 2669SOL     OW 8690   1.386   2.860   2.914  0.1141 -0.7838  0.5119
 2669SOL    HW1 8691   1.343   2.835   2.832  1.4616  0.3575 -0.6192
 2669SOL    HW2 8692   1.339   2.813   2.982 -2.7427  0.1796 -0.6309
 2670SOL     OW 8693   5.240   0.633   0.122  0.1953  0.0631  0.4099
 2670SOL    HW1 8694   5.179   0.698   0.087  0.8745  1.2814  1.4560
 2670SOL    HW2 8695   5.322   0.680   0.133  1.6013 -1.7118 -1.6398
 2671SOL     OW 8696   4.323   4.595   2.981 -0.2430 -0.5432  0.1245
 2671SOL    HW1 8697   4.280   4.665   2.932  1.6228  0.7720  0.2495
 2671SOL    HW2 8698   4.317   4.518   2.925 -0.0436  0.3868 -1.1988
 2672SOL     OW 8699   5.072   5.009   2.650 -0.5225  0.2951  0.1584
 2672SOL    HW1 8700   5.050   4.934   2.705 -1.0306 -0.1222 -0.5948
 2672SOL    HW2 8701   5.007   5.075   2.673  0.2927  0.7413  1.2578
 2673SOL     OW 8702   2.385   6.731   2.542  0.3191  0.1015 -0.0716
 2673SOL    HW1 8703   2.347   6.654   2.497 -0.5964  0.6288 -0.2347
 2673SOL    HW2 8704   2.311   6.792   2.550  1.4054  1.6818 -1.4910
 2674SOL     OW 8705   3.213   0.703   1.314  0.6522 -0.1167 -0.5855
 2674SOL    HW1 8706   3.120   0.722   1.304  0.2764 -0.4113  1.9192
 2674SOL    HW2 8707   3.257   0.776   1.269 -0.7654  0.6932 -0.7053
 2675SOL     OW 8708   2.411   1.755   5.533 -0.3133 -0.4220  0.6738
 2675SOL    HW1 8709   2.361   1.765   5.452  1.6582 -0.7644 -0.6535
 2675SOL    HW2 8710   2.400   1.839   5.578 -0.2889  0.3177 -0.6525
 2676SOL     OW 8711   2.171   3.277   4.424 -0.3616  0.2188 -0.3766
 2676SOL    HW1 8712   2.117   3.213   4.378 -1.0030  1.0387 -0.7970
 2676SOL    HW2 8713   2.108   3.331   4.472  0.1975  0.2723  0.3160
 2677SOL     OW 8714   4.253   2.590   5.889 -0.0580  0.0214 -0.1368
 2677SOL    HW1 8715   4.202   2.650   5.944 -0.0463 -0.1951  0.1102
 2677SOL    HW2 8716   4.223   2.609   5.800 -1.3695 -0.8600  0.0881
 2678SOL     OW 8717   4.625   6.789   5.734  0.0878 -0.1245  0.0211
 2678SOL    HW1 8718   4.616   6.817   5.825  0.0729 -0.1473  0.0266
 2678SOL    HW2 8719   4.705   6.832   5.703 -0.4405  0.6724 -0.2552
 2679SOL     OW 8720   5.282   5.968   0.204  0.5465 -0.1122  1.3831
 2679SOL    HW1 8721   5.261   5.874   0.203 -1.1849  0.1747 -1.4350
 2679SOL    HW2 8722   5.201   6.010   0.234  0.8908  0.5169  1.4369
 2680SOL     OW 8723   1.979   5.277   2.282  0.3125 -0.6764  0.5300
 2680SOL    HW1 8724   2.067   5.313   2.284  1.1329 -2.4589 -0.8256
 2680SOL    HW2 8725   1.974   5.230   2.199 -1.6463 -1.2845  0.9393
 2681SOL     OW 8726   2.361   1.389   6.663 -0.5167  0.0612  0.2144
 2681SOL    HW1 8727   2.404   1.466   6.700 -0.1383  0.6339 -1.3476
 2681SOL    HW2 8728   2.311   1.423   6.589  2.0870 -1.5220 -2.4960
 2682SOL     OW 8729   3.262   5.312   0.720 -0.1142 -0.3486 -0.0432
 2682SOL    HW1 8730   3.190   5.250   0.707 -0.0066 -0.2589 -1.1482
 2682SOL    HW2 8731   3.275   5.314   0.815 -0.3664 -1.7203  0.0351
 2683SOL     OW 8732   5.245   0.109   1.482  0.6720  0.0972  0.1054
 2683SOL    HW1 8733   5.215   0.074   1.397  1.8298 -0.5639 -0.0561
 2683SOL    HW2 8734   5.238   0.034   1.541  1.8028 -0.0261  0.1001
 2684SOL     OW 8735   0.336   5.793   2.426 -0.1389  0.2523 -0.1434
 2684SOL    HW1 8736   0.331   5.834   2.513  0.2741 -0.0418  0.0254
 2684SOL    HW2 8737   0.332   5.866   2.365  1.5261  0.6524  0.1728
 2685SOL     OW 8738   0.589   1.060   6.170 -0.2590  0.5127 -0.1995
 2685SOL    HW1 8739   0.548   1.146   6.161 -0.7444  0.1346 -1.9926
 2685SOL    HW2 8740   0.603   1.030   6.080 -1.7814 -2.0758  0.3136
 2686SOL     OW 8741   3.062   1.315   0.685 -0.2608  0.0214  0.1465
 2686SOL    HW1 8742   3.056   1.229   0.644  0.1606  0.5267 -1.0087
 2686SOL    HW2 8743   3.102   1.371   0.619 -1.4437  1.3628  0.5037
 2687SOL     OW 8744   2.151   0.625   0.491  0.0637 -0.0015  0.0444
 2687SOL    HW1 8745   2.118   0.608   0.402 -0.6101  0.3843  0.2147
 2687SOL    HW2 8746   2.242   0.653   0.477 -0.0154 -0.0056 -0.5213
 2688SOL     OW 8747   6.194   6.818   1.973 -0.0834  0.0649 -0.2532
 2688SOL    HW1 8748   6.194   6.852   2.062  1.4343 -0.9190  0.1625
 2688SOL    HW2 8749   6.253   6.875   1.925 -1.5957  1.1530 -0.9084
 2689SOL     OW 8750   5.171   6.086   6.298 -0.7672  0.0326 -0.2643
 2689SOL    HW1 8751   5.095   6.093   6.240 -1.0843 -0.2933  0.1043
 2689SOL    HW2 8752   5.223   6.015   6.261 -0.7251  0.1440 -0.4208
 2690SOL     OW 8753   4.683   6.067   2.616  0.4159  0.3096 -0.1930
 2690SOL    HW1 8754   4.596   6.091   2.648  0.0925 -0.1582 -0.7021
 2690SOL    HW2 8755   4.678   6.077   2.521  0.6216 -0.6170 -0.3110
 2691SOL     OW 8756   4.414   5.649   1.598  0.3404  0.6597 -0.2972
 2691SOL    HW1 8757   4.364   5.629   1.677  0.2300 -0.4499 -0.6386
 2691SOL    HW2 8758   4.443   5.564   1.565  0.0466  1.0581 -1.6596
 2692SOL     OW 8759   0.311   5.124   5.867 -0.0425  0.7219  0.4514
 2692SOL    HW1 8760   0.311   5.139   5.961 -0.0237  1.2914  0.3634
 2692SOL    HW2 8761   0.361   5.043   5.856  0.4060  0.9327  0.8904
 2693SOL     OW 8762   2.717   1.147   5.641  0.2433  0.3012 -0.2176
 2693SOL    HW1 8763   2.642   1.154   5.700  0.8877  0.0608  0.6613
 2693SOL    HW2 8764   2.738   1.054   5.639  0.4246  0.3462 -0.5837
 2694SOL     OW 8765   3.095   1.313   2.227 -0.1483  0.0338 -0.0063
 2694SOL    HW1 8766   3.177   1.290   2.269 -0.0308  0.5320  0.0438
 2694SOL    HW2 8767   3.035   1.243   2.251 -0.1169  0.3720  1.1036
 2695SOL     OW 8768   6.107   0.232   0.328  0.3821 -0.1631  0.1743
 2695SOL    HW1 8769   6.083   0.190   0.411  1.3002 -1.3315 -0.1182
 2695SOL    HW2 8770   6.024   0.260   0.290 -0.2081 -1.1579  0.6857
 2696SOL     OW 8771   5.398   3.560   0.395  0.2142  0.0518 -0.0399
 2696SOL    HW1 8772   5.404   3.466   0.376  1.6882  0.1447 -0.1185
 2696SOL    HW2 8773   5.449   3.572   0.475  0.8993  0.9384 -0.5935
 2697SOL     OW 8774   1.548   1.064   6.709 -0.4578 -0.1296  0.0176
 2697SOL    HW1 8775   1.536   1.155   6.736  0.0962  0.0676 -0.3700
 2697SOL    HW2 8776   1.534   1.013   6.788  1.4999  0.4564  0.8029
 2698SOL     OW 8777   1.031   4.752   6.191  0.1444 -0.0733 -0.4203
 2698SOL    HW1 8778   1.005   4.711   6.274  0.1490 -0.7733 -0.7572
 2698SOL    HW2 8779   1.070   4.835   6.217  1.1835 -0.7845  0.3667
 2699SOL     OW 8780   5.162   0.548   1.454  0.6743 -0.1828  0.0803
 2699SOL    HW1 8781   5.102   0.564   1.381  1.2659  1.9452  0.0054
 2699SOL    HW2 8782   5.108   0.558   1.532  0.7326  0.9858 -0.0089
 2700SOL     OW 8783   6.862   6.186   4.705 -0.0762 -0.0382 -0.2742
 2700SOL    HW1 8784   6.803   6.111   4.705 -0.0676 -0.0474  0.1659
 2700SOL    HW2 8785   6.944   6.153   4.742  0.4255 -0.1895 -1.4807
 2701SOL     OW 8786   0.669   6.600   6.851  0.5943 -0.2239 -0.3694
 2701SOL    HW1 8787   0.658   6.537   6.780 -0.6311  0.7673 -1.1076
 2701SOL    HW2 8788   0.708   6.677   6.810  0.2618  0.2090  0.1118
 2702SOL     OW 8789   6.515   4.015   2.872  0.5856  0.2785  0.2232
 2702SOL    HW1 8790   6.599   3.991   2.914 -0.1833 -0.4217  1.4313
 2702SOL    HW2 8791   6.450   3.966   2.921 -0.3138 -1.4658 -2.4887
 2703SOL     OW 8792   5.280   3.422   4.535 -0.2536  0.0518  0.0456
 2703SOL    HW1 8793   5.254   3.484   4.603  1.4915  1.0729 -0.1781
 2703SOL    HW2 8794   5.306   3.343   4.584 -1.4211 -0.1468  0.3855
 2704SOL     OW 8795   2.956   4.116   3.764  0.1106  0.5648 -0.0742
 2704SOL    HW1 8796   2.986   4.090   3.852  1.3208  1.4182 -0.2116
 2704SOL    HW2 8797   2.874   4.067   3.752 -0.4127  0.8816  1.7683
 2705SOL     OW 8798   0.826   1.066   0.592  0.0040 -0.3304  0.3125
 2705SOL    HW1 8799   0.795   1.132   0.529  0.8771 -1.0571 -0.9130
 2705SOL    HW2 8800   0.745   1.028   0.628 -0.5911 -1.5158 -2.1075
 2706SOL     OW 8801   5.575   3.135   0.545 -0.3111  0.5662 -0.3144
 2706SOL    HW1 8802   5.537   3.094   0.467 -0.4582 -0.8162  0.4437
 2706SOL    HW2 8803   5.630   3.067   0.583  1.3496  1.8807 -0.2799
 2707SOL     OW 8804   1.296   2.487   3.979  0.9877 -0.0504  0.1129
 2707SOL    HW1 8805   1.289   2.524   4.067  0.1494  0.4108 -0.1339
 2707SOL    HW2 8806   1.255   2.401   3.985  0.0906  0.3530 -0.0232
 2708SOL     OW 8807   1.172   4.238   5.930 -0.2051 -0.0743  0.0412
 2708SOL    HW1 8808   1.083   4.270   5.945 -0.6349 -0.3907 -1.6263
 2708SOL    HW2 8809   1.163   4.175   5.858  1.3293 -0.3192  0.0330
 2709SOL     OW 8810   4.269   2.685   2.488 -0.3176 -0.4272  0.5150
 2709SOL    HW1 8811   4.187   2.641   2.512 -0.6146  0.3455  0.9451
 2709SOL    HW2 8812   4.305   2.714   2.572  0.9233 -1.6419  0.4408
 2710SOL     OW 8813   2.551   1.914   3.753  0.5909 -0.4485  0.2482
 2710SOL    HW1 8814   2.549   2.009   3.736 -1.3714 -0.7121 -1.4451
 2710SOL    HW2 8815   2.512   1.905   3.840 -0.0296  0.2614  0.0584
 2711SOL     OW 8816   2.092   0.887   3.869  0.1901  0.5031 -0.1575
 2711SOL    HW1 8817   2.179   0.849   3.879 -0.4183 -0.7802  0.4884
 2711SOL    HW2 8818   2.101   0.977   3.901  1.2472  0.3661 -0.0400
 2712SOL     OW 8819   5.111   6.347   0.634  0.2775  0.9611  0.4679
 2712SOL    HW1 8820   5.094   6.394   0.715  1.5587 -0.1670  1.4296
 2712SOL    HW2 8821   5.181   6.397   0.592  2.3774 -0.5242  1.9873
 2713SOL     OW 8822   3.687   5.768   6.380 -0.3505 -0.0701  0.2551
 2713SOL    HW1 8823   3.704   5.677   6.356 -1.0245 -0.4758  1.2442
 2713SOL    HW2 8824   3.597   5.768   6.414 -0.5653  1.0708 -0.2551
 2714SOL     OW 8825   6.085   0.876   5.507 -0.6606 -0.4526  0.2911
 2714SOL    HW1 8826   6.163   0.832   5.540 -0.5950 -0.9958 -0.5660
 2714SOL    HW2 8827   6.042   0.811   5.451 -0.7091  0.4597 -0.7666
 2715SOL     OW 8828   4.359   5.115   5.896 -0.2094  0.2019 -0.4454
 2715SOL    HW1 8829   4.441   5.101   5.849 -0.0767 -1.1985  0.1710
 2715SOL    HW2 8830   4.341   5.032   5.940 -0.8426  1.1499  1.1891
 2716SOL     OW 8831   0.458   0.779   6.405  0.0531  0.8776 -0.1299
 2716SOL    HW1 8832   0.500   0.789   6.491 -0.7708  2.8162  0.1024
 2716SOL    HW2 8833   0.365   0.789   6.423 -0.1725  0.7480 -1.1850
 2717SOL     OW 8834   1.014   2.396   3.581 -0.6545 -0.0771 -0.3370
 2717SOL    HW1 8835   0.966   2.438   3.652 -1.2224  0.4235 -0.9951
 2717SOL    HW2 8836   0.948   2.345   3.534 -0.1520 -0.9684 -0.0997
 2718SOL     OW 8837   2.973   0.436   3.300 -0.2064 -0.6702 -0.5344
 2718SOL    HW1 8838   2.894   0.384   3.287  0.7908 -2.3318 -0.3234
 2718SOL    HW2 8839   2.958   0.482   3.382 -0.8515 -1.1790 -0.3563
 2719SOL     OW 8840   3.695   3.745   4.215  0.6346  0.2891  0.2199
 2719SOL    HW1 8841   3.769   3.685   4.205  1.0976  0.0590  3.7701
 2719SOL    HW2 8842   3.736   3.830   4.232  0.1049  0.2949  1.5508
 2720SOL     OW 8843   3.267   0.474   5.428 -0.4420 -0.1971  0.2538
 2720SOL    HW1 8844   3.206   0.545   5.407 -0.4327 -0.0921  0.5812
 2720SOL    HW2 8845   3.349   0.518   5.449 -0.1426 -0.3561 -0.5535
 2721SOL     OW 8846   3.653   2.668   4.596 -0.0723  0.0557  0.2040
 2721SOL    HW1 8847   3.625   2.689   4.507 -0.0059  1.0851  0.4127
 2721SOL    HW2 8848   3.577   2.686   4.651  0.0258 -0.1498  0.4102
 2722SOL     OW 8849   1.210   3.665   4.007 -0.1093 -0.1990  0.2580
 2722SOL    HW1 8850   1.132   3.611   4.022  0.9679 -1.1945  2.8581
 2722SOL    HW2 8851   1.235   3.646   3.917 -0.9388 -2.5406  0.4529
 2723SOL     OW 8852   2.928   2.871   2.371  0.0397 -0.4081  0.2973
 2723SOL    HW1 8853   2.924   2.952   2.321 -1.1847  0.1156  1.1925
 2723SOL    HW2 8854   3.021   2.854   2.383  0.3097  0.9506  0.2253
 2724SOL     OW 8855   3.022   3.800   3.337  0.2478 -0.3690  0.1703
 2724SOL    HW1 8856   2.955   3.734   3.354  0.4398 -0.7465 -0.5160
 2724SOL    HW2 8857   3.062   3.817   3.423 -1.0250  0.2062  0.6749
 2725SOL     OW 8858   4.228   6.262   4.709  0.1170 -0.6466 -0.1402
 2725SOL    HW1 8859   4.224   6.281   4.803  1.0456 -0.7055 -0.0745
 2725SOL    HW2 8860   4.265   6.174   4.704  0.9276 -0.2954 -0.5720
 2726SOL     OW 8861   6.576   0.647   2.953 -0.0337 -0.6247 -0.1510
 2726SOL    HW1 8862   6.630   0.709   2.904 -0.5699  0.9235  1.1409
 2726SOL    HW2 8863   6.542   0.588   2.886 -1.0669  1.6509 -1.7522
 2727SOL     OW 8864   1.290   3.939   5.118 -0.0059  0.1580  0.2066
 2727SOL    HW1 8865   1.258   4.008   5.060 -0.1828 -2.0827 -2.5890
 2727SOL    HW2 8866   1.214   3.883   5.134  0.0656  0.6428  2.6515
 2728SOL     OW 8867   6.703   2.758   2.635  0.3379 -0.0797  0.2522
 2728SOL    HW1 8868   6.769   2.790   2.697 -1.3146  1.1430  1.4972
 2728SOL    HW2 8869   6.663   2.683   2.680  0.3451 -0.3267 -0.1491
 2729SOL     OW 8870   4.109   1.503   6.041  0.0053  0.4550 -0.0010
 2729SOL    HW1 8871   4.023   1.466   6.021 -0.3886  0.8341  0.9568
 2729SOL    HW2 8872   4.093   1.567   6.109  1.2997 -0.8048  1.5909
 2730SOL     OW 8873   4.809   2.921   5.782 -0.4368 -0.4369  0.1419
 2730SOL    HW1 8874   4.759   3.000   5.804 -0.4034 -0.4974  0.4352
 2730SOL    HW2 8875   4.883   2.921   5.842  0.3411  0.0457 -0.7754
 2731SOL     OW 8876   5.284   6.872   5.573 -0.2528  0.2982  0.6762
 2731SOL    HW1 8877   5.255   6.816   5.645 -0.2276  0.1026  0.5358
 2731SOL    HW2 8878   5.331   6.944   5.615  1.1524 -0.6484  0.7605
 2732SOL     OW 8879   6.163   3.503   5.659  0.1986  0.3010 -0.3957
 2732SOL    HW1 8880   6.085   3.477   5.610  0.2941  2.0566 -1.5570
 2732SOL    HW2 8881   6.153   3.597   5.673 -0.4644 -0.2290  4.2267
 2733SOL     OW 8882   0.745   2.575   3.511  0.0545  0.0592  0.8434
 2733SOL    HW1 8883   0.664   2.598   3.466 -0.0177 -0.0682  0.9071
 2733SOL    HW2 8884   0.720   2.506   3.572  0.7233 -1.9821 -1.0769
 2734SOL     OW 8885   6.129   2.386   4.082  0.4796 -0.5886  0.0846
 2734SOL    HW1 8886   6.141   2.418   4.171  0.9612 -0.8359  0.1124
 2734SOL    HW2 8887   6.077   2.453   4.039 -1.1366 -1.1793  0.9955
 2735SOL     OW 8888   0.996   4.743   4.200  0.1401  0.3087 -0.0301
 2735SOL    HW1 8889   1.053   4.816   4.221  0.5620 -0.1537  0.4640
 2735SOL    HW2 8890   0.912   4.783   4.179  0.4442  0.9459 -0.0408
 2736SOL     OW 8891   4.818   4.483   2.217 -0.5005  0.1083 -0.3717
 2736SOL    HW1 8892   4.753   4.505   2.150  0.4110  2.5068 -0.5720
 2736SOL    HW2 8893   4.882   4.429   2.171 -1.3125 -0.6248 -0.6736
 2737SOL     OW 8894   5.138   0.555   3.380 -0.8087 -0.0722 -0.2579
 2737SOL    HW1 8895   5.083   0.478   3.396  0.2491 -0.9012 -0.5494
 2737SOL    HW2 8896   5.136   0.567   3.285 -0.7336  0.0921 -0.2404
 2738SOL     OW 8897   4.101   3.485   5.652  0.0184  0.2840  0.0218
 2738SOL    HW1 8898   4.051   3.405   5.636 -0.2532  0.5140 -0.2845
 2738SOL    HW2 8899   4.108   3.526   5.566  3.3471 -1.2473 -0.6131
 2739SOL     OW 8900   4.413   6.402   2.090 -0.0191  0.0522  0.4852
 2739SOL    HW1 8901   4.366   6.321   2.106 -0.4990 -0.0247 -1.1164
 2739SOL    HW2 8902   4.494   6.375   2.047 -0.6148  0.4307 -0.9547
 2740SOL     OW 8903   3.874   6.420   4.589  0.8171  0.0124 -0.2974
 2740SOL    HW1 8904   3.900   6.467   4.669 -1.9633 -0.0832  0.7780
 2740SOL    HW2 8905   3.883   6.484   4.519  0.4183  1.0936  0.6007
 2741SOL     OW 8906   3.252   4.966   5.981 -0.3916  0.2227  0.3050
 2741SOL    HW1 8907   3.260   5.021   5.903 -1.7090 -1.5955 -1.2080
 2741SOL    HW2 8908   3.336   4.975   6.025  0.7641  0.5906 -1.8170
 2742SOL     OW 8909   2.846   2.446   2.251  0.3152  0.2532  0.2905
 2742SOL    HW1 8910   2.791   2.375   2.283 -1.2313  0.0993 -2.3758
 2742SOL    HW2 8911   2.923   2.402   2.214 -0.7865 -0.1552 -1.6445
 2743SOL     OW 8912   2.005   2.966   3.078  0.3014  0.2826 -0.3100
 2743SOL    HW1 8913   2.050   2.884   3.093  0.5466  0.2695 -1.0840
 2743SOL    HW2 8914   1.973   2.960   2.988 -1.2655  0.2831  0.2124
 2744SOL     OW 8915   4.504   6.744   4.718 -0.2238 -0.3755 -0.1506
 2744SOL    HW1 8916   4.471   6.820   4.766 -0.9319  0.4791 -1.8964
 2744SOL    HW2 8917   4.436   6.678   4.729 -0.6823  0.0338 -0.4830
 2745SOL     OW 8918   4.953   5.445   1.806  0.1616 -0.2201 -0.1056
 2745SOL    HW1 8919   4.865   5.426   1.841  0.2340  0.6465  0.5832
 2745SOL    HW2 8920   4.937   5.478   1.718 -0.1706 -0.4886 -0.1505
 2746SOL     OW 8921   6.625   3.742   4.368 -0.4137  0.0275 -0.0589
 2746SOL    HW1 8922   6.530   3.733   4.362 -0.6970  2.6604 -1.0159
 2746SOL    HW2 8923   6.659   3.653   4.356 -2.7551 -1.1284  1.3563
 2747SOL     OW 8924   5.040   1.035   6.596  0.1734 -0.1118  0.0385
 2747SOL    HW1 8925   5.044   1.068   6.686  0.1642 -1.1585  0.4301
 2747SOL    HW2 8926   4.957   1.069   6.562  0.6198  1.0911  0.0879
 2748SOL     OW 8927   3.188   3.285   5.703  0.4260  0.3944 -0.3833
 2748SOL    HW1 8928   3.152   3.352   5.645  0.1894  1.1367  0.5755
 2748SOL    HW2 8929   3.183   3.204   5.653  0.2658  1.0121 -1.3991
 2749SOL     OW 8930   5.151   6.401   5.616 -0.3464  0.1520  0.4461
 2749SOL    HW1 8931   5.175   6.489   5.645  0.0931  0.1236  0.1828
 2749SOL    HW2 8932   5.161   6.347   5.694 -1.1749  0.4301  0.7532
 2750SOL     OW 8933   3.619   5.560   6.123 -0.3590  0.5622  0.0312
 2750SOL    HW1 8934   3.649   5.560   6.214  0.3579  0.4705 -0.2002
 2750SOL    HW2 8935   3.527   5.586   6.129 -0.5285 -0.1793  0.8408
 2751SOL     OW 8936   6.583   1.666   4.513  0.4233 -0.4955 -0.4225
 2751SOL    HW1 8937   6.513   1.707   4.463 -1.2769 -0.4230  1.8761
 2751SOL    HW2 8938   6.561   1.572   4.512  2.4761 -1.0823 -2.8506
 2752SOL     OW 8939   4.543   2.423   6.842 -0.2543 -0.3501  0.5700
 2752SOL    HW1 8940   4.479   2.427   6.771 -0.2145 -1.2848  0.4739
 2752SOL    HW2 8941   4.497   2.456   6.919 -0.3571  0.4804  0.1590
 2753SOL     OW 8942   0.062   2.347   2.447 -0.1047 -0.0985 -0.3744
 2753SOL    HW1 8943   0.073   2.431   2.491  0.9808 -1.0825  1.3797
 2753SOL    HW2 8944   0.138   2.295   2.475 -0.6915 -1.6286 -1.4745
 2754SOL     OW 8945   3.313   4.018   1.047 -0.1705 -0.5867  0.2174
 2754SOL    HW1 8946   3.393   3.969   1.029 -0.1453 -0.1016 -1.0819
 2754SOL    HW2 8947   3.244   3.951   1.046  0.0477 -0.8122 -0.0489
 2755SOL     OW 8948   3.962   6.167   6.271 -0.5863  0.5963 -0.1887
 2755SOL    HW1 8949   3.934   6.096   6.328 -1.1090  0.6809 -0.3409
 2755SOL    HW2 8950   3.912   6.243   6.301 -0.6667  0.7005 -0.5893
 2756SOL     OW 8951   3.945   4.963   3.437  0.0098  0.0016  0.7176
 2756SOL    HW1 8952   3.916   5.028   3.373  0.6085 -0.5393 -0.1212
 2756SOL    HW2 8953   3.987   5.015   3.506  1.2862  0.4911 -0.3663
 2757SOL     OW 8954   6.724   5.805   2.133  0.3608  0.6355  0.3840
 2757SOL    HW1 8955   6.801   5.748   2.140  0.3190  0.5874  0.4601
 2757SOL    HW2 8956   6.694   5.794   2.044 -1.3354 -1.6445  1.1419
 2758SOL     OW 8957   3.429   3.229   1.767  0.3439 -0.5527  0.5395
 2758SOL    HW1 8958   3.427   3.133   1.763  1.2470 -0.7857  3.4473
 2758SOL    HW2 8959   3.518   3.253   1.740  0.3790 -0.6208  0.5931
 2759SOL     OW 8960   3.908   1.624   3.236  0.0238 -0.3435  0.3240
 2759SOL    HW1 8961   3.924   1.675   3.157 -0.6171  0.9095  0.9654
 2759SOL    HW2 8962   3.940   1.537   3.216  1.2678  0.3387 -0.7801
 2760SOL     OW 8963   2.809   5.606   4.798  1.0228 -0.1879 -0.5672
 2760SOL    HW1 8964   2.719   5.622   4.827  1.3327 -1.1944  1.0793
 2760SOL    HW2 8965   2.837   5.689   4.760 -0.6330  0.1130 -1.2137
 2761SOL     OW 8966   2.359   1.504   0.884 -0.0751  0.6612  0.3967
 2761SOL    HW1 8967   2.453   1.488   0.895 -0.2057 -0.8386 -0.3782
 2761SOL    HW2 8968   2.335   1.558   0.960  1.1666  0.0130  1.2986
 2762SOL     OW 8969   0.455   4.753   1.468  0.0559  0.1093 -0.1853
 2762SOL    HW1 8970   0.416   4.705   1.395  0.5699 -1.1333  0.3158
 2762SOL    HW2 8971   0.550   4.741   1.457  0.1241 -1.0088  1.2200
 2763SOL     OW 8972   6.050   1.749   1.687  0.7534  0.5064  0.1205
 2763SOL    HW1 8973   6.112   1.722   1.755  0.3822  0.3930  0.4217
 2763SOL    HW2 8974   6.102   1.757   1.608  1.2002  0.6665  0.4267
 2764SOL     OW 8975   0.777   2.411   1.838 -0.1866 -0.3543 -0.2318
 2764SOL    HW1 8976   0.816   2.339   1.788 -1.1250  0.7715 -2.7733
 2764SOL    HW2 8977   0.686   2.385   1.852 -0.3295 -0.0112 -0.4912
 2765SOL     OW 8978   3.402   4.841   2.194  0.0823 -0.8281  0.1186
 2765SOL    HW1 8979   3.474   4.778   2.193  0.8603  0.0559 -0.8550
 2765SOL    HW2 8980   3.359   4.829   2.110  0.5538  0.2848 -0.2947
 2766SOL     OW 8981   1.738   5.137   6.179  0.6008 -0.1310  0.5019
 2766SOL    HW1 8982   1.684   5.107   6.252  2.7505 -0.9633  1.8553
 2766SOL    HW2 8983   1.758   5.228   6.201 -0.4395  0.2614 -0.1392
 2767SOL     OW 8984   2.560   2.777   5.219  0.9074  0.2239  0.0906
 2767SOL    HW1 8985   2.597   2.710   5.161  0.1334  0.4219 -0.6432
 2767SOL    HW2 8986   2.605   2.857   5.194  0.6328  0.2938 -0.1755
 2768SOL     OW 8987   1.847   3.844   6.670 -0.0042  0.1919  0.7048
 2768SOL    HW1 8988   1.901   3.913   6.707 -0.4248  0.9362 -0.0259
 2768SOL    HW2 8989   1.888   3.762   6.698  0.2271  0.7319  1.9799
 2769SOL     OW 8990   0.216   5.795   6.091  0.1196 -0.0575  0.6447
 2769SOL    HW1 8991   0.170   5.865   6.045 -0.1168 -0.8323 -0.3226
 2769SOL    HW2 8992   0.309   5.812   6.074 -0.0035 -1.4933 -1.9417
 2770SOL     OW 8993   0.602   3.497   0.720 -0.2034 -0.3007 -0.2446
 2770SOL    HW1 8994   0.641   3.463   0.801 -1.7450 -0.2250  0.5697
 2770SOL    HW2 8995   0.521   3.540   0.748 -1.1817 -0.9361 -1.8875
 2771SOL     OW 8996   6.838   4.420   5.578 -0.6282 -0.3821  0.7034
 2771SOL    HW1 8997   6.907   4.417   5.512 -1.0861  1.0677  0.1097
 2771SOL    HW2 8998   6.854   4.344   5.634 -1.4841 -3.0050 -2.3176
 2772SOL     OW 8999   0.547   3.840   4.074 -0.4642  0.5591  0.3988
 2772SOL    HW1 9000   0.523   3.747   4.073 -1.5371  0.8133  0.3357
 2772SOL    HW2 9001   0.480   3.882   4.019 -1.0597  1.6028  1.8610
 2773SOL     OW 9002   1.737   6.782   2.573  0.1744  0.0034  0.8696
 2773SOL    HW1 9003   1.682   6.858   2.553  1.4954  1.1709  1.5583
 2773SOL    HW2 9004   1.677   6.708   2.567 -0.8275  0.8958 -1.3279
 2774SOL     OW 9005   2.734   0.096   5.109  0.2336 -0.0341 -0.2201
 2774SOL    HW1 9006   2.765   0.082   5.019 -1.4667 -1.2819 -0.6565
 2774SOL    HW2 9007   2.675   0.171   5.103 -1.6207 -1.4480 -0.6439
 2775SOL     OW 9008   0.310   3.155   3.725  0.2843 -0.4534  0.1729
 2775SOL    HW1 9009   0.339   3.155   3.634  2.7220  3.8827  0.6721
 2775SOL    HW2 9010   0.389   3.137   3.775  0.1442  1.9901  1.4204
 2776SOL     OW 9011   0.255   2.798   1.360 -0.0630  0.7671  0.0935
 2776SOL    HW1 9012   0.225   2.884   1.331 -1.3249  0.2851 -0.0923
 2776SOL    HW2 9013   0.310   2.766   1.289 -0.2839  1.0623 -0.2124
 2777SOL     OW 9014   6.189   0.069   2.809  0.0641 -0.1015  0.1334
 2777SOL    HW1 9015   6.237   0.151   2.815 -0.7288  0.3823  0.0059
 2777SOL    HW2 9016   6.253   0.001   2.831  1.7260  0.1923 -3.1243
 2778SOL     OW 9017   2.568   4.896   4.779  0.1659 -0.2317  1.1201
 2778SOL    HW1 9018   2.551   4.804   4.801 -1.0456 -0.1824  0.4302
 2778SOL    HW2 9019   2.494   4.922   4.725  1.6806  0.4527 -0.7250
 2779SOL     OW 9020   5.084   0.002   0.941  0.0269 -0.2450 -0.0102
 2779SOL    HW1 9021   5.162   0.050   0.970 -0.2328  0.2227 -0.0610
 2779SOL    HW2 9022   5.018   0.071   0.930 -0.6105 -0.7216  0.7510
 2780SOL     OW 9023   1.323   1.546   4.310 -0.2915  0.0785 -0.1598
 2780SOL    HW1 9024   1.353   1.538   4.220 -0.9684 -0.5509 -0.3457
 2780SOL    HW2 9025   1.373   1.619   4.347 -0.7137  0.9967 -1.3429
 2781SOL     OW 9026   3.338   2.036   1.931  0.3212  0.2329 -0.3064
 2781SOL    HW1 9027   3.345   2.032   2.027  2.2273 -1.8146 -0.4511
 2781SOL    HW2 9028   3.286   1.960   1.908 -0.2696  0.8135 -0.9077
 2782SOL     OW 9029   3.994   3.098   0.717  0.1485  0.2688 -0.0402
 2782SOL    HW1 9030   3.986   3.003   0.711 -0.0975  0.3033 -0.2623
 2782SOL    HW2 9031   4.082   3.112   0.753 -0.1206 -0.0604  0.7702
 2783SOL     OW 9032   4.101   0.776   3.529 -0.0783 -0.0915  0.2286
 2783SOL    HW1 9033   4.174   0.801   3.586 -0.2692  0.4220  0.2549
 2783SOL    HW2 9034   4.029   0.757   3.590 -0.5285  1.2526  0.1479
 2784SOL     OW 9035   1.861   1.289   1.838 -0.0749  0.0811 -0.3538
 2784SOL    HW1 9036   1.851   1.219   1.903 -2.4062 -0.5275 -1.2676
 2784SOL    HW2 9037   1.884   1.366   1.889 -0.9560 -0.5708  1.1025
 2785SOL     OW 9038   4.975   2.426   4.743 -0.2003 -0.4362  0.0159
 2785SOL    HW1 9039   5.005   2.491   4.679  0.7181  0.4017  1.2323
 2785SOL    HW2 9040   5.035   2.352   4.731  0.8663  0.2657  0.7917
 2786SOL     OW 9041   1.928   3.098   1.365 -0.1178 -0.3541  0.3768
 2786SOL    HW1 9042   1.872   3.155   1.313 -1.4571 -1.4333  0.5694
 2786SOL    HW2 9043   2.015   3.106   1.326 -0.7469  0.1240 -0.9654
 2787SOL     OW 9044   0.054   6.587   2.129 -0.0469  0.0132 -0.1480
 2787SOL    HW1 9045   0.037   6.504   2.173 -0.0725 -0.5469 -1.1794
 2787SOL    HW2 9046  -0.033   6.626   2.117 -0.4271 -1.3125 -2.4646
 2788SOL     OW 9047   6.194   1.635   5.874 -0.4833  0.6226 -0.0086
 2788SOL    HW1 9048   6.114   1.647   5.925 -1.7623  1.7157 -2.1307
 2788SOL    HW2 9049   6.172   1.668   5.787  1.9776 -0.0083 -0.9491
 2789SOL     OW 9050   3.768   5.928   3.402  0.3672 -0.0427  0.7820
 2789SOL    HW1 9051   3.751   6.014   3.363  2.6087  0.9756  1.9016
 2789SOL    HW2 9052   3.733   5.935   3.490 -1.9454 -1.3076  0.0516
 2790SOL     OW 9053   0.985   1.247   4.519  0.1539 -0.1970  0.6021
 2790SOL    HW1 9054   0.944   1.319   4.567  1.5870 -0.3430  2.1445
 2790SOL    HW2 9055   0.922   1.175   4.526 -0.3116  0.2373  0.9886
 2791SOL     OW 9056   5.176   0.651   1.106 -0.5513 -0.1092  0.3676
 2791SOL    HW1 9057   5.110   0.625   1.171 -0.3483 -0.0400  0.6056
 2791SOL    HW2 9058   5.127   0.699   1.040 -0.4092  2.0547  1.7377
 2792SOL     OW 9059   3.812   5.788   1.822  0.0953 -0.2176 -0.1434
 2792SOL    HW1 9060   3.821   5.706   1.773 -0.7391  0.1010 -0.8752
 2792SOL    HW2 9061   3.807   5.761   1.914 -2.9329 -1.2857 -0.4977
 2793SOL     OW 9062   3.941   3.449   4.398  0.3097  0.0787  0.6164
 2793SOL    HW1 9063   3.963   3.524   4.342  1.0360  0.9432  2.0008
 2793SOL    HW2 9064   4.012   3.387   4.383 -0.1666 -0.2545 -0.3527
 2794SOL     OW 9065   3.484   3.317   4.073 -0.3203 -0.3193  0.1172
 2794SOL    HW1 9066   3.392   3.324   4.046 -0.0278  0.7817 -0.6890
 2794SOL    HW2 9067   3.493   3.384   4.141  0.1304  0.3388 -0.5755
 2795SOL     OW 9068   1.258   6.439   1.631  0.1750  0.3786  0.1399
 2795SOL    HW1 9069   1.308   6.367   1.592 -2.0165 -1.0339 -0.1995
 2795SOL    HW2 9070   1.254   6.417   1.725  0.5223  0.7042  0.2324
 2796SOL     OW 9071   6.233   0.022   0.712  0.0908 -0.4771  0.2471
 2796SOL    HW1 9072   6.302  -0.044   0.718  2.0091  1.1657 -1.7706
 2796SOL    HW2 9073   6.154  -0.022   0.741  1.5213 -3.2560  0.2010
 2797SOL     OW 9074   0.807   6.403   4.049 -0.3046 -0.1102 -0.4187
 2797SOL    HW1 9075   0.852   6.466   4.105 -1.4766 -0.3165  0.8275
 2797SOL    HW2 9076   0.842   6.418   3.962  0.5274  1.2337  0.1226
 2798SOL     OW 9077   4.151   0.844   3.266 -0.2018  0.3226 -0.5519
 2798SOL    HW1 9078   4.120   0.820   3.353 -1.7906 -1.1163 -1.4634
 2798SOL    HW2 9079   4.151   0.940   3.266  1.3165  0.3943  1.5024
 2799SOL     OW 9080   1.558   1.341   5.573  0.0959 -0.6396  0.6258
 2799SOL    HW1 9081   1.509   1.340   5.655  1.2498 -0.0862  1.3410
 2799SOL    HW2 9082   1.533   1.259   5.529  1.1689 -2.0678  2.5514
 2800SOL     OW 9083   3.715   4.274   1.347 -0.2029  0.1885 -0.0640
 2800SOL    HW1 9084   3.808   4.289   1.328  0.1048 -0.1977  1.0772
 2800SOL    HW2 9085   3.715   4.208   1.416 -1.3757 -0.9139 -1.0733
 2801SOL     OW 9086   5.249   5.902   0.639 -0.1244 -0.4821  0.4130
 2801SOL    HW1 9087   5.218   5.975   0.693 -0.8661 -0.0843 -0.5103
 2801SOL    HW2 9088   5.315   5.941   0.582  2.4366 -1.3859  2.5614
 2802SOL     OW 9089   6.773   1.909   4.054 -0.0307  0.0688 -0.4657
 2802SOL    HW1 9090   6.837   1.879   4.117 -1.4620 -2.1830  0.0613
 2802SOL    HW2 9091   6.819   1.973   4.000  1.8798  0.3477  1.3978
 2803SOL     OW 9092   5.425   0.130   2.324  0.0677 -0.0740 -0.3583
 2803SOL    HW1 9093   5.421   0.068   2.397 -0.7804  2.1120  1.5741
 2803SOL    HW2 9094   5.376   0.088   2.254 -4.5442  0.1501  2.3621
 2804SOL     OW 9095   6.410   6.531   2.263  0.5352 -0.8871 -0.5715
 2804SOL    HW1 9096   6.360   6.533   2.344 -0.6902 -1.3820 -1.2991
 2804SOL    HW2 9097   6.413   6.439   2.238 -0.5840 -0.5908 -1.9606
 2805SOL     OW 9098   1.540   6.807   5.708 -0.3370  0.2627  0.0320
 2805SOL    HW1 9099   1.468   6.752   5.740 -2.4811  2.5166 -0.5649
 2805SOL    HW2 9100   1.537   6.885   5.764  2.0471  0.2084  0.3334
 2806SOL     OW 9101   1.254   5.037   3.325  0.2255  0.6792 -0.4169
 2806SOL    HW1 9102   1.300   5.087   3.257  2.1007  0.0165  0.3087
 2806SOL    HW2 9103   1.296   5.063   3.407  0.7298 -1.4503  0.0674
 2807SOL     OW 9104   4.992   1.445   3.761 -0.5288 -0.5205  0.4071
 2807SOL    HW1 9105   5.066   1.452   3.701  0.3740 -0.3879  1.4976
 2807SOL    HW2 9106   5.021   1.382   3.827 -1.3893 -0.4724  0.8445
 2808SOL     OW 9107   2.255   0.236   5.532  0.0846 -0.1957  0.4962
 2808SOL    HW1 9108   2.179   0.195   5.573  0.3899 -1.5745 -0.2478
 2808SOL    HW2 9109   2.224   0.323   5.505 -1.7111 -1.2282 -1.0993
 2809SOL     OW 9110   0.611   2.914   3.621  0.5031  0.0891  0.5301
 2809SOL    HW1 9111   0.705   2.931   3.629  0.6380  0.3809 -1.2158
 2809SOL    HW2 9112   0.598   2.831   3.666  1.4922  0.3340  1.2981
 2810SOL     OW 9113   0.647   1.512   3.141  0.1594 -0.1160 -0.6231
 2810SOL    HW1 9114   0.732   1.494   3.101  0.0087  1.2491 -1.6381
 2810SOL    HW2 9115   0.585   1.510   3.068 -0.5371 -0.1366 -0.0423
 2811SOL     OW 9116   1.743   3.195   3.234 -0.4747  0.0734  0.1900
 2811SOL    HW1 9117   1.781   3.185   3.147 -0.2003 -0.1252  0.3304
 2811SOL    HW2 9118   1.759   3.111   3.277  0.0078  0.3983  0.6658
 2812SOL     OW 9119   2.858   4.707   5.508 -0.1169 -0.0075  1.3405
 2812SOL    HW1 9120   2.880   4.799   5.498 -0.2419 -0.0030  1.1053
 2812SOL    HW2 9121   2.776   4.707   5.558 -0.6325  0.0444  0.5125
 2813SOL     OW 9122   0.265   4.780   5.907  0.1718  0.2796  0.0597
 2813SOL    HW1 9123   0.233   4.704   5.858 -0.5666 -1.2207  2.6418
 2813SOL    HW2 9124   0.187   4.816   5.948  0.6627  1.9176 -0.3853
 2814SOL     OW 9125   5.808   2.777   1.594 -0.5116 -0.0602 -0.3879
 2814SOL    HW1 9126   5.737   2.763   1.657 -0.5646  1.5520 -0.0437
 2814SOL    HW2 9127   5.812   2.695   1.544 -1.3993 -0.8543  0.7779
 2815SOL     OW 9128   4.558   0.831   6.181  0.0212  0.2067  0.2276
 2815SOL    HW1 9129   4.559   0.898   6.113 -0.7081 -2.0504 -2.1656
 2815SOL    HW2 9130   4.650   0.817   6.203  0.2184  1.4359  0.2153
 2816SOL     OW 9131   6.505   5.329   2.905  0.4175 -0.2221  0.8073
 2816SOL    HW1 9132   6.442   5.267   2.941 -0.5128 -0.5897 -1.2863
 2816SOL    HW2 9133   6.517   5.301   2.814  1.7531  1.3017  0.4597
 2817SOL     OW 9134   2.075   4.561   4.104  0.4664 -0.0576  0.5546
 2817SOL    HW1 9135   2.046   4.520   4.185 -2.6545 -0.1323 -0.4583
 2817SOL    HW2 9136   2.087   4.487   4.044 -2.2706  0.1930 -0.4261
 2818SOL     OW 9137   1.335   1.643   1.097  0.1701 -0.2286 -0.1924
 2818SOL    HW1 9138   1.335   1.734   1.125 -2.1281  0.1448 -1.1899
 2818SOL    HW2 9139   1.286   1.643   1.015 -0.4266 -2.4617  0.1053
 2819SOL     OW 9140   0.224   5.298   5.271  0.5695 -0.7781  0.3788
 2819SOL    HW1 9141   0.144   5.330   5.312  0.6506 -0.7072  0.4832
 2819SOL    HW2 9142   0.237   5.356   5.195  0.5405 -0.7677  0.3818
 2820SOL     OW 9143   2.563   1.223   2.948  0.1318  0.3854 -0.1328
 2820SOL    HW1 9144   2.539   1.164   3.020 -2.1316  0.9132 -0.3970
 2820SOL    HW2 9145   2.607   1.296   2.991  0.1570 -0.0077  0.5323
 2821SOL     OW 9146   1.939   1.621   6.442  0.4782  0.0121  0.0956
 2821SOL    HW1 9147   1.925   1.527   6.458  0.2589  0.0858  0.3407
 2821SOL    HW2 9148   2.011   1.644   6.501  0.6266 -0.0329 -0.0672
 2822SOL     OW 9149   5.734   0.448   6.362 -0.3559 -0.0600 -0.3923
 2822SOL    HW1 9150   5.664   0.512   6.355 -1.1892 -0.8805  0.1507
 2822SOL    HW2 9151   5.689   0.364   6.367  0.6609 -0.5955  0.0894
 2823SOL     OW 9152   0.332   1.554   5.483  0.0034  0.5892 -0.1218
 2823SOL    HW1 9153   0.337   1.556   5.578 -0.2083  0.6582 -0.1102
 2823SOL    HW2 9154   0.385   1.628   5.454  0.6553  0.1386 -0.0862
 2824SOL     OW 9155   5.446   5.720   5.520 -0.0227  0.0698  0.6511
 2824SOL    HW1 9156   5.477   5.716   5.610  1.3927  1.1663  0.2562
 2824SOL    HW2 9157   5.401   5.804   5.513 -0.4757 -0.1872  0.4371
 2825SOL     OW 9158   0.889   3.909   5.356 -0.1414  0.0249  0.1417
 2825SOL    HW1 9159   0.978   3.939   5.375 -0.8122  1.6577  0.9383
 2825SOL    HW2 9160   0.856   3.972   5.292 -0.8238 -0.4123  0.0513
 2826SOL     OW 9161   3.188   6.743   1.865 -0.6113  0.2060  0.3441
 2826SOL    HW1 9162   3.131   6.818   1.885  0.1595  1.1038 -0.6859
 2826SOL    HW2 9163   3.200   6.748   1.770  1.8126  0.5127  0.6238
 2827SOL     OW 9164   0.243   3.100   2.448 -0.3860 -0.1211  0.1107
 2827SOL    HW1 9165   0.210   3.092   2.538 -0.7156  0.0263  0.0035
 2827SOL    HW2 9166   0.221   3.016   2.407 -2.0790  0.5620 -0.4340
 2828SOL     OW 9167   4.302   4.558   2.173 -0.5746  0.1486 -0.1414
 2828SOL    HW1 9168   4.367   4.488   2.176  0.6198  1.2336 -0.0677
 2828SOL    HW2 9169   4.239   4.530   2.107  1.1005  0.0283 -1.7598
 2829SOL     OW 9170   5.956   4.720   3.226 -0.4615 -0.5948 -0.9514
 2829SOL    HW1 9171   6.033   4.738   3.280 -1.8801  1.4376  0.5413
 2829SOL    HW2 9172   5.905   4.659   3.279 -0.5160 -0.8799 -1.3315
 2830SOL     OW 9173   6.280   0.831   4.193 -0.1110 -0.2825 -0.0067
 2830SOL    HW1 9174   6.352   0.778   4.158 -0.6607 -2.4502  1.9230
 2830SOL    HW2 9175   6.210   0.823   4.128  0.0205 -1.4713 -0.0145
 2831SOL     OW 9176   3.278   4.670   1.596 -0.0055 -0.6950 -0.0812
 2831SOL    HW1 9177   3.271   4.582   1.633  1.4036 -1.0658 -0.6396
 2831SOL    HW2 9178   3.197   4.682   1.547 -0.2899 -1.6110  0.1380
 2832SOL     OW 9179   4.622   3.924   0.718 -0.5279  0.1355  0.1045
 2832SOL    HW1 9180   4.643   3.832   0.702  1.7084  0.3535  1.3872
 2832SOL    HW2 9181   4.531   3.933   0.689 -0.8188 -2.4668 -0.0397
 2833SOL     OW 9182   3.625   0.054   4.132  0.0372  0.0638 -0.5326
 2833SOL    HW1 9183   3.707   0.098   4.109  1.0437 -1.2654  0.4259
 2833SOL    HW2 9184   3.591   0.104   4.207  1.9840 -1.6134  1.5909
 2834SOL     OW 9185   2.386   0.431   6.883 -0.3353  0.0510 -0.1561
 2834SOL    HW1 9186   2.354   0.367   6.819 -0.2012  1.3483 -1.5758
 2834SOL    HW2 9187   2.361   0.395   6.968 -1.4248 -1.2339 -0.9838
 2835SOL     OW 9188   6.442   6.541   6.292 -0.1868  0.5612  0.2719
 2835SOL    HW1 9189   6.495   6.568   6.216  0.1803  1.1898  0.7452
 2835SOL    HW2 9190   6.479   6.589   6.366 -0.5707 -0.0178  0.8513
 2836SOL     OW 9191   4.086   3.961   4.147  0.4681 -0.3224  0.2492
 2836SOL    HW1 9192   4.172   3.925   4.126  1.8962  0.9077  3.3924
 2836SOL    HW2 9193   4.099   4.055   4.153 -0.9023 -0.1754  1.5804
 2837SOL     OW 9194   5.282   3.039   2.450 -0.3501 -0.2568 -0.0509
 2837SOL    HW1 9195   5.317   3.120   2.412  0.4722 -0.4623  0.2441
 2837SOL    HW2 9196   5.320   2.969   2.396 -0.5891 -0.4773  0.0631
 2838SOL     OW 9197   0.870   6.293   0.918 -0.3857 -0.1751 -0.2634
 2838SOL    HW1 9198   0.912   6.379   0.923 -0.3117 -0.1612 -1.0164
 2838SOL    HW2 9199   0.933   6.238   0.871 -0.1583 -0.8202  0.7607
 2839SOL     OW 9200   3.173   1.727   1.304  0.1946  0.0499  0.0711
 2839SOL    HW1 9201   3.218   1.798   1.350 -0.4778  0.8792 -0.5258
 2839SOL    HW2 9202   3.120   1.771   1.238  1.1051 -1.1097 -1.4947
 2840SOL     OW 9203   0.528   3.556   6.791 -0.1369 -0.1057  0.3286
 2840SOL    HW1 9204   0.602   3.540   6.850 -0.0318 -2.4899 -0.3288
 2840SOL    HW2 9205   0.526   3.479   6.735 -2.1004  0.7028 -0.8010
 2841SOL     OW 9206   0.918   5.342   6.838 -0.2728 -0.2696 -0.3508
 2841SOL    HW1 9207   0.894   5.305   6.753  2.7767 -0.3509 -1.3032
 2841SOL    HW2 9208   0.925   5.436   6.821  0.9884 -0.3544 -0.4285
 2842SOL     OW 9209   0.942   4.065   3.274 -0.0020  0.5370  0.2944
 2842SOL    HW1 9210   0.998   4.088   3.348  2.4361  0.3193 -1.3662
 2842SOL    HW2 9211   0.988   4.099   3.197 -1.3293 -1.1162 -1.3330
 2843SOL     OW 9212   5.438   0.028   0.842  0.3216  0.6356 -0.0983
 2843SOL    HW1 9213   5.409  -0.054   0.803 -0.0860  0.3078  0.8829
 2843SOL    HW2 9214   5.484   0.073   0.771 -0.5405  0.1209 -1.0056
 2844SOL     OW 9215   6.573   2.551   6.863  0.0615  0.9978  0.3633
 2844SOL    HW1 9216   6.571   2.524   6.771  1.2522  1.1877  0.2667
 2844SOL    HW2 9217   6.656   2.518   6.896 -1.8663 -2.3058  2.4176
 2845SOL     OW 9218   2.187   1.953   6.349 -0.4624 -0.0207  0.2558
 2845SOL    HW1 9219   2.176   1.898   6.271  0.9926 -0.9500  0.6778
 2845SOL    HW2 9220   2.260   2.011   6.328  1.1253 -1.4555  1.5107
 2846SOL     OW 9221   0.321   0.826   5.262  0.1737  0.1516  0.1133
 2846SOL    HW1 9222   0.260   0.881   5.311 -2.1347 -1.6298 -0.5974
 2846SOL    HW2 9223   0.404   0.874   5.265 -1.1232  2.4970  1.4631
 2847SOL     OW 9224   6.674   2.253   0.018  0.3690  0.0005 -0.0793
 2847SOL    HW1 9225   6.594   2.258  -0.034  0.0092  0.7473  0.5217
 2847SOL    HW2 9226   6.735   2.202  -0.035 -0.1800  0.2701 -0.9752
 2848SOL     OW 9227   0.266   5.987   1.301 -0.3088  0.3110 -0.0353
 2848SOL    HW1 9228   0.179   5.953   1.284 -1.0859  2.2870 -0.2385
 2848SOL    HW2 9229   0.280   5.972   1.394  0.2283 -2.2649 -0.4335
 2849SOL     OW 9230   6.220   0.260   4.576  0.4579 -0.1172 -0.2646
 2849SOL    HW1 9231   6.284   0.189   4.571 -0.7699 -1.3049  0.2671
 2849SOL    HW2 9232   6.154   0.238   4.511 -1.0276 -0.6293  1.3332
 2850SOL     OW 9233   0.439   5.643   3.035  0.2268 -0.2672  0.1102
 2850SOL    HW1 9234   0.384   5.652   3.113  0.1170  0.5080 -0.0497
 2850SOL    HW2 9235   0.386   5.682   2.965  1.0874  0.7200 -0.0014
 2851SOL     OW 9236   5.049   0.862   1.931  0.0832 -0.3816 -0.2858
 2851SOL    HW1 9237   5.029   0.865   1.838  0.4507  1.2231 -0.3488
 2851SOL    HW2 9238   5.114   0.931   1.944  0.4284 -0.9165  1.0745
 2852SOL     OW 9239   0.303   2.458   1.389 -0.4241 -0.1171  0.4880
 2852SOL    HW1 9240   0.327   2.492   1.303  0.3753  0.8850  1.0900
 2852SOL    HW2 9241   0.350   2.375   1.397 -1.2405 -0.6934 -0.3970
 2853SOL     OW 9242   3.354   3.177   3.687 -0.1845  0.2982  0.3349
 2853SOL    HW1 9243   3.426   3.146   3.742  1.2021  2.3024 -0.2201
 2853SOL    HW2 9244   3.283   3.195   3.748 -0.3700 -1.9829  0.8667
 2854SOL     OW 9245   1.783   2.821   1.761  0.0905  0.3906 -0.7056
 2854SOL    HW1 9246   1.726   2.896   1.780  0.4550  0.1574  1.5610
 2854SOL    HW2 9247   1.871   2.851   1.786  0.7869  0.2155 -2.7095
 2855SOL     OW 9248   3.209   2.377   0.184  0.0553 -0.0537  0.2636
 2855SOL    HW1 9249   3.290   2.427   0.183 -0.5407  0.9433 -0.7539
 2855SOL    HW2 9250   3.140   2.442   0.170 -0.8896 -0.9399  0.6329
 2856SOL     OW 9251   3.463   5.256   1.498  0.0361  0.2929  0.1140
 2856SOL    HW1 9252   3.439   5.343   1.529 -1.3268 -0.2230  0.5587
 2856SOL    HW2 9253   3.389   5.200   1.522  0.2459 -0.7150 -1.4349
 2857SOL     OW 9254   6.080   4.027   2.968  0.0228 -0.0787  0.4125
 2857SOL    HW1 9255   6.074   4.019   2.873 -1.2306 -0.4066  0.4986
 2857SOL    HW2 9256   6.172   4.011   2.988  0.0891 -1.1370 -0.6474
 2858SOL     OW 9257   2.317   4.676   6.681 -0.1541 -0.2558 -0.1718
 2858SOL    HW1 9258   2.399   4.665   6.729 -0.6936  0.9102  1.0961
 2858SOL    HW2 9259   2.329   4.757   6.631 -0.5493 -0.0275  0.0918
 2859SOL     OW 9260   5.686   4.221   6.856 -0.3034  0.5657  0.2921
 2859SOL    HW1 9261   5.711   4.301   6.903 -2.2486  0.2343  2.0686
 2859SOL    HW2 9262   5.717   4.150   6.912 -0.2428  0.1111 -0.3130
 2860SOL     OW 9263   4.099   3.443   0.316  0.5353  0.2964 -0.1840
 2860SOL    HW1 9264   4.034   3.464   0.249 -1.6355 -0.2177  1.6179
 2860SOL    HW2 9265   4.057   3.374   0.368  0.1645  3.4516  4.2264
 2861SOL     OW 9266   0.498   3.139   3.013 -0.3447  0.3193 -0.1619
 2861SOL    HW1 9267   0.519   3.136   3.106  1.5838 -0.2676 -0.5694
 2861SOL    HW2 9268   0.403   3.153   3.010 -0.7889 -1.5999  1.9141
 2862SOL     OW 9269   1.536   3.364   5.873  0.1932 -0.2521 -0.1745
 2862SOL    HW1 9270   1.457   3.406   5.904  0.3323 -1.3231  1.7850
 2862SOL    HW2 9271   1.513   3.330   5.787 -1.6050 -0.8654  0.5070
 2863SOL     OW 9272   3.870   2.173   0.347  0.7081 -0.0620 -0.5068
 2863SOL    HW1 9273   3.934   2.138   0.284  0.8458 -2.0019  0.6154
 2863SOL    HW2 9274   3.913   2.164   0.432 -0.1137  0.9545  0.0406
 2864SOL     OW 9275   0.323   5.006   4.412 -0.4721 -0.0587 -0.2863
 2864SOL    HW1 9276   0.371   5.083   4.443 -0.4917 -0.2800  0.3058
 2864SOL    HW2 9277   0.306   5.024   4.320 -0.5064  0.6611 -0.1415
 2865SOL     OW 9278   4.516   6.467   3.197  0.4441  0.5141 -0.1153
 2865SOL    HW1 9279   4.591   6.464   3.256  0.6273 -0.9498 -0.3789
 2865SOL    HW2 9280   4.549   6.431   3.114 -0.3100  0.6985 -0.5093
 2866SOL     OW 9281   1.713   0.162   5.078 -0.1821  0.2772  0.3351
 2866SOL    HW1 9282   1.622   0.189   5.086 -0.0892  0.7979 -0.3298
 2866SOL    HW2 9283   1.764   0.243   5.091  0.1947 -0.0342  0.8605
 2867SOL     OW 9284   1.069   6.039   4.407 -0.1326 -0.8787 -0.1455
 2867SOL    HW1 9285   1.115   5.969   4.454 -0.1312 -0.2336  0.8520
 2867SOL    HW2 9286   1.091   6.119   4.456 -1.1842 -0.3584 -0.4852
 2868SOL     OW 9287   5.987   3.017   2.829 -0.1300 -0.1956  0.1807
 2868SOL    HW1 9288   6.048   3.003   2.902 -0.4963 -1.1556  0.3062
 2868SOL    HW2 9289   5.901   3.011   2.869 -0.3250  0.2796 -0.1615
 2869SOL     OW 9290   0.629   2.724   1.999  0.1581 -0.1252 -0.2659
 2869SOL    HW1 9291   0.608   2.679   1.917  1.6049  0.6397 -1.1068
 2869SOL    HW2 9292   0.725   2.726   2.001  0.2032 -1.0332  1.9783
 2870SOL     OW 9293   2.942   0.548   3.575 -0.7052  0.1310 -0.5062
 2870SOL    HW1 9294   2.955   0.622   3.635 -0.3201 -1.5599  1.6312
 2870SOL    HW2 9295   2.907   0.479   3.630  0.6089 -1.8508 -2.0229
 2871SOL     OW 9296   5.448   5.542   6.023  0.7051  0.2058  0.2659
 2871SOL    HW1 9297   5.403   5.459   6.036 -3.1366  2.0975  0.4177
 2871SOL    HW2 9298   5.503   5.553   6.101 -0.1938 -1.3195  1.1584
 2872SOL     OW 9299   4.519   5.236   6.506 -0.1654 -0.0991  0.1626
 2872SOL    HW1 9300   4.429   5.267   6.495  0.0026  0.6979  0.9198
 2872SOL    HW2 9301   4.511   5.157   6.559 -0.4865 -0.6047 -0.6171
 2873SOL     OW 9302   3.788   3.237   0.949 -0.5525  0.1480 -0.1819
 2873SOL    HW1 9303   3.779   3.142   0.948 -3.4809  0.2980  0.8339
 2873SOL    HW2 9304   3.851   3.254   1.019  0.7058 -1.0312 -0.9811
 2874SOL     OW 9305   2.566   4.664   2.201 -0.1933 -0.2466  0.6647
 2874SOL    HW1 9306   2.615   4.710   2.133 -2.2748  1.2634  0.0889
 2874SOL    HW2 9307   2.560   4.574   2.168  0.4416  0.0125 -0.2218
 2875SOL     OW 9308   1.112   0.238   3.507  0.5275 -0.4585 -0.5428
 2875SOL    HW1 9309   1.172   0.220   3.579 -0.0865 -1.9250 -0.3570
 2875SOL    HW2 9310   1.074   0.153   3.486 -1.2564  0.3612 -0.8554
 2876SOL     OW 9311   0.271   1.760   1.680  0.2260  0.2456 -0.7957
 2876SOL    HW1 9312   0.357   1.796   1.700  0.7448  1.0440 -3.8417
 2876SOL    HW2 9313   0.281   1.723   1.592 -2.2758 -0.6795 -0.7727
 2877SOL     OW 9314   3.720   2.102   1.318 -0.4855 -0.2380 -0.5571
 2877SOL    HW1 9315   3.720   2.196   1.298 -0.7164 -0.4535 -1.6781
 2877SOL    HW2 9316   3.628   2.076   1.313 -0.2486 -0.9361 -2.5905
 2878SOL     OW 9317   6.537   5.454   1.483  0.4903 -0.6504 -0.5064
 2878SOL    HW1 9318   6.613   5.444   1.539 -0.2106  0.1955  0.6179
 2878SOL    HW2 9319   6.532   5.547   1.464 -2.8871  0.2285  3.3531
 2879SOL     OW 9320   0.904   4.341   6.688  0.5278 -0.6217  0.1867
 2879SOL    HW1 9321   0.852   4.263   6.670  1.2209 -1.2198  0.7210
 2879SOL    HW2 9322   0.921   4.379   6.602 -2.3197  0.6348  0.0728
 2880SOL     OW 9323   4.057   2.269   4.531  0.0196  0.2029  0.5046
 2880SOL    HW1 9324   4.125   2.316   4.580  0.0424 -0.7673  1.4238
 2880SOL    HW2 9325   4.053   2.183   4.572 -0.1351 -0.5638 -1.0419
 2881SOL     OW 9326   6.454   6.137   6.007  0.0941 -0.3991 -0.1870
 2881SOL    HW1 9327   6.383   6.073   5.998  1.2664 -1.6814 -0.8551
 2881SOL    HW2 9328   6.515   6.096   6.069  1.2407 -0.3002 -1.2167
 2882SOL     OW 9329   5.793   5.775   1.601  0.0574  0.2118  0.2118
 2882SOL    HW1 9330   5.752   5.694   1.571  0.7093  0.6693 -2.1545
 2882SOL    HW2 9331   5.782   5.835   1.527  1.4058  1.6079  1.1004
 2883SOL     OW 9332   1.414   1.906   1.889  0.5371 -0.1855 -0.1071
 2883SOL    HW1 9333   1.420   1.842   1.819 -0.3035  0.2554 -0.5964
 2883SOL    HW2 9334   1.403   1.854   1.969 -1.6682 -0.6404 -0.6705
 2884SOL     OW 9335   3.984   1.060   5.647  0.3184  0.0259 -0.2241
 2884SOL    HW1 9336   3.921   1.102   5.706 -0.3928 -0.7101 -0.4362
 2884SOL    HW2 9337   4.069   1.080   5.684  0.0199  1.7448 -0.3746
 2885SOL     OW 9338   1.258   4.928   5.950 -0.1962 -0.2213  0.3308
 2885SOL    HW1 9339   1.323   4.940   5.881 -1.4725 -0.3423 -0.9448
 2885SOL    HW2 9340   1.300   4.868   6.012  0.7518 -0.6207 -0.6579
 2886SOL     OW 9341   6.289   5.720   3.361 -0.3177  0.0323 -0.3001
 2886SOL    HW1 9342   6.377   5.729   3.399  0.6789 -0.4959 -2.3359
 2886SOL    HW2 9343   6.256   5.810   3.356  0.2133  0.2657  0.2625
 2887SOL     OW 9344   4.636   3.372   2.666 -0.2955 -0.3581  0.5342
 2887SOL    HW1 9345   4.641   3.456   2.712 -0.9456  1.4646 -2.4339
 2887SOL    HW2 9346   4.543   3.360   2.649 -0.2047 -1.7031  0.9011
 2888SOL     OW 9347   4.309   3.442   5.425  0.1455 -0.4316 -0.0284
 2888SOL    HW1 9348   4.372   3.426   5.495  1.6725  0.6897 -1.0628
 2888SOL    HW2 9349   4.232   3.390   5.448  0.9097 -0.7181  2.0314
 2889SOL     OW 9350   2.357   3.983   2.989 -0.2774 -0.6229  0.1045
 2889SOL    HW1 9351   2.450   3.965   2.976 -0.4716 -2.4464  0.8550
 2889SOL    HW2 9352   2.312   3.904   2.958 -1.5981  0.2681 -0.3592
 2890SOL     OW 9353   5.923   0.093   3.066 -0.3210 -0.1281  0.7525
 2890SOL    HW1 9354   5.980   0.153   3.018  1.5033 -2.5867 -0.4046
 2890SOL    HW2 9355   5.982   0.048   3.127 -1.1162 -2.1117  0.1543
 2891SOL     OW 9356   3.389   2.697   6.000 -0.0350  0.3111 -0.1288
 2891SOL    HW1 9357   3.370   2.604   6.007 -0.7624  0.5381  1.4807
 2891SOL    HW2 9358   3.382   2.730   6.090  2.0240  1.5936 -0.3653
 2892SOL     OW 9359   5.783   3.655   3.410  0.1897 -0.4089  0.0741
 2892SOL    HW1 9360   5.688   3.648   3.418  0.3900 -1.8281  1.5416
 2892SOL    HW2 9361   5.803   3.742   3.445 -0.5081 -0.3396  0.3277
 2893SOL     OW 9362   2.727   4.237   5.627 -0.0973  0.0373  0.0457
 2893SOL    HW1 9363   2.766   4.214   5.711 -0.4787 -0.4542  0.0927
 2893SOL    HW2 9364   2.648   4.286   5.650 -0.2915 -0.2412 -0.0173
 2894SOL     OW 9365   5.605   4.707   2.072  0.0853 -0.6219  0.2541
 2894SOL    HW1 9366   5.625   4.625   2.026 -1.6556 -1.2393  0.5003
 2894SOL    HW2 9367   5.632   4.776   2.012  2.1776 -1.3287  0.2981
 2895SOL     OW 9368   3.582   0.905   1.913 -0.0069  0.1929 -0.2624
 2895SOL    HW1 9369   3.541   0.836   1.860 -1.3463 -0.0519  1.0370
 2895SOL    HW2 9370   3.631   0.858   1.981  0.4072  0.5193 -0.3289
 2896SOL     OW 9371   0.173   3.096   2.993  0.1019  0.2075  0.4464
 2896SOL    HW1 9372   0.180   3.189   3.015 -1.5015  0.1554  1.3240
 2896SOL    HW2 9373   0.111   3.061   3.057  1.5438 -1.7381  0.8853
 2897SOL     OW 9374   1.027   0.631   4.251  0.2844  0.8853  0.1763
 2897SOL    HW1 9375   1.037   0.537   4.263 -1.2442  0.8687  1.5975
 2897SOL    HW2 9376   1.061   0.648   4.162 -0.2867 -1.1285 -0.4650
 2898SOL     OW 9377   3.723   2.909   4.045 -0.1630  0.1502  0.1821
 2898SOL    HW1 9378   3.722   2.826   3.996  1.0935 -0.3285  0.9409
 2898SOL    HW2 9379   3.720   2.976   3.977 -1.9401 -0.4789 -0.4318
 2899SOL     OW 9380   0.612   5.609   4.531  0.5212  0.0079 -0.2013
 2899SOL    HW1 9381   0.683   5.567   4.580  0.5103  0.9972  0.7028
 2899SOL    HW2 9382   0.650   5.627   4.445  1.5930  1.0287  0.4406
 2900SOL     OW 9383   0.694   5.135   4.082  0.0431  0.0984 -0.6693
 2900SOL    HW1 9384   0.662   5.183   4.005  0.9919  2.0092  0.0824
 2900SOL    HW2 9385   0.728   5.202   4.140 -1.5205 -1.1673  1.9061
 2901SOL     OW 9386   1.896   0.504   1.813 -0.0297  0.5590 -0.0962
 2901SOL    HW1 9387   1.963   0.556   1.858  1.9621 -1.3315 -0.7054
 2901SOL    HW2 9388   1.846   0.463   1.884 -0.4036  1.7610  0.3642
 2902SOL     OW 9389   3.124   1.146   4.579 -0.8809 -0.1211 -0.2100
 2902SOL    HW1 9390   3.165   1.147   4.493  2.3374  0.7909  1.1952
 2902SOL    HW2 9391   3.054   1.211   4.572 -0.1130  0.5861 -1.8950
 2903SOL     OW 9392   4.370   2.766   1.469  0.5002 -0.7331  0.1482
 2903SOL    HW1 9393   4.379   2.706   1.543  0.4476 -0.9905 -0.0512
 2903SOL    HW2 9394   4.456   2.807   1.461  0.0456  0.5422  1.3958
 2904SOL     OW 9395   0.942   1.724   4.959 -0.5189  0.1237  0.3365
 2904SOL    HW1 9396   0.967   1.759   5.045 -1.0413  0.7267  0.2568
 2904SOL    HW2 9397   1.009   1.659   4.939 -0.3457  0.0293  1.1669
 2905SOL     OW 9398   4.140   6.630   6.417 -0.2888 -0.2351 -0.1832
 2905SOL    HW1 9399   4.073   6.570   6.449 -2.3918  1.1902 -1.6400
 2905SOL    HW2 9400   4.196   6.577   6.361 -0.4558 -1.3532  0.6701
 2906SOL     OW 9401   3.264   2.111   0.692 -0.1265 -0.1459  0.1762
 2906SOL    HW1 9402   3.263   2.060   0.611 -0.0230 -0.6099  0.4631
 2906SOL    HW2 9403   3.243   2.201   0.664 -0.9896 -0.4669 -0.2397
 2907SOL     OW 9404   2.293   0.149   2.362 -0.0979 -0.0428 -0.9764
 2907SOL    HW1 9405   2.228   0.115   2.301 -1.7419  1.0475  0.0699
 2907SOL    HW2 9406   2.264   0.119   2.448 -0.7839  2.5862 -0.1902
 2908SOL     OW 9407   5.223   1.591   3.126 -0.4404  0.4749  0.0699
 2908SOL    HW1 9408   5.240   1.602   3.032  1.6260 -1.1000  0.1909
 2908SOL    HW2 9409   5.212   1.496   3.137  1.0747  0.4226  1.6177
 2909SOL     OW 9410   5.233   2.369   5.456 -0.5105  0.5783 -0.1782
 2909SOL    HW1 9411   5.216   2.379   5.363  0.2495 -0.1233 -0.4083
 2909SOL    HW2 9412   5.221   2.275   5.473  0.5462  0.4822  0.1565
 2910SOL     OW 9413   4.881   6.265   3.153  0.1871  0.0431 -0.6377
 2910SOL    HW1 9414   4.893   6.171   3.166  1.2866 -0.2216 -3.0343
 2910SOL    HW2 9415   4.842   6.272   3.066  0.4790  1.8275 -0.6646
 2911SOL     OW 9416   6.153   5.451   6.233 -0.3500 -0.0124  0.2508
 2911SOL    HW1 9417   6.144   5.432   6.326 -0.2638  0.4383  0.3518
 2911SOL    HW2 9418   6.246   5.468   6.220 -0.5427  1.1481  0.3226
 2912SOL     OW 9419   1.419   3.639   3.314 -0.2476 -0.0786 -0.6299
 2912SOL    HW1 9420   1.491   3.578   3.328  0.7904  1.1878 -0.2707
 2912SOL    HW2 9421   1.362   3.626   3.390  1.6626  1.6591  1.2288
 2913SOL     OW 9422   1.369   0.933   1.535 -0.2541  0.1921 -0.0641
 2913SOL    HW1 9423   1.462   0.949   1.552 -0.2388  0.0219  0.0183
 2913SOL    HW2 9424   1.325   1.014   1.563 -0.1674  0.1337  0.2504
 2914SOL     OW 9425   1.405   3.009   0.593  0.1694  0.2808  0.0095
 2914SOL    HW1 9426   1.314   3.016   0.566  0.3679 -0.7952 -1.0275
 2914SOL    HW2 9427   1.431   3.099   0.614 -1.0196  0.6459 -0.0096
 2915SOL     OW 9428   0.816   6.664   2.377  0.2883  0.2180 -0.8906
 2915SOL    HW1 9429   0.845   6.581   2.415 -0.6429 -0.0886 -0.8203
 2915SOL    HW2 9430   0.727   6.675   2.409  1.1530  2.4243  1.0211
 2916SOL     OW 9431   2.105   0.561   1.987 -0.4589  0.1610  0.1990
 2916SOL    HW1 9432   2.133   0.475   2.019 -2.6947 -0.7963 -0.2434
 2916SOL    HW2 9433   2.172   0.585   1.923  0.0453 -1.4190  0.0722
 2917SOL     OW 9434   4.813   4.410   3.293 -0.8950 -0.1632  0.0126
 2917SOL    HW1 9435   4.762   4.489   3.308 -1.7877 -0.4595 -1.2731
 2917SOL    HW2 9436   4.769   4.342   3.343 -0.7694 -0.0714  0.2474
 2918SOL     OW 9437   4.045   6.182   4.169 -0.1633 -0.3146 -0.8311
 2918SOL    HW1 9438   4.103   6.149   4.237 -1.0758  0.5524  0.4213
 2918SOL    HW2 9439   3.959   6.184   4.211 -0.3494  2.5079 -1.1814
 2919SOL     OW 9440   4.919   2.369   2.365 -0.2938  0.2340  0.2557
 2919SOL    HW1 9441   4.927   2.405   2.454 -0.5881  0.6272  0.1283
 2919SOL    HW2 9442   5.006   2.337   2.344 -0.3907 -0.5773  0.9873
 2920SOL     OW 9443   4.505   5.362   2.512  0.4102  0.7283  0.6640
 2920SOL    HW1 9444   4.454   5.419   2.570  0.4304  1.5984 -0.1577
 2920SOL    HW2 9445   4.505   5.407   2.428 -2.5015 -2.0852 -1.0773
 2921SOL     OW 9446   3.414   1.096   0.154  0.3515  0.2775 -0.3908
 2921SOL    HW1 9447   3.342   1.118   0.094 -1.3129 -1.6153  0.7694
 2921SOL    HW2 9448   3.457   1.022   0.113  1.8811  1.5443 -1.1919
 2922SOL     OW 9449   6.106   5.136   3.209  0.8416  0.6132  0.2256
 2922SOL    HW1 9450   6.053   5.198   3.260  0.5887  0.1017  0.5889
 2922SOL    HW2 9451   6.180   5.116   3.266  0.0803 -0.6895  0.8076
 2923SOL     OW 9452   1.055   4.385   1.061 -0.0191 -0.2479  0.1618
 2923SOL    HW1 9453   0.987   4.359   1.123 -0.7942  1.9771  0.3672
 2923SOL    HW2 9454   1.125   4.321   1.072 -0.6221 -0.5848  2.5271
 2924SOL     OW 9455   0.083   0.022   0.652  0.0576  0.1916  0.4231
 2924SOL    HW1 9456   0.105   0.007   0.744  0.0798 -0.5283  0.3050
 2924SOL    HW2 9457   0.069  -0.066   0.616 -1.3096  0.5374  0.0699
 2925SOL     OW 9458   6.400   6.669   3.745 -0.6478  0.3686 -0.2533
 2925SOL    HW1 9459   6.409   6.745   3.687 -1.4013  0.7101  0.0668
 2925SOL    HW2 9460   6.458   6.603   3.707  1.2609  1.6120  0.3562
 2926SOL     OW 9461   4.721   1.588   1.500  0.0297 -0.0979 -0.1548
 2926SOL    HW1 9462   4.646   1.586   1.441  0.2697 -0.0749 -0.4595
 2926SOL    HW2 9463   4.796   1.571   1.444  0.1894 -0.7480  0.2516
 2927SOL     OW 9464   6.063   4.025   2.664 -0.2513  0.2146 -0.1756
 2927SOL    HW1 9465   6.118   3.961   2.620  1.2397  1.1587  0.2485
 2927SOL    HW2 9466   5.986   4.033   2.608 -0.5367 -1.9733 -0.2051
 2928SOL     OW 9467   1.622   1.810   1.136 -0.5380  0.2701 -0.3147
 2928SOL    HW1 9468   1.544   1.855   1.168 -0.9003 -0.6682  0.1534
 2928SOL    HW2 9469   1.590   1.726   1.104  0.4326 -0.7657  1.2627
 2929SOL     OW 9470   2.383   2.815   3.283  0.6614 -0.0456  0.0607
 2929SOL    HW1 9471   2.368   2.739   3.339  1.3978  0.0625  0.4124
 2929SOL    HW2 9472   2.401   2.778   3.196 -3.3348 -0.1781 -0.9134
 2930SOL     OW 9473   2.062   3.300   4.045  0.5959 -0.2121 -0.2039
 2930SOL    HW1 9474   1.967   3.296   4.036  0.1922 -0.3109  2.9192
 2930SOL    HW2 9475   2.085   3.222   4.095  2.1925  0.2634 -0.1416
 2931SOL     OW 9476   3.963   3.968   5.262 -0.3568 -0.1921  0.0339
 2931SOL    HW1 9477   3.883   3.968   5.315  0.0006 -2.1461  0.6681
 2931SOL    HW2 9478   3.932   3.953   5.173 -0.6707 -2.3981  0.4601
 2932SOL     OW 9479   2.472   3.391   4.748 -0.6619  1.0825 -0.2626
 2932SOL    HW1 9480   2.525   3.311   4.745  0.6311  1.9285 -0.8936
 2932SOL    HW2 9481   2.476   3.426   4.659 -2.7853  0.8845 -0.4741
 2933SOL     OW 9482   6.764   6.725   1.190 -0.2633  0.3636 -0.1215
 2933SOL    HW1 9483   6.845   6.679   1.214 -0.3418 -0.5947 -1.5847
 2933SOL    HW2 9484   6.708   6.657   1.152 -1.1214  1.3361 -0.6360
 2934SOL     OW 9485   1.286   2.164   0.234  0.1474  0.4982 -0.1702
 2934SOL    HW1 9486   1.196   2.165   0.266 -0.7447  0.2815 -2.4503
 2934SOL    HW2 9487   1.310   2.071   0.230  0.0182  0.4792 -0.6504
 2935SOL     OW 9488   1.866   6.597   5.141  0.0131  0.4145  0.0237
 2935SOL    HW1 9489   1.827   6.535   5.204  0.6987 -0.3189 -0.2569
 2935SOL    HW2 9490   1.824   6.681   5.161  0.6305  0.3284  1.8460
 2936SOL     OW 9491   6.380   3.657   0.053  0.3937 -0.2642  0.2698
 2936SOL    HW1 9492   6.466   3.647   0.092 -0.1602 -3.2372  0.9478
 2936SOL    HW2 9493   6.377   3.594  -0.019 -1.2741 -0.4332  0.4303
 2937SOL     OW 9494   6.373   4.805   6.235 -0.3829  0.3133  0.2287
 2937SOL    HW1 9495   6.386   4.894   6.269 -1.2132  1.0729 -1.3173
 2937SOL    HW2 9496   6.285   4.781   6.264 -0.4787  0.3233 -0.0559
 2938SOL     OW 9497   5.012   5.966   5.097 -0.9604 -0.6638  0.2667
 2938SOL    HW1 9498   4.986   6.056   5.078 -0.2226  0.0758  2.4045
 2938SOL    HW2 9499   5.034   5.929   5.012 -0.2640  1.5147 -0.5782
 2939SOL     OW 9500   0.348   4.164   4.261 -0.4103  0.0092  0.5242
 2939SOL    HW1 9501   0.427   4.117   4.234 -0.2413  0.7639 -0.3157
 2939SOL    HW2 9502   0.381   4.240   4.310 -0.4692  1.5085 -1.6135
 2940SOL     OW 9503   5.061   3.089   5.039  1.0218  0.9208  0.0201
 2940SOL    HW1 9504   5.055   3.140   5.121 -1.4936  1.4060 -0.3750
 2940SOL    HW2 9505   5.061   3.155   4.970 -0.7142  0.4764 -0.4502
 2941SOL     OW 9506   5.868   1.283   5.042  0.4453  0.0382 -0.0389
 2941SOL    HW1 9507   5.907   1.273   5.129  0.2726  0.1810  0.0559
 2941SOL    HW2 9508   5.795   1.343   5.056  0.8421  0.6192 -0.4023
 2942SOL     OW 9509   1.807   1.465   5.546 -0.3639  0.1058  0.6071
 2942SOL    HW1 9510   1.723   1.427   5.570 -0.8429  1.8836  1.9631
 2942SOL    HW2 9511   1.869   1.428   5.609 -0.2127 -0.8138 -0.0704
 2943SOL     OW 9512   5.743   1.052   4.832  0.1179 -0.2303  0.1780
 2943SOL    HW1 9513   5.826   1.018   4.799 -0.7037 -0.9077 -1.3064
 2943SOL    HW2 9514   5.767   1.134   4.877  1.3664  0.7232 -2.0430
 2944SOL     OW 9515   1.227   2.811   0.182  0.2285  0.2560 -0.4975
 2944SOL    HW1 9516   1.213   2.848   0.094 -0.9820 -3.1325 -1.9145
 2944SOL    HW2 9517   1.145   2.828   0.228 -0.0471 -0.0172 -0.8780
 2945SOL     OW 9518   0.985   3.375   1.011 -0.1873 -0.1291  0.1161
 2945SOL    HW1 9519   0.911   3.346   1.065 -0.5497 -0.0799 -0.3512
 2945SOL    HW2 9520   0.999   3.303   0.949  0.2823 -0.2217  0.3260
 2946SOL     OW 9521   2.614   3.003   0.508  0.3848  0.3519 -0.4573
 2946SOL    HW1 9522   2.522   3.008   0.481 -0.6557  2.0899  2.8258
 2946SOL    HW2 9523   2.649   3.090   0.488  1.4267 -0.3695 -1.8795
 2947SOL     OW 9524   0.645   3.720   3.170 -0.3740  0.7649  0.3964
 2947SOL    HW1 9525   0.605   3.636   3.191 -0.9239  0.6890 -0.9053
 2947SOL    HW2 9526   0.692   3.745   3.250  0.2980 -1.0545  0.6105
 2948SOL     OW 9527   0.568   1.879   1.368 -0.5636 -0.1696 -0.0976
 2948SOL    HW1 9528   0.595   1.914   1.283 -0.6922 -1.0734 -0.5237
 2948SOL    HW2 9529   0.641   1.825   1.397 -0.6058 -0.0358  0.2703
 2949SOL     OW 9530   4.876   1.414   6.221 -0.2339 -0.1169 -0.9524
 2949SOL    HW1 9531   4.872   1.494   6.170  1.1479 -0.1488 -1.1492
 2949SOL    HW2 9532   4.848   1.345   6.161 -2.9917  0.3664 -0.3239
 2950SOL     OW 9533   3.063   5.455   5.654 -0.2660  0.0028  0.2699
 2950SOL    HW1 9534   3.001   5.392   5.690 -1.1496  1.3189  1.1221
 2950SOL    HW2 9535   3.129   5.466   5.723  0.7887 -1.1653 -0.5127
 2951SOL     OW 9536   3.603   1.308   5.985  0.2450 -0.0608  0.2743
 2951SOL    HW1 9537   3.526   1.344   6.029 -0.8093 -1.4516 -0.3512
 2951SOL    HW2 9538   3.568   1.242   5.925  2.0184 -1.8677  1.0914
 2952SOL     OW 9539   1.032   3.582   4.883 -0.6258  0.1886 -0.6306
 2952SOL    HW1 9540   1.102   3.531   4.843 -0.8653 -1.0689  0.5033
 2952SOL    HW2 9541   0.993   3.629   4.809 -0.0377 -0.8250 -1.6318
 2953SOL     OW 9542   1.756   5.373   3.959 -0.7500 -0.3752 -0.3905
 2953SOL    HW1 9543   1.847   5.344   3.951 -0.3385  0.2192  1.7126
 2953SOL    HW2 9544   1.740   5.421   3.878  0.6192 -0.9505 -1.0455
 2954SOL     OW 9545   1.882   2.467   1.695  0.2137  0.1254 -0.3044
 2954SOL    HW1 9546   1.791   2.497   1.698 -0.1727 -0.9226 -0.7411
 2954SOL    HW2 9547   1.895   2.420   1.778 -0.5674 -2.1070 -1.3482
 2955SOL     OW 9548   5.906   0.747   5.073  0.0032 -0.1688  0.1190
 2955SOL    HW1 9549   5.857   0.808   5.128 -0.1879  0.5532 -0.8192
 2955SOL    HW2 9550   5.840   0.691   5.033  0.2287 -1.5466  1.5651
 2956SOL     OW 9551   4.160   6.159   0.166 -0.4600 -0.0973  0.1903
 2956SOL    HW1 9552   4.225   6.229   0.156 -0.8931  0.1632 -0.9360
 2956SOL    HW2 9553   4.106   6.187   0.239 -1.9320  1.8496 -1.5189
 2957SOL     OW 9554   3.285   2.644   1.443 -0.3146 -0.5388  0.4080
 2957SOL    HW1 9555   3.250   2.631   1.355  1.0597  0.2305 -0.2956
 2957SOL    HW2 9556   3.254   2.568   1.493  0.2629 -1.8796 -1.1799
 2958SOL     OW 9557   1.317   3.206   4.491  0.0231 -0.6165 -0.2949
 2958SOL    HW1 9558   1.368   3.271   4.540  2.5163 -2.7848  0.1797
 2958SOL    HW2 9559   1.336   3.225   4.399  0.1444 -0.2374 -0.1943
 2959SOL     OW 9560   4.476   4.010   3.456  0.0816 -0.2740 -0.4768
 2959SOL    HW1 9561   4.414   4.005   3.529 -2.4024  2.0337 -2.2479
 2959SOL    HW2 9562   4.500   3.919   3.439  0.0725 -0.9764  2.5750
 2960SOL     OW 9563   6.389   2.468   1.546 -0.2145 -0.5754  0.2353
 2960SOL    HW1 9564   6.354   2.557   1.546 -0.5882 -0.7204  0.2381
 2960SOL    HW2 9565   6.473   2.475   1.500 -1.0867 -0.5384 -1.4554
 2961SOL     OW 9566   5.789   0.874   4.500  0.1592  0.1374 -0.5512
 2961SOL    HW1 9567   5.880   0.852   4.521 -0.2760 -0.2709  1.0612
 2961SOL    HW2 9568   5.748   0.789   4.480  0.3200  0.4138 -2.1625
 2962SOL     OW 9569   1.444   2.759   3.494 -0.4236  0.0508 -0.3809
 2962SOL    HW1 9570   1.374   2.823   3.480 -1.1940 -0.8589 -0.8119
 2962SOL    HW2 9571   1.444   2.745   3.589 -0.8740  0.0255 -0.3801
 2963SOL     OW 9572   1.832   0.310   3.872  0.7649 -0.0055  0.4738
 2963SOL    HW1 9573   1.785   0.382   3.914  0.0632 -0.5261  0.6007
 2963SOL    HW2 9574   1.917   0.347   3.849 -0.1041  1.3189 -0.8095
 2964SOL     OW 9575   3.912   6.819   3.769 -0.1837  0.1730  0.5348
 2964SOL    HW1 9576   3.977   6.880   3.804 -1.5735  0.7154  2.3707
 2964SOL    HW2 9577   3.912   6.747   3.832  0.8325 -1.3636 -1.1566
 2965SOL     OW 9578   6.353   1.041   1.336 -0.6604  0.0732  0.5681
 2965SOL    HW1 9579   6.308   1.096   1.399 -1.5326 -1.0038  0.9209
 2965SOL    HW2 9580   6.398   0.975   1.389  1.8694  1.4530  0.2589
 2966SOL     OW 9581   2.965   4.160   6.003  0.0911 -0.1731 -0.3966
 2966SOL    HW1 9582   3.020   4.160   5.925 -0.6264  0.0575 -0.9123
 2966SOL    HW2 9583   2.879   4.129   5.972  0.1329 -1.2764  0.5405
 2967SOL     OW 9584   4.717   5.427   2.178 -0.4472  0.1653  0.6702
 2967SOL    HW1 9585   4.633   5.458   2.212 -0.7482  2.3119 -1.7442
 2967SOL    HW2 9586   4.783   5.477   2.225 -0.6659  0.4235  0.7009
 2968SOL     OW 9587   1.910   5.124   4.279 -0.4511  0.8971 -0.1391
 2968SOL    HW1 9588   1.970   5.051   4.260  0.8506  1.7597  0.5470
 2968SOL    HW2 9589   1.965   5.202   4.276 -1.4351  1.6688  1.0357
 2969SOL     OW 9590   3.700   1.185   1.008  0.1991 -0.4663 -0.5687
 2969SOL    HW1 9591   3.752   1.233   0.943  0.8677  0.2436  0.4449
 2969SOL    HW2 9592   3.764   1.128   1.052 -0.4409 -1.7016 -1.2202
 2970SOL     OW 9593   6.268   1.245   2.182  0.0798  0.6615 -0.9241
 2970SOL    HW1 9594   6.330   1.173   2.186 -0.6294  0.1006  1.8208
 2970SOL    HW2 9595   6.285   1.296   2.261 -3.5561 -0.1283  0.5681
 2971SOL     OW 9596   3.006   1.231   6.467 -0.2140 -0.2146  0.1194
 2971SOL    HW1 9597   3.024   1.323   6.450 -0.6915 -0.4748 -2.1268
 2971SOL    HW2 9598   2.911   1.227   6.480 -0.1528 -0.3531  0.5352
 2972SOL     OW 9599   2.570   1.089   0.408  0.2856 -0.2306  0.2167
 2972SOL    HW1 9600   2.491   1.036   0.410 -0.2866  0.5450 -0.8493
 2972SOL    HW2 9601   2.639   1.030   0.439 -0.5052 -1.2580  0.0847
 2973SOL     OW 9602   1.756   0.771   0.817 -0.0985  0.3415 -0.4340
 2973SOL    HW1 9603   1.852   0.773   0.823 -0.1186  1.7504 -0.3459
 2973SOL    HW2 9604   1.733   0.681   0.840  1.0622  0.5281  1.7544
 2974SOL     OW 9605   0.424   2.914   0.974 -0.3453  0.0285  0.4981
 2974SOL    HW1 9606   0.481   2.895   1.048  0.5051 -0.8723 -0.3396
 2974SOL    HW2 9607   0.413   3.009   0.975  0.4854  0.1293  1.1792
 2975SOL     OW 9608   2.720   0.636   0.712  0.0775 -0.0624 -0.3270
 2975SOL    HW1 9609   2.661   0.601   0.645 -0.1319  2.3456 -1.5073
 2975SOL    HW2 9610   2.790   0.571   0.718 -1.8137 -2.2154 -0.0370
 2976SOL     OW 9611   2.084   0.478   4.462  0.0284  0.1238 -0.2693
 2976SOL    HW1 9612   2.130   0.555   4.428  0.2687  0.3640  0.5633
 2976SOL    HW2 9613   2.062   0.501   4.552 -0.8755 -0.3672 -0.3489
 2977SOL     OW 9614   4.681   3.781   5.074 -0.5059  0.4352  0.4492
 2977SOL    HW1 9615   4.599   3.803   5.118 -0.6075 -1.2681  1.2207
 2977SOL    HW2 9616   4.653   3.738   4.993 -0.4742 -1.3090  1.3002
 2978SOL     OW 9617   5.018   5.878   4.215  0.3646 -0.4850  0.0745
 2978SOL    HW1 9618   5.060   5.801   4.252  0.4874 -1.3885 -1.7890
 2978SOL    HW2 9619   5.032   5.948   4.279  2.6485 -1.3259  0.5684
 2979SOL     OW 9620   6.529   5.553   5.982  1.1064 -0.1351 -0.2401
 2979SOL    HW1 9621   6.433   5.553   5.973  1.1225 -1.2797 -0.5616
 2979SOL    HW2 9622   6.561   5.581   5.896  1.0539  0.4588 -0.0650
 2980SOL     OW 9623   1.453   5.292   5.375  0.3885  0.0806 -0.0157
 2980SOL    HW1 9624   1.417   5.326   5.293  0.3974 -0.4572 -0.2508
 2980SOL    HW2 9625   1.472   5.200   5.355 -1.1514 -0.5096  1.0608
 2981SOL     OW 9626   0.458   3.894   3.468 -0.1468  0.2753  0.3063
 2981SOL    HW1 9627   0.545   3.895   3.507  0.3498 -0.2892 -0.7373
 2981SOL    HW2 9628   0.422   3.981   3.485 -0.4087 -0.2628  2.9570
 2982SOL     OW 9629   3.799   0.074   4.385 -0.3923  0.2185 -0.2727
 2982SOL    HW1 9630   3.851   0.142   4.342 -2.1180  0.3939 -2.2984
 2982SOL    HW2 9631   3.841   0.061   4.470  1.5462  1.9207 -0.8835
 2983SOL     OW 9632   4.000   3.500   3.189  0.0260 -0.6967  0.2328
 2983SOL    HW1 9633   3.926   3.446   3.216 -0.5166 -0.7273 -1.2076
 2983SOL    HW2 9634   4.019   3.555   3.264 -1.1230 -1.0556  0.8052
 2984SOL     OW 9635   1.532   6.185   5.043 -0.3543  0.1157  0.4057
 2984SOL    HW1 9636   1.492   6.146   5.121  1.7251 -1.5944  0.7298
 2984SOL    HW2 9637   1.548   6.110   4.985  1.0335  0.9093 -0.2809
 2985SOL     OW 9638   2.077   6.306   2.408  0.4709 -0.1665  0.3697
 2985SOL    HW1 9639   2.041   6.339   2.326  1.6618  0.2907  0.0070
 2985SOL    HW2 9640   2.011   6.327   2.474 -0.6999 -0.9389 -0.5200
 2986SOL     OW 9641   1.187   6.849   2.669  0.2468  0.4880  0.3384
 2986SOL    HW1 9642   1.236   6.789   2.613  0.7310  0.5308  0.7184
 2986SOL    HW2 9643   1.210   6.936   2.636 -2.1001  0.4758 -1.6374
 2987SOL     OW 9644   5.825   0.294   1.833  0.5147 -0.4882  0.5649
 2987SOL    HW1 9645   5.845   0.201   1.825  0.6919 -0.4400  0.4468
 2987SOL    HW2 9646   5.892   0.329   1.891 -0.0126 -0.5857  1.2446
 2988SOL     OW 9647   2.213   5.818   3.626 -0.0522  0.0661  0.0051
 2988SOL    HW1 9648   2.299   5.781   3.644  0.1274  0.8402  0.7780
 2988SOL    HW2 9649   2.224   5.861   3.541  0.7641  1.4315  0.7641
 2989SOL     OW 9650   0.106   2.248   1.591 -0.3673 -0.4496 -0.0360
 2989SOL    HW1 9651   0.195   2.217   1.611 -0.4535  0.5411  2.1637
 2989SOL    HW2 9652   0.050   2.198   1.650 -0.9759  0.7692  0.4349
 2990SOL     OW 9653   4.793   3.359   5.247  0.1700  0.4447 -0.0601
 2990SOL    HW1 9654   4.764   3.302   5.318  2.7955 -1.6245 -0.5095
 2990SOL    HW2 9655   4.714   3.374   5.195 -1.0632 -0.9823  1.3108
 2991SOL     OW 9656   3.404   1.253   4.543 -0.1767  0.1797 -0.2564
 2991SOL    HW1 9657   3.468   1.284   4.479 -0.3915 -0.4020 -0.7625
 2991SOL    HW2 9658   3.321   1.249   4.495 -0.9696  2.4517  0.7996
 2992SOL     OW 9659   6.066   6.895   5.956  0.2321  0.1839 -0.2886
 2992SOL    HW1 9660   6.075   6.850   5.873 -0.6875 -0.6812  0.0532
 2992SOL    HW2 9661   5.992   6.851   5.999  0.7700  0.5270  1.0345
 2993SOL     OW 9662   5.573   4.496   2.649 -0.1989  0.5865  0.3106
 2993SOL    HW1 9663   5.594   4.405   2.630  1.9642  1.5016 -2.5320
 2993SOL    HW2 9664   5.645   4.546   2.608 -0.2172  3.5279  3.4112
 2994SOL     OW 9665   4.047   0.448   1.663 -0.0444  0.4658  0.1282
 2994SOL    HW1 9666   3.972   0.507   1.664 -0.6768 -0.3247  0.3006
 2994SOL    HW2 9667   4.107   0.486   1.599  0.6993  2.6565  1.9726
 2995SOL     OW 9668   2.378   5.391   1.148 -0.3592  0.5472 -0.0533
 2995SOL    HW1 9669   2.438   5.443   1.202  1.3303 -1.2640 -0.0780
 2995SOL    HW2 9670   2.433   5.356   1.079 -1.5773 -0.7155 -0.4238
 2996SOL     OW 9671   1.094   5.876   6.268  0.0468 -0.0884  0.4557
 2996SOL    HW1 9672   1.033   5.814   6.308  0.6513  0.1565  1.8246
 2996SOL    HW2 9673   1.129   5.926   6.342 -0.8305  2.2891 -0.6259
 2997SOL     OW 9674   4.376   1.146   6.361 -0.2823  0.3354 -0.0710
 2997SOL    HW1 9675   4.460   1.186   6.384  0.2930  0.1939 -1.7944
 2997SOL    HW2 9676   4.374   1.147   6.265 -0.9574 -2.2774 -0.1550
 2998SOL     OW 9677   1.334   5.218   3.130  0.1518 -0.2896  0.3735
 2998SOL    HW1 9678   1.425   5.240   3.144  0.4850 -1.7518  0.7413
 2998SOL    HW2 9679   1.333   5.173   3.045  0.0935 -1.8227  1.1547
 2999SOL     OW 9680   3.157   0.711   5.554 -0.4759 -0.9252  0.0552
 2999SOL    HW1 9681   3.074   0.759   5.543 -1.7438 -3.4186 -2.2041
 2999SOL    HW2 9682   3.216   0.751   5.491 -0.2467  0.1026  0.8755
 3000SOL     OW 9683   6.341   3.172   4.490  0.1161  0.0824 -0.1551
 3000SOL    HW1 9684   6.282   3.196   4.419  1.8054 -0.2583 -1.7587
 3000SOL    HW2 9685   6.395   3.102   4.454  1.6619  0.5325  1.1380
 3001SOL     OW 9686   1.840   0.813   2.649 -0.8009  0.3484 -0.1966
 3001SOL    HW1 9687   1.800   0.830   2.734  1.6622 -0.1250  1.1371
 3001SOL    HW2 9688   1.879   0.726   2.657 -1.6220 -0.2846 -2.3061
 3002SOL     OW 9689   4.345   5.856   0.291 -0.1483 -0.0245  0.1020
 3002SOL    HW1 9690   4.265   5.852   0.239  0.1063 -0.3110 -0.2793
 3002SOL    HW2 9691   4.410   5.894   0.231  0.1864 -0.4900  0.1671
 3003SOL     OW 9692   3.737   5.221   2.143 -0.5482 -0.2283 -0.6459
 3003SOL    HW1 9693   3.679   5.174   2.202 -1.7743  1.0293 -0.8003
 3003SOL    HW2 9694   3.767   5.154   2.081 -0.6589 -1.1888  0.3045
 3004SOL     OW 9695   3.369   6.327   3.517  0.0741 -0.4468 -0.7275
 3004SOL    HW1 9696   3.453   6.336   3.474 -0.1320 -2.5461 -1.7038
 3004SOL    HW2 9697   3.305   6.322   3.446 -0.4045 -2.7866 -0.2260
 3005SOL     OW 9698   2.986   5.548   3.987 -0.2199  0.3158  0.1408
 3005SOL    HW1 9699   3.026   5.584   3.908  0.4077  0.5937  0.5795
 3005SOL    HW2 9700   2.988   5.620   4.050 -0.5124  0.0285  0.4794
 3006SOL     OW 9701   3.701   4.011   0.196 -0.2516  0.5230  0.1584
 3006SOL    HW1 9702   3.700   4.070   0.271 -2.1856  1.4405 -0.5283
 3006SOL    HW2 9703   3.632   3.946   0.215  0.4988 -0.3491 -0.0025
 3007SOL     OW 9704   0.025   4.505   3.436  0.3950  0.4000 -0.1610
 3007SOL    HW1 9705  -0.034   4.459   3.495 -2.1389  2.0619 -1.2244
 3007SOL    HW2 9706   0.024   4.596   3.465  3.2318  0.3647  0.3204
 3008SOL     OW 9707   0.853   4.084   5.162  0.1109  0.0423  0.3746
 3008SOL    HW1 9708   0.860   4.059   5.070  0.7804 -1.5705  0.8201
 3008SOL    HW2 9709   0.891   4.172   5.167  1.1181 -0.3134 -0.7069
 3009SOL     OW 9710   2.126   1.429   3.462 -0.2579  0.2567  0.2647
 3009SOL    HW1 9711   2.154   1.365   3.397 -0.0864 -1.4022  1.9057
 3009SOL    HW2 9712   2.200   1.439   3.521 -0.8020  0.8429  0.8777
 3010SOL     OW 9713   4.900   1.718   4.273  0.0724  0.7023 -0.1802
 3010SOL    HW1 9714   4.954   1.717   4.194  0.1694  0.5481 -0.1120
 3010SOL    HW2 9715   4.908   1.630   4.308  0.5008  0.9335  0.3187
 3011SOL     OW 9716   5.824   4.038   2.494  0.6913 -0.1139 -0.5031
 3011SOL    HW1 9717   5.737   3.998   2.502  0.6737 -0.0480 -0.3594
 3011SOL    HW2 9718   5.869   3.986   2.428  0.0231  0.7538 -1.6677
 3012SOL     OW 9719   3.878   2.338   4.764  0.3144 -1.2829 -0.3001
 3012SOL    HW1 9720   3.929   2.329   4.683  1.5109  0.9659  0.1223
 3012SOL    HW2 9721   3.792   2.368   4.735  0.7915 -0.3138 -0.7562
 3013SOL     OW 9722   3.894   0.219   3.135  0.0058  0.4156  0.0598
 3013SOL    HW1 9723   3.963   0.204   3.070  1.4418 -1.4148  1.8936
 3013SOL    HW2 9724   3.854   0.134   3.148 -2.4213  1.3751 -0.6533
 3014SOL     OW 9725   0.188   1.261   3.276  0.1393  0.8895  0.3182
 3014SOL    HW1 9726   0.241   1.195   3.321 -0.8688 -0.5511 -0.5074
 3014SOL    HW2 9727   0.229   1.345   3.299  0.6337  0.1019  2.5357
 3015SOL     OW 9728   1.246   0.175   2.514 -0.5515 -0.0266  0.5481
 3015SOL    HW1 9729   1.214   0.260   2.547  0.4266  0.4890  0.2040
 3015SOL    HW2 9730   1.320   0.198   2.458 -1.4994 -0.9743 -1.1481
 3016SOL     OW 9731   4.519   4.187   0.329 -0.3010 -0.4207 -0.4235
 3016SOL    HW1 9732   4.566   4.262   0.365 -1.9581 -0.6546  2.6237
 3016SOL    HW2 9733   4.438   4.225   0.294  0.6613 -0.3892 -2.8310
 3017SOL     OW 9734   2.020   2.623   1.960 -0.0223  0.5997  0.0845
 3017SOL    HW1 9735   1.981   2.691   2.016 -2.1315 -0.7318  0.3188
 3017SOL    HW2 9736   1.964   2.622   1.882 -0.2270 -1.0605  0.2303
 3018SOL     OW 9737   1.238   0.363   2.853  0.1838  0.0254 -0.6705
 3018SOL    HW1 9738   1.242   0.457   2.831 -1.5611  0.0363 -1.0691
 3018SOL    HW2 9739   1.299   0.354   2.926 -1.0430  1.8840  0.6954
 3019SOL     OW 9740   0.003   3.305   2.178 -0.3149 -0.6093  0.2476
 3019SOL    HW1 9741   0.039   3.221   2.149 -0.6587 -0.1244 -1.7127
 3019SOL    HW2 9742  -0.071   3.321   2.119 -1.3922  0.2280  1.7583
 3020SOL     OW 9743   4.589   1.334   4.146  0.1944  0.4773  0.0450
 3020SOL    HW1 9744   4.555   1.399   4.084 -1.8254  2.0162  2.5500
 3020SOL    HW2 9745   4.666   1.376   4.184  2.0547 -0.8999 -2.0608
 3021SOL     OW 9746   4.725   5.756   5.681 -0.3105  0.2540  0.4912
 3021SOL    HW1 9747   4.694   5.698   5.750  0.5722 -0.9061 -0.0652
 3021SOL    HW2 9748   4.655   5.821   5.671 -0.8876 -0.1459  1.7708
 3022SOL     OW 9749   3.092   4.041   4.296 -0.4651 -0.1808 -0.1063
 3022SOL    HW1 9750   3.132   3.976   4.353 -0.3684 -0.2810 -0.2882
 3022SOL    HW2 9751   3.007   4.003   4.272  0.5307 -1.2822 -2.0491
 3023SOL     OW 9752   4.890   4.325   1.700  0.3362 -0.0823 -0.0396
 3023SOL    HW1 9753   4.867   4.247   1.752  1.4831  1.6429  3.3285
 3023SOL    HW2 9754   4.985   4.323   1.695  0.4782  1.6707  1.1917
 3024SOL     OW 9755   5.345   3.970   2.840 -0.4105 -0.4283  0.3939
 3024SOL    HW1 9756   5.323   3.941   2.751 -0.0323 -0.8217  0.4255
 3024SOL    HW2 9757   5.439   3.987   2.838 -0.4693 -0.0669  0.6199
 3025SOL     OW 9758   4.865   0.541   5.760 -0.1667  0.0296 -0.6069
 3025SOL    HW1 9759   4.856   0.535   5.855  0.3711  0.1550 -0.5445
 3025SOL    HW2 9760   4.776   0.527   5.726 -0.1702 -1.1480 -0.1445
 3026SOL     OW 9761   6.074   1.391   0.517  0.5862 -0.3134  0.3066
 3026SOL    HW1 9762   6.013   1.458   0.547  1.3574  0.5905 -0.1342
 3026SOL    HW2 9763   6.092   1.414   0.426  0.1053 -1.6844 -0.1658
 3027SOL     OW 9764   2.310   0.128   3.708  0.0217  0.5113  0.3918
 3027SOL    HW1 9765   2.287   0.035   3.710 -1.0196  0.6490 -1.7001
 3027SOL    HW2 9766   2.370   0.137   3.634 -0.1089  1.5329  0.3882
 3028SOL     OW 9767   0.634   4.242   0.506  0.6292 -0.0386  0.1194
 3028SOL    HW1 9768   0.556   4.200   0.541  0.7818 -0.9242 -0.5883
 3028SOL    HW2 9769   0.661   4.302   0.576 -0.8513  0.5250  0.2542
 3029SOL     OW 9770   1.861   6.259   5.048 -0.2779 -0.0093  0.3611
 3029SOL    HW1 9771   1.838   6.214   5.129 -1.7189 -0.7424 -0.4296
 3029SOL    HW2 9772   1.782   6.254   4.994  0.8851 -0.2362 -1.3999
 3030SOL     OW 9773   1.841   1.609   3.918  0.3756 -0.2198  0.2271
 3030SOL    HW1 9774   1.900   1.564   3.857 -0.0346  0.5340 -0.7458
 3030SOL    HW2 9775   1.892   1.683   3.951  0.4361 -0.3594  0.4523
 3031SOL     OW 9776   6.834   4.140   0.483 -0.0859  0.3465 -0.4846
 3031SOL    HW1 9777   6.893   4.211   0.509 -0.6905  1.0789 -1.0894
 3031SOL    HW2 9778   6.771   4.133   0.555 -0.4586  0.9170 -0.7514
 3032SOL     OW 9779   4.393   6.345   3.758 -0.3862 -0.5581  0.1175
 3032SOL    HW1 9780   4.362   6.351   3.848  1.2449 -0.6388  0.7123
 3032SOL    HW2 9781   4.486   6.324   3.765 -0.1552 -0.3067 -1.5809
 3033SOL     OW 9782   5.724   6.464   3.982 -0.4715  0.2567 -0.5391
 3033SOL    HW1 9783   5.695   6.547   3.946 -0.0267  0.1188 -1.2534
 3033SOL    HW2 9784   5.781   6.427   3.914  0.6217  0.1117  0.4240
 3034SOL     OW 9785   0.810   6.255   4.513 -0.0902 -0.1272  0.0954
 3034SOL    HW1 9786   0.807   6.196   4.437  0.6226  0.6028 -0.5195
 3034SOL    HW2 9787   0.867   6.211   4.575 -0.5482 -0.6554  0.1539
 3035SOL     OW 9788   3.839   0.432   3.672 -0.1395 -0.2583  0.2597
 3035SOL    HW1 9789   3.906   0.440   3.740  0.4080 -0.2621 -0.2660
 3035SOL    HW2 9790   3.793   0.351   3.693  0.3281 -0.4971  0.3743
 3036SOL     OW 9791   1.596   5.373   5.589 -0.2788 -0.7317  0.0081
 3036SOL    HW1 9792   1.535   5.363   5.662  0.8134  0.6606  1.1851
 3036SOL    HW2 9793   1.552   5.331   5.515 -1.8900 -1.2645  1.1953
 3037SOL     OW 9794   5.304   1.104   3.258  0.2348  0.6339  0.7109
 3037SOL    HW1 9795   5.225   1.063   3.296  1.2897  0.9418  3.5040
 3037SOL    HW2 9796   5.308   1.190   3.300  1.9487  0.6853  0.4790
 3038SOL     OW 9797   5.238   6.732   5.817  0.1965  0.1906 -0.3096
 3038SOL    HW1 9798   5.275   6.751   5.903  0.8453  0.2572 -0.5930
 3038SOL    HW2 9799   5.143   6.739   5.829  0.1710 -1.5013  0.7914
 3039SOL     OW 9800   5.553   6.208   1.502  0.1785  0.4040  0.2523
 3039SOL    HW1 9801   5.531   6.138   1.563  0.5875 -1.5174 -1.6975
 3039SOL    HW2 9802   5.548   6.168   1.415  0.8247  2.6908 -0.9389
 3040SOL     OW 9803   4.986   3.904   4.662  0.3145 -0.1373  0.0454
 3040SOL    HW1 9804   5.027   3.957   4.593  0.0205 -0.3167 -0.2698
 3040SOL    HW2 9805   4.897   3.888   4.631  0.4377 -0.9298  0.0697
 3041SOL     OW 9806   3.301   5.170   2.739  0.2434 -0.1178  0.3458
 3041SOL    HW1 9807   3.379   5.223   2.721 -0.8987  1.3818 -0.3912
 3041SOL    HW2 9808   3.228   5.223   2.706 -0.9816 -2.0754 -0.2503
 3042SOL     OW 9809   5.727   1.706   6.149  0.3028 -0.2092  0.1986
 3042SOL    HW1 9810   5.713   1.800   6.158 -0.1217 -0.2121 -0.3928
 3042SOL    HW2 9811   5.716   1.671   6.238 -1.2674  0.0785  0.1469
 3043SOL     OW 9812   4.750   5.810   6.705  0.1549  0.5120  0.0494
 3043SOL    HW1 9813   4.815   5.753   6.746  1.2729  1.4786 -0.2942
 3043SOL    HW2 9814   4.760   5.894   6.751 -3.6787 -0.3072  2.7877
 3044SOL     OW 9815   6.396   1.239   3.253 -0.3896  0.1841  0.0373
 3044SOL    HW1 9816   6.334   1.283   3.195  0.0380  1.5051  0.5188
 3044SOL    HW2 9817   6.413   1.155   3.212 -2.1741 -0.0370 -0.3184
 3045SOL     OW 9818   3.425   3.931   4.837 -0.6661  0.0612  0.1601
 3045SOL    HW1 9819   3.341   3.894   4.811 -0.3453 -1.4810  1.1437
 3045SOL    HW2 9820   3.441   3.895   4.924  0.9125  0.4823  0.0793
 3046SOL     OW 9821   6.607   1.240   4.673 -0.2959  0.3852  0.7594
 3046SOL    HW1 9822   6.692   1.265   4.635 -0.0722 -0.0630  0.9652
 3046SOL    HW2 9823   6.545   1.302   4.635 -0.1746 -0.4126 -0.8198
 3047SOL     OW 9824   0.020   5.725   2.413  0.2849 -0.3382 -0.1891
 3047SOL    HW1 9825   0.056   5.749   2.328  2.6908 -1.6497  0.3716
 3047SOL    HW2 9826   0.027   5.804   2.466 -0.0388  0.1268 -0.8292
 3048SOL     OW 9827   6.535   0.712   1.753 -0.1216  0.1925  0.0710
 3048SOL    HW1 9828   6.564   0.671   1.671 -2.3154  0.3506 -0.8517
 3048SOL    HW2 9829   6.503   0.639   1.806  3.7364 -0.3160  2.0600
 3049SOL     OW 9830   1.408   0.105   1.052  0.1393 -0.0961  0.3117
 3049SOL    HW1 9831   1.317   0.120   1.076 -0.2617 -1.9856  0.0932
 3049SOL    HW2 9832   1.410   0.015   1.019  1.6899  0.5626 -1.6043
 3050SOL     OW 9833   6.168   6.868   3.821  0.4211  0.1243 -0.1226
 3050SOL    HW1 9834   6.245   6.898   3.869 -0.4434  1.3730  0.5486
 3050SOL    HW2 9835   6.173   6.773   3.824  1.8298  0.1804  0.0525
 3051SOL     OW 9836   3.523   2.504   2.301 -0.2985 -0.4283 -0.2971
 3051SOL    HW1 9837   3.444   2.457   2.272 -1.0805  1.2025 -0.9412
 3051SOL    HW2 9838   3.570   2.522   2.220 -0.1889  0.2041 -0.0900
 3052SOL     OW 9839   0.991   0.538   5.683  0.3491  0.2507 -0.1899
 3052SOL    HW1 9840   0.964   0.476   5.616 -1.4447  0.1884  0.5404
 3052SOL    HW2 9841   0.951   0.505   5.764  0.0657  1.8764  0.3699
 3053SOL     OW 9842   5.497   1.924   0.823 -0.7401 -0.0095  0.4316
 3053SOL    HW1 9843   5.438   1.860   0.784 -1.4492  0.1729  1.1885
 3053SOL    HW2 9844   5.466   2.009   0.791  1.5222 -0.0850 -2.3785
 3054SOL     OW 9845   1.140   1.941   4.112  0.4691 -0.4919  0.0312
 3054SOL    HW1 9846   1.154   1.855   4.074  1.6820 -0.2752 -0.0662
 3054SOL    HW2 9847   1.150   2.002   4.039  1.0417 -0.1855  0.3559
 3055SOL     OW 9848   4.510   6.532   6.508 -0.2057 -0.4494 -0.5258
 3055SOL    HW1 9849   4.504   6.496   6.419 -1.7632 -1.2128 -0.1578
 3055SOL    HW2 9850   4.464   6.467   6.562 -1.6149  1.2673  0.4257
 3056SOL     OW 9851   0.554   0.168   2.625 -0.1793  0.3234  0.7071
 3056SOL    HW1 9852   0.549   0.148   2.718 -1.6080 -0.9561  0.3908
 3056SOL    HW2 9853   0.609   0.100   2.588  2.2190  2.0386  0.8698
 3057SOL     OW 9854   2.058   3.395   3.472 -0.3694 -0.3740  0.3879
 3057SOL    HW1 9855   1.979   3.364   3.429  0.3258 -0.1502 -1.1296
 3057SOL    HW2 9856   2.077   3.479   3.429 -0.7800  0.9178  2.5952
 3058SOL     OW 9857   1.372   1.873   1.279 -0.1284  0.0926  0.5312
 3058SOL    HW1 9858   1.348   1.784   1.305  1.2682  0.4923  3.6547
 3058SOL    HW2 9859   1.301   1.928   1.312  0.6888  0.4200  1.8114
 3059SOL     OW 9860   2.364   3.743   4.903 -0.0664 -0.3893 -0.0254
 3059SOL    HW1 9861   2.345   3.659   4.945  1.7992 -0.8671 -0.0568
 3059SOL    HW2 9862   2.459   3.751   4.906 -0.0404  0.7127 -1.9548
 3060SOL     OW 9863   5.676   0.505   3.819 -0.4359 -0.4574  0.8305
 3060SOL    HW1 9864   5.597   0.459   3.847 -0.3306 -0.7672  0.6260
 3060SOL    HW2 9865   5.685   0.483   3.726  0.3016 -1.0447  1.0218
 3061SOL     OW 9866   3.150   2.112   5.599 -0.1455 -0.3258 -0.1235
 3061SOL    HW1 9867   3.220   2.072   5.549 -0.0097 -0.5051  0.2062
 3061SOL    HW2 9868   3.114   2.180   5.542  1.0039  0.4979  0.1013
 3062SOL     OW 9869   0.937   5.883   1.196 -0.0218 -0.1774  0.6947
 3062SOL    HW1 9870   1.001   5.945   1.229  1.3758 -1.9031  1.3632
 3062SOL    HW2 9871   0.989   5.810   1.162 -1.4558  0.1976 -2.8025
 3063SOL     OW 9872   4.346   2.314   0.749 -0.0882  0.8058  0.1361
 3063SOL    HW1 9873   4.295   2.395   0.742 -1.2042 -0.0158 -2.4575
 3063SOL    HW2 9874   4.282   2.248   0.778  0.8850  0.8167  2.5865
 3064SOL     OW 9875   5.203   1.520   0.417 -0.4568  0.4225 -0.2667
 3064SOL    HW1 9876   5.212   1.611   0.389  0.7397  0.2159 -0.6091
 3064SOL    HW2 9877   5.166   1.525   0.505  0.5832  1.2982  0.1461
 3065SOL     OW 9878   3.443   1.447   5.764  0.0076 -0.0257 -0.4506
 3065SOL    HW1 9879   3.356   1.408   5.773  0.2382 -0.7883 -1.4002
 3065SOL    HW2 9880   3.439   1.528   5.816 -1.1267 -0.2708 -0.1433
 3066SOL     OW 9881   6.184   2.612   4.353  0.1872 -0.4777 -0.5148
 3066SOL    HW1 9882   6.208   2.691   4.305 -0.6417 -0.2752 -0.5993
 3066SOL    HW2 9883   6.154   2.643   4.438 -0.4529 -0.6666 -0.6649
 3067SOL     OW 9884   2.443   4.168   4.707 -0.6168 -0.2921 -0.8167
 3067SOL    HW1 9885   2.359   4.130   4.735 -0.0429 -2.8886 -2.3457
 3067SOL    HW2 9886   2.494   4.175   4.788 -2.2721  1.4918  0.1783
 3068SOL     OW 9887   3.065   4.947   6.303  0.0933 -0.3863  0.1329
 3068SOL    HW1 9888   3.089   4.863   6.264  0.1135 -0.5981  0.5950
 3068SOL    HW2 9889   2.996   4.925   6.366 -1.7693  0.2732 -1.5724
 3069SOL     OW 9890   0.718   0.691   5.930 -0.6026  0.2785  0.5375
 3069SOL    HW1 9891   0.746   0.621   5.870 -0.5896 -0.1614  1.0465
 3069SOL    HW2 9892   0.623   0.692   5.922 -0.7609 -1.0227  1.8376
 3070SOL     OW 9893   5.050   1.331   6.637 -0.0854 -0.1750  0.2069
 3070SOL    HW1 9894   4.969   1.375   6.662 -1.1152 -1.6566 -0.3421
 3070SOL    HW2 9895   5.085   1.297   6.719  0.0774  0.6211  0.4720
 3071SOL     OW 9896   3.856   5.732   5.990 -0.4300  0.3311 -0.1078
 3071SOL    HW1 9897   3.926   5.675   5.958  0.8710  2.1968 -0.7635
 3071SOL    HW2 9898   3.818   5.684   6.064  1.6899 -0.6627  0.4313
 3072SOL     OW 9899   3.543   4.104   4.637 -0.0070  0.5938  0.0978
 3072SOL    HW1 9900   3.554   4.190   4.677 -0.8391 -0.0646  1.8713
 3072SOL    HW2 9901   3.498   4.052   4.704 -0.6955 -0.8533 -1.4098
 3073SOL     OW 9902   5.735   0.236   0.893  0.8738  0.4511  0.6228
 3073SOL    HW1 9903   5.756   0.170   0.827  0.2373 -1.2074  1.9767
 3073SOL    HW2 9904   5.684   0.302   0.847 -0.7763 -1.3624 -0.2859
 3074SOL     OW 9905   3.942   2.187   0.602 -0.0293  0.1955 -0.4398
 3074SOL    HW1 9906   3.997   2.110   0.616 -0.3477 -0.4765 -2.5403
 3074SOL    HW2 9907   3.855   2.160   0.634  0.3620  0.5574  1.0155
 3075SOL     OW 9908   6.289   4.700   0.261 -0.0750  0.5900 -0.4660
 3075SOL    HW1 9909   6.335   4.645   0.197 -1.8076  0.3486 -1.5724
 3075SOL    HW2 9910   6.248   4.637   0.321 -0.4541  0.7160 -0.5862
 3076SOL     OW 9911   3.584   6.016   0.142 -0.6125  0.4453 -0.3016
 3076SOL    HW1 9912   3.608   6.064   0.222  0.2288 -1.2453  0.4979
 3076SOL    HW2 9913   3.659   6.029   0.084  0.5106 -1.3780  0.6331
 3077SOL     OW 9914   4.588   1.730   1.867  0.3890 -0.1611  0.4168
 3077SOL    HW1 9915   4.595   1.692   1.955 -2.8015 -0.6591  0.5573
 3077SOL    HW2 9916   4.537   1.810   1.879  0.2256 -0.0424 -0.9368
 3078SOL     OW 9917   1.915   5.221   1.481  0.2157  0.3532 -0.0860
 3078SOL    HW1 9918   1.902   5.213   1.386  2.9477 -1.5594 -0.4426
 3078SOL    HW2 9919   1.897   5.133   1.515  0.3854  0.7214  0.9864
 3079SOL     OW 9920   0.400   5.359   1.027 -0.2126 -0.6315 -0.3298
 3079SOL    HW1 9921   0.403   5.264   1.029 -1.6975 -0.7168 -0.6131
 3079SOL    HW2 9922   0.325   5.379   0.971 -0.7781  0.6787  0.8275
 3080SOL     OW 9923   4.503   1.783   5.550 -0.3245  0.3500 -0.1357
 3080SOL    HW1 9924   4.584   1.753   5.509 -0.5835  0.3544 -0.6639
 3080SOL    HW2 9925   4.527   1.800   5.641  0.6462  1.8371 -0.6264
 3081SOL     OW 9926   3.201   0.116   4.785  0.3535 -0.1563  0.6176
 3081SOL    HW1 9927   3.172   0.196   4.830  1.1606  0.5747 -0.1154
 3081SOL    HW2 9928   3.159   0.121   4.699  1.5050  0.2023  0.0596
 3082SOL     OW 9929   6.011   1.091   4.137  0.0627  0.1537  0.3123
 3082SOL    HW1 9930   6.096   1.056   4.111  0.5631  1.7675 -0.3491
 3082SOL    HW2 9931   5.954   1.072   4.062  0.0467 -0.1953  0.4111
 3083SOL     OW 9932   0.830   6.017   4.292 -0.1898  0.2556 -0.2707
 3083SOL    HW1 9933   0.805   5.956   4.361 -2.1103  1.6112  0.3320
 3083SOL    HW2 9934   0.924   6.028   4.301 -0.2204 -0.5825  1.3126
 3084SOL     OW 9935   1.968   4.055   6.837 -0.6042 -0.2296  0.0616
 3084SOL    HW1 9936   1.946   4.148   6.827  0.2634  0.0302  0.4687
 3084SOL    HW2 9937   2.055   4.056   6.876 -1.2933 -1.1933  1.7132
 3085SOL     OW 9938   6.222   3.420   4.829 -0.0890 -0.9916  0.1162
 3085SOL    HW1 9939   6.269   3.357   4.773 -1.7479 -2.5258  0.3515
 3085SOL    HW2 9940   6.290   3.454   4.888  0.7889 -3.2067  0.5242
 3086SOL     OW 9941   4.346   5.876   4.314  0.1580  0.0193 -0.5956
 3086SOL    HW1 9942   4.307   5.811   4.256  0.3431 -0.2752 -0.3907
 3086SOL    HW2 9943   4.438   5.849   4.323 -0.1354 -0.5931  0.7528
 3087SOL     OW 9944   3.126   1.139   1.906  0.3040  0.4270 -0.0184
 3087SOL    HW1 9945   3.034   1.166   1.911  0.3585  0.5053  0.6917
 3087SOL    HW2 9946   3.150   1.119   1.996  0.2633 -2.0982 -0.5055
 3088SOL     OW 9947   1.698   0.553   4.465 -0.1462  0.2512  0.2484
 3088SOL    HW1 9948   1.765   0.498   4.426 -0.7948  0.3310 -1.0337
 3088SOL    HW2 9949   1.646   0.584   4.391 -0.7749  1.2861  1.0861
 3089SOL     OW 9950   3.106   5.212   6.247  0.0702 -0.3123 -0.0030
 3089SOL    HW1 9951   3.088   5.122   6.275  0.4645 -0.0327  1.2317
 3089SOL    HW2 9952   3.196   5.208   6.213 -0.4457 -0.6748 -1.3910
 3090SOL     OW 9953   3.729   5.502   6.379  0.6465 -0.1333 -0.2330
 3090SOL    HW1 9954   3.678   5.476   6.455 -1.4519 -1.0761 -1.8393
 3090SOL    HW2 9955   3.812   5.455   6.388  0.5949  0.0589  1.5908
 3091SOL     OW 9956   4.424   2.765   1.796 -0.1701  0.0205 -0.4616
 3091SOL    HW1 9957   4.466   2.850   1.804 -0.7771  0.2446  0.5775
 3091SOL    HW2 9958   4.493   2.706   1.768 -0.2569  1.3028 -3.7981
 3092SOL     OW 9959   3.844   3.138   3.774  0.7381 -0.5505 -0.1513
 3092SOL    HW1 9960   3.857   3.219   3.726 -1.9851 -0.6431 -1.1847
 3092SOL    HW2 9961   3.876   3.070   3.715 -0.9773 -0.5215 -1.1743
 3093SOL     OW 9962   2.286   6.424   4.926  0.1095  0.2651 -0.0874
 3093SOL    HW1 9963   2.216   6.447   4.988  0.0680  1.9686 -0.7097
 3093SOL    HW2 9964   2.255   6.456   4.842  1.4980  0.8261 -0.4186
 3094SOL     OW 9965   3.670   5.611   1.030 -0.2102 -0.6026  0.0300
 3094SOL    HW1 9966   3.677   5.529   1.080  1.0218 -0.4060  0.2036
 3094SOL    HW2 9967   3.583   5.645   1.053 -0.2030 -1.1900  1.0017
 3095SOL     OW 9968   2.353   4.887   4.604  0.0272 -0.1814  0.0165
 3095SOL    HW1 9969   2.348   4.808   4.550  0.3103  0.9791 -1.8315
 3095SOL    HW2 9970   2.424   4.938   4.565  0.7372  0.4219  1.9907
 3096SOL     OW 9971   3.348   1.548   5.272 -0.3081  0.3509 -0.3869
 3096SOL    HW1 9972   3.388   1.505   5.348  0.3559  0.7506 -0.5025
 3096SOL    HW2 9973   3.254   1.543   5.289 -0.1774  0.3199  0.3991
 3097SOL     OW 9974   3.837   3.045   5.888  0.1293 -0.5993  0.7730
 3097SOL    HW1 9975   3.898   3.083   5.952 -2.2085  2.9749  1.1537
 3097SOL    HW2 9976   3.752   3.046   5.932 -1.1110 -0.5143 -1.4794
 3098SOL     OW 9977   2.951   4.318   1.041  0.6904 -0.2907  0.2150
 3098SOL    HW1 9978   2.871   4.271   1.018  2.2283 -3.4674  0.8342
 3098SOL    HW2 9979   2.986   4.271   1.116  2.2727  2.1085  1.1139
 3099SOL     OW 9980   2.159   0.021   0.494  0.0997  0.3316 -0.1789
 3099SOL    HW1 9981   2.255   0.018   0.494  0.2602  2.7930 -1.2216
 3099SOL    HW2 9982   2.132  -0.055   0.443  1.5123 -0.1387 -0.2616
 3100SOL     OW 9983   4.718   4.477   3.740  0.1028  0.2721  0.2561
 3100SOL    HW1 9984   4.768   4.404   3.703  0.4923  0.4490  0.4344
 3100SOL    HW2 9985   4.762   4.498   3.822 -1.0051 -0.3903  1.0509
 3101SOL     OW 9986   3.635   1.062   4.027 -0.1565  0.1651 -0.2782
 3101SOL    HW1 9987   3.635   0.994   4.095  0.2131 -0.7580 -1.1824
 3101SOL    HW2 9988   3.716   1.048   3.979 -0.3632  0.8796 -0.8540
 3102SOL     OW 9989   4.782   4.956   0.720 -0.3902 -0.0330 -0.3399
 3102SOL    HW1 9990   4.859   4.902   0.737 -0.4404 -0.8199 -2.2750
 3102SOL    HW2 9991   4.801   5.039   0.763  0.7011 -0.8381  0.7964
 3103SOL     OW 9992   1.421   6.147   6.527 -0.6145  0.7143  0.0204
 3103SOL    HW1 9993   1.477   6.069   6.527  0.0936  1.1794 -1.2069
 3103SOL    HW2 9994   1.460   6.205   6.593 -0.9589  0.1616  0.7162
 3104SOL     OW 9995   0.827   0.780   0.396 -0.0373  0.5447 -0.1235
 3104SOL    HW1 9996   0.829   0.875   0.389 -0.8569  0.4908 -1.2901
 3104SOL    HW2 9997   0.870   0.749   0.317  1.1754 -0.0817  0.7384
 3105SOL     OW 9998   0.995   0.722   5.047 -0.1766  0.1527 -0.2149
 3105SOL    HW1 9999   1.080   0.761   5.026 -0.9598  1.1442 -1.7231
 3105SOL    HW210000   1.009   0.627   5.040  0.6799  0.3302 -0.9888
 3106SOL     OW10001   3.664   2.582   2.867 -0.1818  0.8497 -0.1744
 3106SOL    HW110002   3.602   2.557   2.798 -0.4577 -1.1489  0.7446
 3106SOL    HW210003   3.617   2.648   2.918 -0.7331  0.8873 -0.7115
 3107SOL     OW10004   1.132   3.874   0.062 -0.4257 -0.2320  0.1505
 3107SOL    HW110005   1.079   3.929   0.120 -0.8647  0.4275 -0.8439
 3107SOL    HW210006   1.222   3.892   0.088 -0.4556  2.1462 -1.0808
 3108SOL     OW10007   6.641   3.545   3.894 -0.1187  0.2243  0.0839
 3108SOL    HW110008   6.737   3.553   3.895 -0.1456  0.9543 -1.0722
 3108SOL    HW210009   6.621   3.487   3.967  1.2400 -0.2643  0.0947
 3109SOL     OW10010   2.203   4.166   3.317  0.1321 -0.8411 -0.2366
 3109SOL    HW110011   2.110   4.173   3.293  0.0000 -1.0787  0.2008
 3109SOL    HW210012   2.234   4.257   3.316 -0.4738 -0.5927  1.0283
 3110SOL     OW10013   4.079   2.382   2.333 -0.2498 -0.3177  0.0171
 3110SOL    HW110014   4.070   2.476   2.348  0.7337 -0.3059  0.6291
 3110SOL    HW210015   3.989   2.350   2.327 -0.5900  0.7691 -0.9809
 3111SOL     OW10016   6.517   0.481   2.754 -0.5942  0.0643  0.1800
 3111SOL    HW110017   6.605   0.492   2.719 -0.7960  0.4976 -0.2153
 3111SOL    HW210018   6.459   0.490   2.677 -0.9737 -0.3621  0.4093
 3112SOL     OW10019   6.306   4.580   0.016  0.6837  0.5541 -0.3532
 3112SOL    HW110020   6.319   4.591  -0.078 -2.9679 -1.1739 -1.2098
 3112SOL    HW210021   6.327   4.488   0.033  0.7486  0.7101  0.4454
 3113SOL     OW10022   0.550   1.153   0.967 -0.3001  0.7409  0.0085
 3113SOL    HW110023   0.624   1.158   1.028 -0.9765 -0.7509  1.0182
 3113SOL    HW210024   0.533   1.059   0.959 -2.3500  1.0656  0.1326
 3114SOL     OW10025   0.219   1.985   0.502  0.2482 -0.5020 -0.4194
 3114SOL    HW110026   0.298   2.024   0.465 -0.0638  1.3479  0.7199
 3114SOL    HW210027   0.235   1.980   0.596 -0.2724 -1.9355 -0.3764
 3115SOL     OW10028   1.612   6.010   6.876  0.7085  0.0922 -0.0260
 3115SOL    HW110029   1.684   6.019   6.813  1.4583 -0.6235  0.7042
 3115SOL    HW210030   1.587   5.918   6.870 -0.1041  0.3137 -0.2036
 3116SOL     OW10031   5.014   1.853   6.462  0.0492 -0.6439  0.0786
 3116SOL    HW110032   5.064   1.821   6.537 -0.2472  2.6462  1.8488
 3116SOL    HW210033   5.080   1.873   6.396  0.6615 -0.4422  0.7369
 3117SOL     OW10034   0.585   2.691   2.504  0.3648 -0.6162  0.1517
 3117SOL    HW110035   0.548   2.688   2.416 -1.3515 -0.8752  0.8366
 3117SOL    HW210036   0.533   2.628   2.553 -0.3950  1.3180  1.9616
 3118SOL     OW10037   5.341   0.528   4.799 -0.3391 -0.1341  0.3222
 3118SOL    HW110038   5.378   0.550   4.714 -1.3336 -0.4323 -0.2009
 3118SOL    HW210039   5.308   0.612   4.833 -0.7230 -0.1582  0.0195
 3119SOL     OW10040   0.063   2.387   3.129 -0.0062 -0.0675  0.4322
 3119SOL    HW110041   0.131   2.382   3.195 -0.9147 -1.6239  1.3170
 3119SOL    HW210042   0.069   2.476   3.094  1.8169  0.1333  1.1565
 3120SOL     OW10043   4.854   2.468   1.175 -0.3508  0.3950 -0.4739
 3120SOL    HW110044   4.891   2.398   1.122 -2.9320 -0.7045 -0.9743
 3120SOL    HW210045   4.875   2.443   1.265 -0.3515 -0.4834 -0.7052
 3121SOL     OW10046   6.788   1.558   3.384  0.0300  0.1458 -0.3101
 3121SOL    HW110047   6.759   1.474   3.348  2.2558 -0.3878 -0.9544
 3121SOL    HW210048   6.857   1.535   3.445  0.2215  1.4846 -0.0016
 3122SOL     OW10049   0.691   1.778   6.632 -0.2491 -0.0516 -0.3101
 3122SOL    HW110050   0.755   1.711   6.607  1.0432  0.6990  0.8601
 3122SOL    HW210051   0.717   1.855   6.582 -0.5203  0.1402 -0.1536
 3123SOL     OW10052   1.510   1.806   2.365  0.0582  0.0709 -0.4483
 3123SOL    HW110053   1.560   1.848   2.435  1.3171  0.4926 -1.5634
 3123SOL    HW210054   1.450   1.873   2.334  0.3130  0.2573 -0.5424
 3124SOL     OW10055   5.139   2.552   4.965 -0.2876  0.1951  0.2290
 3124SOL    HW110056   5.093   2.487   4.913 -0.2667 -0.0731  0.5437
 3124SOL    HW210057   5.121   2.635   4.921  2.2208 -0.3102 -2.0059
 3125SOL     OW10058   1.179   5.413   0.683 -0.6921  0.4229  0.1351
 3125SOL    HW110059   1.087   5.436   0.677 -0.8665  0.2394  1.6500
 3125SOL    HW210060   1.184   5.322   0.653 -0.6864  1.0066 -1.7155
 3126SOL     OW10061   4.952   1.237   6.405  0.5759 -0.1813 -0.5161
 3126SOL    HW110062   4.934   1.318   6.357 -1.8435  0.8444  1.9176
 3126SOL    HW210063   5.016   1.262   6.471 -0.0239 -0.3139  0.1158
 3127SOL     OW10064   5.577   6.055   0.884  0.8439 -0.4557 -0.6613
 3127SOL    HW110065   5.485   6.072   0.903  1.4070 -0.1831  2.1934
 3127SOL    HW210066   5.590   6.094   0.797 -0.9356  2.6481  0.2964
 3128SOL     OW10067   4.206   0.058   6.268 -0.5769 -0.0179 -0.1177
 3128SOL    HW110068   4.152   0.087   6.194  0.3879 -1.0193 -1.2520
 3128SOL    HW210069   4.143   0.017   6.328 -1.4371  1.2058 -0.1445
 3129SOL     OW10070   1.044   1.644   4.280  0.1046 -0.5388 -0.1604
 3129SOL    HW110071   1.100   1.570   4.256 -1.1641 -1.2325 -1.1669
 3129SOL    HW210072   0.962   1.626   4.234 -1.8770 -0.9244  3.1923
 3130SOL     OW10073   0.322   4.306   2.232 -0.0751  0.9327  0.1938
 3130SOL    HW110074   0.354   4.272   2.149  0.0890  0.9159  0.2647
 3130SOL    HW210075   0.367   4.390   2.243  0.6112  0.5058  0.7165
 3131SOL     OW10076   6.208   4.409   1.563 -0.3729 -0.7541 -0.1319
 3131SOL    HW110077   6.133   4.379   1.510  0.2107 -1.7536 -0.4121
 3131SOL    HW210078   6.257   4.466   1.504  0.3173 -1.9277 -0.7161
 3132SOL     OW10079   0.597   2.420   2.441 -0.0248  0.1665  0.6819
 3132SOL    HW110080   0.665   2.473   2.400  0.4536 -1.4227 -0.7099
 3132SOL    HW210081   0.645   2.353   2.490 -0.5139 -1.2484 -0.6807
 3133SOL     OW10082   5.568   3.870   0.224 -0.8838 -0.1236  0.2115
 3133SOL    HW110083   5.617   3.798   0.264  0.0244  0.2676 -0.1557
 3133SOL    HW210084   5.510   3.901   0.294 -0.7176 -0.7052  0.6151
 3134SOL     OW10085   5.299   3.494   0.695  0.5080 -0.6429  0.6043
 3134SOL    HW110086   5.372   3.552   0.717 -0.3248  0.2282  1.1531
 3134SOL    HW210087   5.328   3.407   0.723  2.4510 -0.8515 -1.7141
 3135SOL     OW10088   1.404   3.009   3.830  0.0117  0.4171 -0.0213
 3135SOL    HW110089   1.454   2.933   3.800  0.7031 -0.0863  2.1511
 3135SOL    HW210090   1.318   2.974   3.852 -0.6683  0.8825 -1.7991
 3136SOL     OW10091   3.335   3.966   2.281 -0.0401  0.1386  0.7242
 3136SOL    HW110092   3.376   4.017   2.351  1.4959 -0.9292  0.6554
 3136SOL    HW210093   3.377   3.880   2.286 -0.2951 -0.1440 -1.1597
 3137SOL     OW10094   0.657   2.179   5.011  0.4319  0.1178  0.7194
 3137SOL    HW110095   0.682   2.145   4.925  1.0092  3.0092 -0.3699
 3137SOL    HW210096   0.580   2.127   5.036  1.6105 -2.3543 -0.4024
 3138SOL     OW10097   5.222   6.361   3.147 -0.3085  0.7444 -0.1720
 3138SOL    HW110098   5.207   6.285   3.091 -1.0290  1.4459 -0.9551
 3138SOL    HW210099   5.304   6.342   3.192 -1.1443 -1.0973  0.6710
 3139SOL     OW10100   6.712   5.803   5.973 -0.4136 -0.3536 -0.7055
 3139SOL    HW110101   6.769   5.735   5.938 -1.9800 -2.8693  1.2143
 3139SOL    HW210102   6.674   5.845   5.896  0.5025 -1.7602 -1.9881
 3140SOL     OW10103   0.939   2.770   2.332  0.0312 -0.3650  0.4727
 3140SOL    HW110104   1.021   2.808   2.300  0.1380 -0.2805  0.8493
 3140SOL    HW210105   0.962   2.728   2.415  0.0388 -1.7500 -0.1910
 3141SOL     OW10106   0.276   6.596   6.174  0.1020  0.4119 -0.1685
 3141SOL    HW110107   0.297   6.680   6.133  2.1444 -0.3100 -0.7586
 3141SOL    HW210108   0.254   6.539   6.101  2.4506 -0.5242 -0.2447
 3142SOL     OW10109   4.050   0.242   0.764  0.0947  0.4362 -0.4437
 3142SOL    HW110110   3.970   0.290   0.742 -1.9062 -2.2639  0.4609
 3142SOL    HW210111   4.039   0.157   0.722  0.0812 -1.7942  3.6155
 3143SOL     OW10112   0.979   0.357   5.480  0.5256 -0.2880  0.0876
 3143SOL    HW110113   0.931   0.321   5.405  0.3996  0.6020 -0.2751
 3143SOL    HW210114   1.068   0.325   5.469  0.7451  0.6336 -1.0100
 3144SOL     OW10115   0.494   1.942   5.120  0.2772 -0.1402  0.5290
 3144SOL    HW110116   0.454   2.022   5.154  0.2847  0.2535 -0.3513
 3144SOL    HW210117   0.422   1.897   5.074  0.8456  0.7033 -1.2925
 3145SOL     OW10118   0.026   0.210   0.195  0.3311  0.1456 -0.0797
 3145SOL    HW110119   0.012   0.116   0.184 -0.5705  0.4414 -1.9419
 3145SOL    HW210120   0.034   0.222   0.289 -1.8572 -1.4949  0.3889
 3146SOL     OW10121   5.468   6.326   6.752 -0.1456 -0.2712  0.4527
 3146SOL    HW110122   5.507   6.251   6.706  1.7969  0.9533 -0.0390
 3146SOL    HW210123   5.397   6.354   6.695 -0.7388 -1.5599  0.5150
 3147SOL     OW10124   0.506   4.961   3.482 -0.7738  0.2575 -0.3743
 3147SOL    HW110125   0.581   5.015   3.457  0.2016 -1.0689 -0.4164
 3147SOL    HW210126   0.530   4.924   3.567 -2.6087  2.0179  1.0081
 3148SOL     OW10127   0.442   6.175   0.944 -0.3058 -0.3303  0.3724
 3148SOL    HW110128   0.479   6.112   0.882 -0.1168 -0.9704  1.1102
 3148SOL    HW210129   0.483   6.258   0.922 -0.7503 -0.4032 -0.7874
 3149SOL     OW10130   0.363   4.697   1.985  0.0052  0.4783  0.0762
 3149SOL    HW110131   0.299   4.717   1.916 -0.1490 -1.5608 -0.4438
 3149SOL    HW210132   0.444   4.680   1.938  0.0170 -0.4835  0.4349
 3150SOL     OW10133   0.455   1.831   2.232 -0.0697 -0.0647 -0.8478
 3150SOL    HW110134   0.506   1.906   2.202  1.5641  0.0068  1.7779
 3150SOL    HW210135   0.505   1.755   2.203  0.5734 -0.0220  0.0959
 3151SOL     OW10136   2.921   0.462   1.500 -0.2679 -0.1977  0.0982
 3151SOL    HW110137   2.935   0.552   1.469 -0.2319 -0.0155  0.6302
 3151SOL    HW210138   2.998   0.444   1.554 -1.3071  0.2603  1.8035
 3152SOL     OW10139   5.452   5.652   1.773 -0.2156  0.2481 -0.3218
 3152SOL    HW110140   5.376   5.676   1.827  0.3516 -0.3230  0.7635
 3152SOL    HW210141   5.523   5.705   1.808 -0.1684  1.0310 -1.5599
 3153SOL     OW10142   5.055   1.110   6.866  0.4548 -0.2682 -0.0648
 3153SOL    HW110143   5.074   1.056   6.943 -1.4291  0.3944  0.9158
 3153SOL    HW210144   4.970   1.150   6.885  0.6133  1.0356 -1.8835
 3154SOL     OW10145   4.717   2.807   2.112  0.8454  0.2894 -0.2337
 3154SOL    HW110146   4.805   2.822   2.146  0.7701 -0.5926  0.3666
 3154SOL    HW210147   4.717   2.716   2.082 -0.6050 -0.5929  2.1922
 3155SOL     OW10148   2.621   1.595   0.661 -0.4135  0.1161  0.3406
 3155SOL    HW110149   2.611   1.630   0.573  0.3699 -2.1650 -0.7319
 3155SOL    HW210150   2.716   1.590   0.674 -0.4881 -1.2293  0.5488
 3156SOL     OW10151   1.763   1.941   0.752 -0.2331  0.1015 -0.2497
 3156SOL    HW110152   1.684   1.990   0.777 -0.7240 -0.2580 -1.0706
 3156SOL    HW210153   1.783   1.888   0.829 -0.0328  1.1431  0.4369
 3157SOL     OW10154   3.241   6.357   0.647  0.0186 -0.3852 -0.1149
 3157SOL    HW110155   3.332   6.328   0.659 -0.0472 -0.7247 -0.4186
 3157SOL    HW210156   3.234   6.436   0.700  0.3891 -0.5635  0.2080
 3158SOL     OW10157   4.388   1.670   3.525  0.4324 -0.3897  0.1041
 3158SOL    HW110158   4.328   1.599   3.546  0.3272 -0.6077 -0.8840
 3158SOL    HW210159   4.473   1.641   3.558  0.3492 -0.9013 -0.1292
 3159SOL     OW10160   5.091   1.610   0.655 -0.2282  0.8118  0.3747
 3159SOL    HW110161   5.034   1.543   0.693  0.6757 -0.6705 -0.7391
 3159SOL    HW210162   5.037   1.689   0.654 -2.3473 -0.5276 -0.6967
 3160SOL     OW10163   3.712   0.032   0.197 -0.0269  0.0138 -0.5064
 3160SOL    HW110164   3.728   0.071   0.111 -0.6356 -2.9860 -2.1409
 3160SOL    HW210165   3.784  -0.030   0.209 -1.2999 -1.4530 -0.1077
 3161SOL     OW10166   2.862   4.460   2.793  0.0735  0.3311  0.1776
 3161SOL    HW110167   2.779   4.421   2.820  0.8244 -0.8078  0.9259
 3161SOL    HW210168   2.924   4.387   2.792  1.0553  1.1384 -0.4792
 3162SOL     OW10169   5.418   5.710   3.453  0.2639  0.1812  0.0005
 3162SOL    HW110170   5.430   5.629   3.503  1.0949  1.0648  1.2786
 3162SOL    HW210171   5.373   5.682   3.373  1.4788 -1.6886 -0.0732
 3163SOL     OW10172   3.616   3.559   5.111  0.4865  0.5721  0.2456
 3163SOL    HW110173   3.564   3.601   5.043  0.6866 -0.6865 -0.7250
 3163SOL    HW210174   3.706   3.587   5.094  0.5540  0.1595 -0.1096
 3164SOL     OW10175   5.847   4.669   2.987 -0.5345  0.0892 -0.5311
 3164SOL    HW110176   5.786   4.611   3.033  0.0182 -0.4506 -0.4650
 3164SOL    HW210177   5.894   4.714   3.057 -0.8518  0.5052 -0.5822
 3165SOL     OW10178   5.054   5.851   4.537  0.6872  0.0552 -0.5836
 3165SOL    HW110179   4.970   5.885   4.569 -0.4644 -1.4233 -1.8407
 3165SOL    HW210180   5.106   5.929   4.519 -0.3669  1.0136  0.3683
 3166SOL     OW10181   6.867   1.828   6.550  0.2611 -0.1454 -0.0236
 3166SOL    HW110182   6.938   1.771   6.580  1.1221  0.7487 -0.3396
 3166SOL    HW210183   6.794   1.808   6.609  0.0419 -2.6111 -0.9859
 3167SOL     OW10184   3.070   3.427   1.472 -0.1049  0.3722  0.1733
 3167SOL    HW110185   3.145   3.382   1.434 -0.8054 -0.8431  0.1995
 3167SOL    HW210186   3.005   3.430   1.401 -0.4802  0.3357  0.5086
 3168SOL     OW10187   6.440   0.734   0.411 -0.0714  0.4943 -0.4387
 3168SOL    HW110188   6.447   0.701   0.321 -1.0063 -0.5534 -0.1452
 3168SOL    HW210189   6.397   0.819   0.402  1.3575  1.1863 -1.1086
 3169SOL     OW10190   4.458   3.267   0.244 -0.6090  0.3302 -0.0073
 3169SOL    HW110191   4.466   3.283   0.338 -0.8116 -0.6557  0.1889
 3169SOL    HW210192   4.464   3.354   0.204 -0.1720  0.7256  0.8898
 3170SOL     OW10193   5.526   0.833   3.338 -0.2012  0.6955 -0.2936
 3170SOL    HW110194   5.438   0.851   3.373 -0.2810  0.7135 -0.5034
 3170SOL    HW210195   5.544   0.907   3.281 -0.5633  0.0766 -1.2240
 3171SOL     OW10196   5.978   0.165   6.836 -0.2397 -0.1582 -0.4113
 3171SOL    HW110197   5.938   0.139   6.754 -0.5956  0.5898 -0.4800
 3171SOL    HW210198   6.064   0.122   6.835  0.8162  1.7724 -2.3332
 3172SOL     OW10199   6.834   0.090   1.110 -0.8080 -0.0382 -0.0349
 3172SOL    HW110200   6.888   0.075   1.033 -1.7964 -1.3908 -0.5138
 3172SOL    HW210201   6.791   0.005   1.126 -1.4437  0.5106  1.3549
 3173SOL     OW10202   0.294   5.932   0.172  0.0772  0.3200 -0.2714
 3173SOL    HW110203   0.264   5.853   0.216 -0.6457  0.4350 -0.5533
 3173SOL    HW210204   0.301   5.908   0.080  1.4965  0.1061 -0.1343
 3174SOL     OW10205   5.116   5.535   6.022 -0.7687  0.6723  1.0953
 3174SOL    HW110206   5.158   5.502   5.943 -0.9328 -1.9337  1.9855
 3174SOL    HW210207   5.183   5.586   6.066 -0.4508  1.5297 -0.3209
 3175SOL     OW10208   2.184   3.466   5.999  0.1700  0.3566 -0.2686
 3175SOL    HW110209   2.130   3.428   6.069  0.1261 -1.3869 -1.1843
 3175SOL    HW210210   2.210   3.551   6.032 -0.0153 -0.3321  1.7911
 3176SOL     OW10211   5.197   6.819   6.132  0.6135  0.3166 -0.3802
 3176SOL    HW110212   5.141   6.858   6.199 -0.0421 -0.2600 -0.5791
 3176SOL    HW210213   5.264   6.772   6.181 -0.3372 -0.7897 -0.1008
 3177SOL     OW10214   2.451   0.927   2.039  0.7470 -0.1619  0.2519
 3177SOL    HW110215   2.361   0.906   2.064  0.4055  0.9594  0.0200
 3177SOL    HW210216   2.482   0.848   1.994  0.7448 -1.5128  2.4777
 3178SOL     OW10217   0.276   5.288   4.873  0.2116  0.1991 -0.0162
 3178SOL    HW110218   0.344   5.253   4.930 -0.1633  1.2852  1.1335
 3178SOL    HW210219   0.285   5.383   4.879  1.1200  0.3935 -2.9721
 3179SOL     OW10220   0.199   3.964   1.199  0.1023  0.0510 -0.1360
 3179SOL    HW110221   0.249   3.975   1.279  0.0106 -1.1392  0.1013
 3179SOL    HW210222   0.135   3.896   1.219  0.9746 -1.2971 -1.6111
 3180SOL     OW10223   3.721   0.899   5.282 -0.3159  0.1339 -0.8587
 3180SOL    HW110224   3.661   0.968   5.253  0.3977  1.9428  1.6316
 3180SOL    HW210225   3.806   0.941   5.286  1.0731 -2.1216 -3.3104
 3181SOL     OW10226   2.030   5.319   6.454 -0.7645 -0.1996 -0.1325
 3181SOL    HW110227   2.098   5.269   6.409  0.0562 -0.4516  1.3232
 3181SOL    HW210228   1.955   5.316   6.395  0.5949  0.4552 -1.9892
 3182SOL     OW10229   0.425   2.719   1.585  0.1010 -0.2772 -0.0822
 3182SOL    HW110230   0.355   2.738   1.523  0.8031  1.9685 -0.2790
 3182SOL    HW210231   0.504   2.719   1.531  0.5071 -0.2917  0.5096
 3183SOL     OW10232   1.576   4.258   1.464  0.5732 -0.0715  0.2162
 3183SOL    HW110233   1.531   4.304   1.535  2.0118  2.3927 -0.3580
 3183SOL    HW210234   1.511   4.195   1.432 -2.3064  2.8318 -0.1862
 3184SOL     OW10235   3.166   6.122   2.409 -0.3274  0.2639 -0.5627
 3184SOL    HW110236   3.089   6.131   2.465 -0.0835 -1.4823  0.1166
 3184SOL    HW210237   3.131   6.089   2.326 -0.2856 -0.9059 -0.1247
 3185SOL     OW10238   6.352   0.073   3.345  0.1419  0.0272 -0.2837
 3185SOL    HW110239   6.350   0.100   3.437 -0.0725 -1.6745  0.2383
 3185SOL    HW210240   6.384   0.151   3.298 -1.7746  1.6254  0.9310
 3186SOL     OW10241   1.834   0.318   4.783  0.2133  0.0586 -0.0296
 3186SOL    HW110242   1.766   0.304   4.717  1.2632  0.5525 -1.2808
 3186SOL    HW210243   1.787   0.337   4.864 -1.2216  3.2733 -1.4462
 3187SOL     OW10244   4.222   1.530   2.276  0.1162  0.4325 -0.1063
 3187SOL    HW110245   4.206   1.623   2.293  0.6270  0.3461  0.8830
 3187SOL    HW210246   4.181   1.485   2.349 -1.4964 -0.2405 -1.3801
 3188SOL     OW10247   5.823   0.508   1.005 -0.1484 -0.0013 -0.8339
 3188SOL    HW110248   5.913   0.541   1.005  0.2817 -1.1355 -0.5273
 3188SOL    HW210249   5.773   0.576   1.050  0.5149  0.7120 -1.1376
 3189SOL     OW10250   1.866   2.863   4.853 -0.2110 -0.4762 -0.1217
 3189SOL    HW110251   1.946   2.916   4.849 -0.3409 -0.3278 -1.2009
 3189SOL    HW210252   1.897   2.773   4.851 -0.0725 -0.4240 -1.4352
 3190SOL     OW10253   4.447   3.580   6.664  0.2520 -0.1554  0.3715
 3190SOL    HW110254   4.397   3.655   6.696  0.4120 -1.0855  3.0877
 3190SOL    HW210255   4.388   3.535   6.605 -0.7305  0.8214  0.5808
 3191SOL     OW10256   3.134   3.068   1.961  0.0970  0.0445  0.2786
 3191SOL    HW110257   3.140   3.160   1.984 -0.6517 -0.1779  1.4406
 3191SOL    HW210258   3.077   3.030   2.027  4.4842 -2.3515  3.1795
 3192SOL     OW10259   2.935   1.311   1.534 -0.7987  0.0731  0.2300
 3192SOL    HW110260   2.858   1.363   1.508  0.1535  1.0623 -0.7597
 3192SOL    HW210261   3.005   1.345   1.478  0.5660 -0.1792  1.7429
 3193SOL     OW10262   6.805   4.773   3.275  0.8119  0.1890  0.3399
 3193SOL    HW110263   6.802   4.843   3.209  1.7341  0.9128  1.0411
 3193SOL    HW210264   6.738   4.711   3.246  0.6450  0.8753 -0.8428
 3194SOL     OW10265   1.937   6.569   3.546  0.1973 -0.2181 -0.5904
 3194SOL    HW110266   1.852   6.588   3.506  0.7259  0.2395 -1.5164
 3194SOL    HW210267   1.927   6.598   3.637 -0.3056  0.8296 -0.9616
 3195SOL     OW10268   4.822   6.532   4.487  0.3173 -0.0201  0.4104
 3195SOL    HW110269   4.728   6.525   4.503  0.4666 -0.4486  1.1639
 3195SOL    HW210270   4.834   6.503   4.397 -0.2242 -0.3644  0.4473
 3196SOL     OW10271   5.335   5.285   6.113  0.7420 -0.0800 -0.2678
 3196SOL    HW110272   5.397   5.213   6.102 -0.9058 -1.4571 -1.1033
 3196SOL    HW210273   5.276   5.255   6.182  1.0256  1.2553  0.5976
 3197SOL     OW10274   0.704   1.292   0.507 -0.0607  0.0019 -0.0223
 3197SOL    HW110275   0.724   1.386   0.504  0.4919 -0.1301 -0.8582
 3197SOL    HW210276   0.651   1.282   0.585 -0.0161  0.9955  0.1574
 3198SOL     OW10277   3.662   2.391   4.603  0.9019 -0.6694 -0.7895
 3198SOL    HW110278   3.656   2.486   4.605 -1.5320 -0.7550 -0.3153
 3198SOL    HW210279   3.663   2.369   4.510 -0.4673 -0.1999 -0.9442
 3199SOL     OW10280   3.178   1.302   2.833 -0.4739 -0.0443  0.2006
 3199SOL    HW110281   3.153   1.350   2.754 -0.2074 -0.7926 -0.3528
 3199SOL    HW210282   3.096   1.283   2.878 -0.5888  0.8251  0.3763
 3200SOL     OW10283   0.091   4.881   6.356  0.3006 -0.4490 -0.0315
 3200SOL    HW110284   0.110   4.788   6.347 -0.5174 -0.5537 -0.7331
 3200SOL    HW210285   0.018   4.885   6.418 -2.0898 -0.5759 -2.6322
 3201SOL     OW10286   6.864   1.279   4.025 -0.6516 -0.9458 -0.5865
 3201SOL    HW110287   6.806   1.203   4.018  0.0257 -1.5984  0.6035
 3201SOL    HW210288   6.855   1.307   4.116  0.2160 -0.4978 -0.6311
 3202SOL     OW10289   4.407   2.781   0.057  0.0528  0.0320 -0.8833
 3202SOL    HW110290   4.368   2.866   0.077 -0.7071 -0.1411 -1.5998
 3202SOL    HW210291   4.501   2.796   0.065 -0.0776  0.9204 -0.9200
 3203SOL     OW10292   4.537   1.498   4.958  0.3329  0.6086 -0.1509
 3203SOL    HW110293   4.577   1.501   4.871 -0.7563 -1.4904 -0.8014
 3203SOL    HW210294   4.572   1.418   4.997 -0.2534  0.7978  0.7957
 3204SOL     OW10295   0.478   6.149   0.639 -0.1855 -0.4723  0.2770
 3204SOL    HW110296   0.391   6.181   0.616  1.2480  1.1856 -3.7810
 3204SOL    HW210297   0.516   6.219   0.693  0.0992  1.0811 -1.8003
 3205SOL     OW10298   2.914   1.851   0.560 -0.2199  0.0088 -0.3410
 3205SOL    HW110299   2.886   1.822   0.473  1.4344 -1.3201 -0.4736
 3205SOL    HW210300   3.001   1.813   0.571 -1.0284 -1.2180  2.5830
 3206SOL     OW10301   5.579   0.160   1.606  0.1692 -0.0223 -0.0894
 3206SOL    HW110302   5.570   0.087   1.546 -0.9432 -1.3414  1.6066
 3206SOL    HW210303   5.598   0.120   1.691  0.9409  1.7357  0.6332
 3207SOL     OW10304   5.980   0.429   5.158 -0.2479 -0.0909 -0.3141
 3207SOL    HW110305   6.023   0.345   5.139  0.2034  0.4453 -1.7325
 3207SOL    HW210306   5.932   0.450   5.078  0.2439  1.3808 -0.2373
 3208SOL     OW10307   0.407   6.206   2.051  0.4264  0.1646 -0.0820
 3208SOL    HW110308   0.490   6.162   2.065  0.0473 -0.1202  1.4414
 3208SOL    HW210309   0.343   6.135   2.042  0.6470  0.2625 -4.0810
 3209SOL     OW10310   5.506   2.825   3.390 -0.5496 -0.5051  0.1048
 3209SOL    HW110311   5.558   2.781   3.458 -0.9083  0.0856  0.7861
 3209SOL    HW210312   5.571   2.859   3.329 -0.2204 -1.1001  0.1158
 3210SOL     OW10313   5.740   2.892   0.515 -0.4645 -0.0607  0.3048
 3210SOL    HW110314   5.752   2.835   0.439  0.3237  0.8399 -0.2816
 3210SOL    HW210315   5.702   2.836   0.582 -1.1664 -0.8833 -0.7497
 3211SOL     OW10316   1.879   4.900   0.010 -0.1439 -0.0663 -0.3017
 3211SOL    HW110317   1.925   4.915   0.092 -0.9570  0.4007  0.0890
 3211SOL    HW210318   1.946   4.904  -0.058  0.2986  1.1959  0.1914
 3212SOL     OW10319   6.378   6.338   3.464  0.1919 -0.0073  0.5443
 3212SOL    HW110320   6.429   6.395   3.521  1.5539 -1.5692  0.9671
 3212SOL    HW210321   6.424   6.340   3.380  0.0945 -0.2533  0.4822
 3213SOL     OW10322   6.308   5.860   0.165  0.1907  0.1195  0.0667
 3213SOL    HW110323   6.223   5.830   0.130 -0.1314  0.7406  0.3015
 3213SOL    HW210324   6.362   5.781   0.167  0.0146 -0.0506 -1.2372
 3214SOL     OW10325   1.712   5.467   1.014  0.0344  0.3564 -0.8996
 3214SOL    HW110326   1.799   5.490   1.046 -0.9226  1.0148  1.4111
 3214SOL    HW210327   1.669   5.552   0.999 -0.4088  0.0368 -1.5060
 3215SOL     OW10328   0.271   6.821   5.457 -0.3707  0.2636  0.1132
 3215SOL    HW110329   0.344   6.882   5.467  0.1069 -0.0916 -1.0144
 3215SOL    HW210330   0.246   6.829   5.365 -1.7568  0.3679  0.4723
 3216SOL     OW10331   4.112   4.262   4.901  0.1401 -0.0954 -0.2402
 3216SOL    HW110332   4.120   4.190   4.838 -0.5162  1.9072 -2.7683
 3216SOL    HW210333   4.023   4.255   4.935 -0.1887 -0.0630 -1.0661
 3217SOL     OW10334   4.652   6.376   1.887 -0.4644 -0.2939 -0.2211
 3217SOL    HW110335   4.743   6.404   1.888 -0.0546 -1.5638 -0.0406
 3217SOL    HW210336   4.640   6.335   1.802 -0.2542 -1.9451  0.4923
 3218SOL     OW10337   5.189   4.341   5.359  0.3594  0.1234  0.1789
 3218SOL    HW110338   5.275   4.299   5.356  0.3646  0.0481  1.0393
 3218SOL    HW210339   5.205   4.425   5.402 -0.3192 -0.7880  2.3333
 3219SOL     OW10340   3.667   6.434   3.999  0.1393 -0.3399  0.4587
 3219SOL    HW110341   3.759   6.453   4.016  0.3389 -1.2651  0.4555
 3219SOL    HW210342   3.664   6.405   3.908 -0.0450 -0.9544  0.6530
 3220SOL     OW10343   0.306   2.164   2.481  0.3063  0.1565  0.3158
 3220SOL    HW110344   0.370   2.128   2.542  0.6284  0.9606  0.4547
 3220SOL    HW210345   0.351   2.237   2.439 -0.2891  0.3016 -0.0767
 3221SOL     OW10346   3.923   5.359   6.170 -1.4053 -0.1612 -0.2438
 3221SOL    HW110347   3.959   5.284   6.122 -1.9128 -0.5919  0.0360
 3221SOL    HW210348   3.831   5.336   6.184 -1.0558 -0.5100  1.7906
 3222SOL     OW10349   2.640   2.966   6.747  0.3136 -0.3206  0.4407
 3222SOL    HW110350   2.545   2.954   6.745 -0.3325  3.4145 -1.6341
 3222SOL    HW210351   2.674   2.903   6.683 -0.7451 -1.5611  1.0608
 3223SOL     OW10352   4.606   3.934   1.550  0.0665 -0.2079  0.5967
 3223SOL    HW110353   4.692   3.931   1.509 -0.8048  0.2979 -1.4137
 3223SOL    HW210354   4.558   3.861   1.510 -1.3894  1.3989 -0.7538
 3224SOL     OW10355   1.279   2.217   6.639  0.5723  0.2162  0.2169
 3224SOL    HW110356   1.370   2.246   6.640  0.1311  1.7958 -0.6417
 3224SOL    HW210357   1.267   2.176   6.554 -0.0927  2.2411 -0.7371
 3225SOL     OW10358   1.862   6.627   2.749 -0.0290 -0.8453 -0.3366
 3225SOL    HW110359   1.790   6.633   2.813  0.9318  2.0360  0.6255
 3225SOL    HW210360   1.833   6.681   2.676  1.9054  2.2945  1.0114
 3226SOL     OW10361   5.933   3.264   1.922  0.2197  0.1018  0.5364
 3226SOL    HW110362   5.987   3.280   1.845  2.0322 -1.8232  1.3060
 3226SOL    HW210363   5.874   3.194   1.895 -0.7865  1.0573  0.2080
 3227SOL     OW10364   2.343   4.289   4.148 -0.6021 -0.8754  0.7865
 3227SOL    HW110365   2.320   4.362   4.090  0.6907 -0.7560  0.3814
 3227SOL    HW210366   2.307   4.211   4.104  0.0207 -0.7361  0.0008
 3228SOL     OW10367   1.401   2.060   6.046  0.4788  0.3206 -0.3401
 3228SOL    HW110368   1.353   2.122   5.991 -0.5471  2.3849  2.5956
 3228SOL    HW210369   1.332   2.013   6.093  1.2458  0.9368  1.4882
 3229SOL     OW10370   2.110   1.303   4.749  0.0757 -0.1197  0.1427
 3229SOL    HW110371   2.116   1.280   4.841 -2.1433  0.4369  0.4945
 3229SOL    HW210372   2.060   1.231   4.710 -1.5993  1.0328  0.0343
 3230SOL     OW10373   3.999   3.384   3.721  0.3544 -0.7278 -1.0854
 3230SOL    HW110374   4.041   3.338   3.794 -1.1843  1.2218  1.1620
 3230SOL    HW210375   4.049   3.465   3.712 -2.3464  1.4418  1.3664
 3231SOL     OW10376   5.298   6.416   4.231 -0.4610 -0.0179 -0.1153
 3231SOL    HW110377   5.222   6.384   4.183 -0.1230  0.6799 -1.1537
 3231SOL    HW210378   5.372   6.402   4.171  0.4604 -1.8272  1.3361
 3232SOL     OW10379   4.799   5.054   5.498 -0.7188 -0.2634 -0.0649
 3232SOL    HW110380   4.772   5.143   5.473 -1.2954 -0.0419  1.2271
 3232SOL    HW210381   4.761   4.997   5.432  0.9292  0.5350 -1.7953
 3233SOL     OW10382   5.048   0.757   6.883 -0.2964  0.1791  0.1234
 3233SOL    HW110383   5.013   0.728   6.799 -0.9627  1.6396 -0.1417
 3233SOL    HW210384   4.971   0.767   6.939 -0.1985  1.9742  0.0022
 3234SOL     OW10385   0.322   5.084   6.835 -0.0773  0.5353 -0.4534
 3234SOL    HW110386   0.233   5.057   6.812 -0.0674  1.9475 -2.2772
 3234SOL    HW210387   0.311   5.132   6.917 -0.8983  0.1933 -0.3461
 3235SOL     OW10388   2.479   3.314   1.073  0.0430  0.0432 -0.2493
 3235SOL    HW110389   2.461   3.228   1.032 -2.2332  0.3951 -0.1471
 3235SOL    HW210390   2.473   3.297   1.167 -1.0187  0.3957 -0.2406
 3236SOL     OW10391   5.421   6.632   4.335 -0.0827 -0.1829  0.4775
 3236SOL    HW110392   5.367   6.556   4.312 -0.8361  0.5999 -0.4224
 3236SOL    HW210393   5.505   6.594   4.361 -0.4754 -1.3332  0.1512
 3237SOL     OW10394   0.786   6.179   6.514 -0.6712 -0.4391 -0.2891
 3237SOL    HW110395   0.801   6.271   6.493  1.8062 -1.3169 -3.3084
 3237SOL    HW210396   0.866   6.152   6.560 -1.0404 -1.2179 -0.0932
 3238SOL     OW10397   4.743   1.516   0.263  0.2932 -0.2690  0.2146
 3238SOL    HW110398   4.676   1.520   0.331  0.0003  0.9063 -0.1109
 3238SOL    HW210399   4.824   1.542   0.307  0.8965 -3.0860  0.9573
 3239SOL     OW10400   1.164   3.354   2.020  0.0941 -0.7825  0.0010
 3239SOL    HW110401   1.081   3.385   2.057 -0.1118 -1.1129 -0.1804
 3239SOL    HW210402   1.228   3.421   2.045 -0.6738  0.7740 -1.9528
 3240SOL     OW10403   0.171   4.005   5.064  0.1393 -0.1666  0.1718
 3240SOL    HW110404   0.084   3.968   5.079  0.3137 -0.1139  1.3418
 3240SOL    HW210405   0.231   3.945   5.108  0.5912  0.4565  0.4170
 3241SOL     OW10406   4.103   6.017   3.545  0.1490  0.1260  0.0366
 3241SOL    HW110407   4.050   6.093   3.570  0.6626  0.0659  1.3834
 3241SOL    HW210408   4.142   5.987   3.627  1.2517 -0.6119 -0.7342
 3242SOL     OW10409   6.173   3.475   4.252 -0.1056  0.2463  0.2945
 3242SOL    HW110410   6.184   3.382   4.270 -0.1331  0.3633  0.9102
 3242SOL    HW210411   6.087   3.482   4.211 -0.3842  0.0823  0.8491
 3243SOL     OW10412   5.607   3.957   1.951  0.0253 -0.3326  0.2425
 3243SOL    HW110413   5.560   4.003   2.020  0.8270  2.0896 -0.7362
 3243SOL    HW210414   5.699   3.964   1.977  0.1963 -0.9557 -0.1830
 3244SOL     OW10415   6.720   2.208   0.662  0.0963 -0.2908  0.1367
 3244SOL    HW110416   6.784   2.170   0.602 -0.0756  0.3656 -0.4781
 3244SOL    HW210417   6.736   2.302   0.657 -0.9218 -0.1133 -0.0443
 3245SOL     OW10418   2.224   0.629   1.226 -0.4654 -0.5732 -0.1822
 3245SOL    HW110419   2.211   0.548   1.176  0.4892  1.0494 -3.3381
 3245SOL    HW210420   2.317   0.627   1.250 -0.1461  0.0392 -1.2798
 3246SOL     OW10421   0.536   2.006   4.483  0.6094 -0.2772 -0.0355
 3246SOL    HW110422   0.612   2.063   4.484  0.9439 -0.7266  0.6062
 3246SOL    HW210423   0.468   2.058   4.440  0.8496  0.6720  0.6916
 3247SOL     OW10424   1.575   3.739   2.739 -0.3839  0.4985 -0.2529
 3247SOL    HW110425   1.501   3.789   2.704 -0.0004  1.3853  0.1584
 3247SOL    HW210426   1.646   3.803   2.746  0.6344 -0.4812 -1.2464
 3248SOL     OW10427   6.598   0.750   5.701  0.3904  0.0240  0.0129
 3248SOL    HW110428   6.613   0.685   5.769  1.2091  1.1226  0.9174
 3248SOL    HW210429   6.505   0.740   5.679  0.2355 -0.6901  0.9205
 3249SOL     OW10430   6.492   6.637   4.020  0.1660  0.4324  0.1923
 3249SOL    HW110431   6.528   6.641   3.931  0.2773  1.3979  0.2657
 3249SOL    HW210432   6.453   6.550   4.026 -1.2163  0.8770 -1.3427
 3250SOL     OW10433   3.869   1.861   0.908  0.5000  0.0863 -0.0598
 3250SOL    HW110434   3.869   1.930   0.973  0.8652  0.0361 -0.0047
 3250SOL    HW210435   3.936   1.887   0.845  0.4715 -0.0965 -0.1678
 3251SOL     OW10436   0.942   5.489   5.398 -0.7261  0.0590 -0.3979
 3251SOL    HW110437   1.034   5.509   5.381 -0.2752 -0.4269  1.2353
 3251SOL    HW210438   0.942   5.395   5.420 -1.6131  0.0619 -0.3382
 3252SOL     OW10439   5.766   0.311   5.335 -0.4398 -0.2580  0.0770
 3252SOL    HW110440   5.685   0.352   5.366  0.2773  0.5999  0.8985
 3252SOL    HW210441   5.801   0.373   5.272  0.4661  0.2489  1.0513
 3253SOL     OW10442   0.234   3.945   0.908  0.2038  0.1726 -0.1586
 3253SOL    HW110443   0.267   3.875   0.852 -1.3142 -0.2392 -0.5678
 3253SOL    HW210444   0.215   3.901   0.991 -0.9563  0.0368 -0.4850
 3254SOL     OW10445   6.706   1.748   1.546 -0.0739 -0.0679 -0.0677
 3254SOL    HW110446   6.676   1.657   1.543  0.6724 -0.3015 -2.5121
 3254SOL    HW210447   6.775   1.748   1.612 -0.5713 -1.1017  0.4784
 3255SOL     OW10448   0.396   5.119   0.738  0.1293  0.6561  0.2451
 3255SOL    HW110449   0.470   5.087   0.790 -1.1519 -0.0003  1.7160
 3255SOL    HW210450   0.434   5.136   0.652  1.8465 -0.3663  0.7474
 3256SOL     OW10451   5.641   2.684   6.027  0.1945  0.1600 -0.0452
 3256SOL    HW110452   5.648   2.692   5.932 -0.3658  1.9326  0.0301
 3256SOL    HW210453   5.580   2.612   6.040 -3.7934  2.9840 -1.2185
 3257SOL     OW10454   2.808   4.511   5.881 -0.5152 -0.4309 -0.0116
 3257SOL    HW110455   2.774   4.600   5.888 -0.4705 -0.4741  0.8725
 3257SOL    HW210456   2.772   4.465   5.957 -3.8349 -2.3357 -2.4565
 3258SOL     OW10457   0.304   4.618   4.285  0.5055 -0.4763 -0.1563
 3258SOL    HW110458   0.332   4.683   4.221 -0.5392 -0.3874 -0.5329
 3258SOL    HW210459   0.258   4.552   4.234  1.0091 -1.2045  0.3094
 3259SOL     OW10460   5.567   1.624   5.444  0.0687 -0.0395 -0.6406
 3259SOL    HW110461   5.537   1.705   5.485  2.3730 -0.2720  1.8258
 3259SOL    HW210462   5.487   1.575   5.426 -1.2454  1.1736  1.4430
 3260SOL     OW10463   0.890   6.204   5.261  0.2407  0.0166  0.2703
 3260SOL    HW110464   0.878   6.272   5.195  1.4680  0.3634  0.3646
 3260SOL    HW210465   0.913   6.252   5.341 -1.6287 -0.3641  1.0959
 3261SOL     OW10466   0.261   2.812   5.117  0.2932  0.4637  0.0595
 3261SOL    HW110467   0.259   2.796   5.211  2.7096  0.5399  0.1765
 3261SOL    HW210468   0.244   2.726   5.078  0.6958  0.1360  0.5962
 3262SOL     OW10469   5.331   4.550   4.371  0.3709 -0.0142 -0.0833
 3262SOL    HW110470   5.250   4.601   4.377  0.3396 -0.1693  0.8461
 3262SOL    HW210471   5.400   4.614   4.387  0.2492 -0.6219  3.5939
 3263SOL     OW10472   6.741   0.926   3.093  0.4287  0.1290  0.5890
 3263SOL    HW110473   6.753   1.020   3.083  0.2097  0.0794 -0.3229
 3263SOL    HW210474   6.654   0.910   3.056  1.0664 -0.6176 -0.6591
 3264SOL     OW10475   5.681   0.103   2.923  0.4681 -0.0370 -0.3069
 3264SOL    HW110476   5.653   0.012   2.914  0.0640 -0.2514  2.3398
 3264SOL    HW210477   5.775   0.097   2.942  0.9239  0.2713 -2.3087
 3265SOL     OW10478   6.185   2.974   3.948 -0.1614 -0.1687 -0.1204
 3265SOL    HW110479   6.199   2.886   3.915 -0.6417 -0.0894 -0.5553
 3265SOL    HW210480   6.095   2.975   3.979  0.0178  0.0087  0.4093
 3266SOL     OW10481   2.961   5.970   3.944 -0.1789  0.3052  0.3981
 3266SOL    HW110482   2.940   5.964   3.850 -1.0914 -1.2272  0.6703
 3266SOL    HW210483   2.880   5.949   3.988  0.0290  1.7955  1.5893
 3267SOL     OW10484   5.503   0.296   6.277  0.3543  0.1543  0.2365
 3267SOL    HW110485   5.466   0.245   6.349 -1.1001 -1.3644 -1.4773
 3267SOL    HW210486   5.498   0.238   6.201 -0.3127  2.4522 -1.6038
 3268SOL     OW10487   0.735   5.407   1.114 -0.5142  0.6498  0.0503
 3268SOL    HW110488   0.816   5.421   1.164 -1.0331 -0.2521  1.1973
 3268SOL    HW210489   0.667   5.396   1.181 -0.8214 -3.2319 -0.6628
 3269SOL     OW10490   2.379   6.326   3.283  0.2813  0.0008 -0.0577
 3269SOL    HW110491   2.439   6.271   3.333  0.0148  0.2619  0.5638
 3269SOL    HW210492   2.402   6.311   3.191  0.2832 -1.0622  0.1086
 3270SOL     OW10493   6.197   1.377   3.102 -0.1208  0.2137  0.4555
 3270SOL    HW110494   6.229   1.415   3.020 -0.2875  0.1504  0.3604
 3270SOL    HW210495   6.103   1.371   3.090 -0.3860  2.0115  1.4024
 3271SOL     OW10496   5.739   0.603   6.819  0.2072 -0.1863  0.0391
 3271SOL    HW110497   5.742   0.568   6.908  1.1705  0.7107  0.3775
 3271SOL    HW210498   5.763   0.529   6.763 -0.3696 -0.7476  0.5118
 3272SOL     OW10499   0.553   3.439   3.189  0.2121 -0.4185 -0.0964
 3272SOL    HW110500   0.629   3.390   3.221  0.9800 -0.0650 -1.2810
 3272SOL    HW210501   0.478   3.386   3.213  0.6135  0.2622  3.0505
 3273SOL     OW10502   6.212   6.116   0.493 -0.0785  0.2192 -0.3779
 3273SOL    HW110503   6.193   6.025   0.470 -1.4120  0.7307 -1.4575
 3273SOL    HW210504   6.201   6.119   0.589  0.7296 -0.8982 -0.2378
 3274SOL     OW10505   0.661   2.526   6.868  0.8980 -0.1188 -0.1399
 3274SOL    HW110506   0.627   2.564   6.787 -0.9557  2.9651  1.8693
 3274SOL    HW210507   0.751   2.559   6.873  0.0604  2.3384  0.4106
 3275SOL     OW10508   1.790   3.169   6.279 -0.2102 -0.2628 -0.1037
 3275SOL    HW110509   1.710   3.188   6.328 -0.5190  1.0101 -1.0622
 3275SOL    HW210510   1.763   3.173   6.187  0.9747  0.2535 -0.4393
 3276SOL     OW10511   1.692   6.169   2.009 -0.0058  0.4175  0.0654
 3276SOL    HW110512   1.686   6.263   1.993 -2.6952  0.0816 -1.6424
 3276SOL    HW210513   1.601   6.138   2.002  0.9028 -2.4398 -0.3763
 3277SOL     OW10514   6.282   4.089   0.103  0.6290 -0.2735  0.6330
 3277SOL    HW110515   6.240   4.019   0.052  0.1104 -0.1924  0.9465
 3277SOL    HW210516   6.345   4.044   0.159 -0.9473 -0.6855  2.1134
 3278SOL     OW10517   5.612   2.479   0.475 -0.0159  0.0533 -0.4376
 3278SOL    HW110518   5.575   2.409   0.529 -1.0480  0.4592 -0.6014
 3278SOL    HW210519   5.706   2.458   0.471  0.0455 -0.1813  1.2284
 3279SOL     OW10520   0.818   2.177   2.084 -0.6945  0.0402  0.3484
 3279SOL    HW110521   0.771   2.259   2.067 -3.1277 -1.1755  0.8114
 3279SOL    HW210522   0.866   2.193   2.165 -1.1209  1.0267  0.4197
 3280SOL     OW10523   0.238   5.553   4.248  0.2467  0.1085 -0.4417
 3280SOL    HW110524   0.182   5.540   4.172 -0.4392 -0.2519  0.1191
 3280SOL    HW210525   0.266   5.466   4.273 -1.4768 -0.0403  1.1565
 3281SOL     OW10526   3.950   6.373   3.993  0.6352 -0.0631 -0.3270
 3281SOL    HW110527   4.000   6.306   4.040  0.2224 -1.2205 -1.4762
 3281SOL    HW210528   3.971   6.358   3.901 -0.3542  0.6619 -0.6832
 3282SOL     OW10529   5.985   3.782   2.901  0.3037  0.8299  0.0718
 3282SOL    HW110530   5.905   3.763   2.949  1.3612  0.4155  1.7663
 3282SOL    HW210531   6.001   3.875   2.917  0.1623  0.9121 -0.2627
 3283SOL     OW10532   1.573   0.978   5.645 -0.6652 -0.5168 -0.4787
 3283SOL    HW110533   1.517   0.904   5.669  0.2158 -1.3589 -0.9534
 3283SOL    HW210534   1.519   1.029   5.584 -1.5205 -0.3968  0.3513
 3284SOL     OW10535   3.149   0.664   3.177  0.0127 -0.1854  0.6954
 3284SOL    HW110536   3.239   0.650   3.208  0.1366 -0.6543  0.1417
 3284SOL    HW210537   3.157   0.732   3.111 -0.3409  1.2786  2.0987
 3285SOL     OW10538   0.001   5.687   0.839 -0.3631  0.2857  0.4636
 3285SOL    HW110539   0.032   5.778   0.831 -0.9807  0.3626 -1.2571
 3285SOL    HW210540   0.000   5.654   0.750  1.1294 -1.8839  1.1707
 3286SOL     OW10541   3.422   5.499   1.556 -0.3501 -0.1444  0.0363
 3286SOL    HW110542   3.392   5.572   1.502 -1.2100 -1.1005 -0.8364
 3286SOL    HW210543   3.464   5.540   1.632 -0.2797  1.2356 -0.7239
 3287SOL     OW10544   6.325   5.060   3.667 -0.6082  0.4503 -0.1878
 3287SOL    HW110545   6.337   5.150   3.699 -0.9400 -0.7190  3.6750
 3287SOL    HW210546   6.405   5.014   3.694 -1.0246 -0.7446 -0.9003
 3288SOL     OW10547   0.502   6.200   4.223 -0.3396  0.5892  0.0098
 3288SOL    HW110548   0.517   6.230   4.133 -0.6108  1.1931  0.1559
 3288SOL    HW210549   0.509   6.280   4.276 -0.2094  0.2419  0.5208
 3289SOL     OW10550   6.744   3.916   2.994 -0.2544 -0.3643  0.0475
 3289SOL    HW110551   6.753   3.821   2.983 -0.6221 -0.4051  0.1120
 3289SOL    HW210552   6.832   3.945   3.017 -0.0921 -0.6611 -0.1875
 3290SOL     OW10553   1.743   2.764   4.342 -0.3174 -0.5602  0.1069
 3290SOL    HW110554   1.789   2.835   4.389 -0.9013  0.3621 -0.6781
 3290SOL    HW210555   1.742   2.691   4.404 -0.2544  0.3261  1.1849
 3291SOL     OW10556   4.939   6.681   5.871  0.2292  0.1764  0.8007
 3291SOL    HW110557   4.952   6.632   5.952 -1.8266  0.6706  1.4894
 3291SOL    HW210558   4.912   6.616   5.807  0.5146 -0.0102  0.8674
 3292SOL     OW10559   6.003   1.537   3.390  0.4352 -0.1936 -0.0351
 3292SOL    HW110560   5.951   1.459   3.373 -1.3653  0.8830  0.2622
 3292SOL    HW210561   5.962   1.576   3.468  1.6948  0.7094  0.2030
 3293SOL     OW10562   0.725   3.866   1.377 -0.1966 -0.3868 -0.7280
 3293SOL    HW110563   0.682   3.946   1.347 -1.2875 -0.1978  1.1705
 3293SOL    HW210564   0.653   3.805   1.393  0.3795 -0.7615  0.5844
 3294SOL     OW10565   5.616   3.206   3.658  0.2664  0.2056  0.5812
 3294SOL    HW110566   5.674   3.132   3.678 -0.8618 -0.7445  0.4746
 3294SOL    HW210567   5.674   3.275   3.629  1.2937 -0.9739 -0.2548
 3295SOL     OW10568   5.013   4.802   3.864 -0.1298 -0.2270 -0.4626
 3295SOL    HW110569   5.051   4.812   3.952 -0.2995 -1.1594 -0.2704
 3295SOL    HW210570   5.031   4.885   3.821  0.6336 -0.0317  0.1972
 3296SOL     OW10571   0.383   1.581   4.916 -0.0760  0.2138 -0.4936
 3296SOL    HW110572   0.322   1.570   4.988  0.7095 -1.8900 -0.0979
 3296SOL    HW210573   0.361   1.512   4.854  0.9296  0.3540 -1.0420
 3297SOL     OW10574   4.421   0.870   0.075 -0.3127 -0.5512 -0.4912
 3297SOL    HW110575   4.419   0.821   0.157 -0.4433 -1.1333 -0.8375
 3297SOL    HW210576   4.486   0.824   0.022  0.6694  0.5366 -0.2823
 3298SOL     OW10577   6.665   6.086   0.431  0.0015 -0.0735 -0.6736
 3298SOL    HW110578   6.681   6.012   0.489  0.4001  1.0501  0.7332
 3298SOL    HW210579   6.586   6.127   0.467  0.6582  1.0448 -0.4507
 3299SOL     OW10580   5.280   1.280   1.814  0.5709  0.0479 -0.0157
 3299SOL    HW110581   5.230   1.353   1.776 -0.4097 -0.6413 -0.0968
 3299SOL    HW210582   5.357   1.272   1.758  0.2600  0.4760 -0.5222
 3300SOL     OW10583   2.108   6.810   6.005 -0.4268 -0.2504 -0.1380
 3300SOL    HW110584   2.065   6.752   5.942 -0.6225 -1.1875  0.8212
 3300SOL    HW210585   2.057   6.890   6.002 -0.9405 -0.5806 -0.5630
 3301SOL     OW10586   4.827   0.401   1.422 -0.3970  0.2670  0.1730
 3301SOL    HW110587   4.870   0.341   1.483  1.2509  1.5354  0.3124
 3301SOL    HW210588   4.733   0.384   1.433 -0.0000 -2.5047 -0.0450
 3302SOL     OW10589   6.464   6.682   4.277  0.5081 -0.4249  0.2153
 3302SOL    HW110590   6.491   6.678   4.185  1.0067  1.4984  0.2468
 3302SOL    HW210591   6.369   6.671   4.274  0.5706 -0.8386 -0.4778
 3303SOL     OW10592   2.912   4.694   2.639 -0.1062 -0.3827 -0.5862
 3303SOL    HW110593   2.839   4.714   2.580 -1.0939  0.4647  0.8480
 3303SOL    HW210594   2.880   4.622   2.694 -0.2324  0.5491  0.6155
 3304SOL     OW10595   2.610   3.251   6.822 -0.2220 -0.3943  0.6129
 3304SOL    HW110596   2.586   3.287   6.737 -1.7825 -0.8433  0.8267
 3304SOL    HW210597   2.635   3.160   6.802 -0.1797 -0.3755  0.5795
 3305SOL     OW10598   6.103   0.543   3.850  0.0713  0.3275 -0.1661
 3305SOL    HW110599   6.184   0.493   3.844  0.7937  1.5003 -0.3895
 3305SOL    HW210600   6.091   0.581   3.764 -0.3103  0.7872  0.0859
 3306SOL     OW10601   4.980   4.716   0.214 -0.3126  0.2615  0.2265
 3306SOL    HW110602   4.992   4.640   0.271 -1.7660  0.7836  1.3007
 3306SOL    HW210603   4.923   4.684   0.143  0.7284 -0.1477 -0.4394
 3307SOL     OW10604   4.246   6.251   1.113  0.5614 -0.1805 -0.0504
 3307SOL    HW110605   4.176   6.236   1.050 -0.1363  0.6726  0.4962
 3307SOL    HW210606   4.203   6.292   1.187  1.1539 -2.1765  1.4971
 3308SOL     OW10607   6.851   1.434   3.761 -0.1810  0.0425 -0.2311
 3308SOL    HW110608   6.924   1.440   3.699 -0.1174 -0.3994 -0.2033
 3308SOL    HW210609   6.882   1.478   3.840 -0.4407  1.0438 -0.6707
 3309SOL     OW10610   4.395   6.185   4.148  0.4191 -0.3382  0.2191
 3309SOL    HW110611   4.339   6.182   4.070  1.7720 -0.5041 -0.7712
 3309SOL    HW210612   4.336   6.159   4.220 -1.1154  0.8020 -0.5631
 3310SOL     OW10613   0.907   1.580   5.569  0.0469 -0.3468 -0.5503
 3310SOL    HW110614   0.841   1.546   5.508 -0.2616 -0.6384 -0.0668
 3310SOL    HW210615   0.974   1.511   5.572 -0.3234 -0.6899  0.0328
 3311SOL     OW10616   3.815   1.283   1.870  0.5004 -0.1493 -0.3293
 3311SOL    HW110617   3.871   1.360   1.867 -0.3900  0.6154  1.3705
 3311SOL    HW210618   3.852   1.228   1.939  0.6685 -0.8902 -0.9960
 3312SOL     OW10619   0.315   4.806   6.528  0.3250 -0.8122 -0.0655
 3312SOL    HW110620   0.279   4.861   6.459 -1.2755 -0.6207  0.8526
 3312SOL    HW210621   0.297   4.716   6.500  0.9158 -0.7836 -0.5310
 3313SOL     OW10622   5.589   2.966   2.982 -0.0412 -0.5158 -0.0962
 3313SOL    HW110623   5.623   3.049   2.948  0.1379 -0.6652 -0.2796
 3313SOL    HW210624   5.620   2.962   3.072 -2.5016  1.0404  0.9350
 3314SOL     OW10625   6.578   6.437   4.433 -0.2845  0.1433 -0.0707
 3314SOL    HW110626   6.507   6.393   4.480 -1.2163  2.5667  0.9395
 3314SOL    HW210627   6.554   6.529   4.434  1.9429  0.8167 -1.4390
 3315SOL     OW10628   3.994   2.910   5.554 -0.2796 -0.0670 -0.2714
 3315SOL    HW110629   3.971   2.902   5.646 -0.4152 -0.5346 -0.3453
 3315SOL    HW210630   3.913   2.936   5.511 -0.9708 -2.7031 -0.6823
 3316SOL     OW10631   3.278   1.471   2.083 -0.1431 -0.1753 -0.2466
 3316SOL    HW110632   3.350   1.407   2.081 -1.1444 -1.3741  0.4776
 3316SOL    HW210633   3.205   1.424   2.124 -0.1947  2.1668  2.7781
 3317SOL     OW10634   1.553   6.619   1.511  0.6850 -0.2237  0.1143
 3317SOL    HW110635   1.580   6.536   1.470 -1.2648 -0.6285 -0.4635
 3317SOL    HW210636   1.484   6.652   1.454 -0.8431  0.1487  2.0775
 3318SOL     OW10637   2.121   5.984   6.673 -0.2079  0.3979  0.3856
 3318SOL    HW110638   2.118   5.909   6.732 -0.4004  0.5583  0.5820
 3318SOL    HW210639   2.198   6.033   6.701  0.7344 -0.4467 -0.6343
 3319SOL     OW10640   6.589   6.857   2.078 -0.0900 -0.3612  0.4191
 3319SOL    HW110641   6.521   6.862   2.011 -1.4600  2.1144  1.8467
 3319SOL    HW210642   6.551   6.901   2.154  2.7823  0.2567  1.6289
 3320SOL     OW10643   4.320   1.632   4.757 -0.0518  0.5715  0.3457
 3320SOL    HW110644   4.281   1.548   4.783 -1.5712  1.0216 -0.3956
 3320SOL    HW210645   4.365   1.663   4.836  1.1431 -1.2448  0.4469
 3321SOL     OW10646   0.212   3.424   0.862 -0.0130  0.2233  0.6315
 3321SOL    HW110647   0.127   3.422   0.907 -1.6080  1.2184 -2.0555
 3321SOL    HW210648   0.254   3.504   0.893  0.1039 -0.4166  2.1922
 3322SOL     OW10649   0.017   2.150   6.789 -0.2650  0.3133  0.4307
 3322SOL    HW110650   0.015   2.054   6.787  1.6173  0.2151  1.5283
 3322SOL    HW210651   0.039   2.175   6.699 -1.1315 -0.2516  0.0473
 3323SOL     OW10652   0.105   5.122   6.208 -0.6381  0.4570  0.2576
 3323SOL    HW110653   0.074   5.190   6.268 -1.2810  0.1229  0.3223
 3323SOL    HW210654   0.121   5.046   6.264 -2.3779 -0.2308 -0.1037
 3324SOL     OW10655   4.927   1.841   5.782 -0.1916  0.0111  0.6297
 3324SOL    HW110656   4.969   1.857   5.698  0.3380  1.0606  1.0852
 3324SOL    HW210657   4.880   1.922   5.802 -1.3724 -0.6806  0.7558
 3325SOL     OW10658   3.084   4.590   1.034 -0.0356 -0.0144 -0.1539
 3325SOL    HW110659   3.177   4.586   1.058 -0.1900 -2.2261  0.2945
 3325SOL    HW210660   3.057   4.499   1.029 -2.1995  0.5839 -0.3066
 3326SOL     OW10661   6.628   5.836   3.693 -0.1952 -0.3560  0.1207
 3326SOL    HW110662   6.628   5.871   3.782 -0.7752 -1.1371  0.4362
 3326SOL    HW210663   6.719   5.813   3.676 -0.1963 -0.9108  0.8023
 3327SOL     OW10664   1.171   0.290   2.186  0.4041  0.3504 -0.0149
 3327SOL    HW110665   1.236   0.345   2.229 -1.1512  0.5817  2.2180
 3327SOL    HW210666   1.106   0.351   2.151 -0.2400  0.0493  0.6196
 3328SOL     OW10667   5.219   4.110   0.666  0.2072  0.3854 -0.1362
 3328SOL    HW110668   5.245   4.195   0.702 -0.1315  0.7645 -0.7654
 3328SOL    HW210669   5.281   4.094   0.595  1.0129 -0.4640  0.7431
 3329SOL     OW10670   1.415   4.234   4.727 -0.1257  0.1866  0.0483
 3329SOL    HW110671   1.371   4.269   4.805 -0.6643  0.2286 -0.2681
 3329SOL    HW210672   1.345   4.190   4.678  0.5765 -1.6255  0.5833
 3330SOL     OW10673   5.543   2.193   3.926 -0.5367 -0.6982 -0.2008
 3330SOL    HW110674   5.468   2.149   3.966 -0.7211  0.2575  0.5588
 3330SOL    HW210675   5.548   2.278   3.971 -2.7033  1.8985 -4.2731
 3331SOL     OW10676   5.257   6.780   0.350 -0.5559  0.6258  0.5666
 3331SOL    HW110677   5.272   6.732   0.431  0.5686  0.0837  0.0578
 3331SOL    HW210678   5.206   6.720   0.295 -1.4186  1.0363  0.8952
 3332SOL     OW10679   2.156   4.683   5.602  0.6075  0.1537 -0.1685
 3332SOL    HW110680   2.116   4.763   5.636  0.3740  0.8103 -1.8970
 3332SOL    HW210681   2.086   4.618   5.604  0.7822 -0.0386  1.1842
 3333SOL     OW10682   3.680   3.899   2.147 -0.4504 -0.2731  0.2811
 3333SOL    HW110683   3.745   3.854   2.202 -0.4524 -0.5342  0.0733
 3333SOL    HW210684   3.602   3.844   2.155 -0.8625  0.4150  1.0872
 3334SOL     OW10685   5.691   3.945   0.603 -0.2217 -0.1126 -0.1573
 3334SOL    HW110686   5.626   3.928   0.671  1.1701 -0.0803  1.2127
 3334SOL    HW210687   5.756   3.876   0.614  1.3463  1.3905  0.2165
 3335SOL     OW10688   5.584   4.975   5.540 -0.4866 -0.3911 -0.2145
 3335SOL    HW110689   5.573   4.963   5.446 -0.4875  1.3318 -0.4630
 3335SOL    HW210690   5.658   4.918   5.563 -0.8671 -1.2740 -1.1361
 3336SOL     OW10691   2.205   3.323   6.592  0.3672 -0.1970 -0.4127
 3336SOL    HW110692   2.252   3.375   6.527  0.2403  0.3728 -0.0465
 3336SOL    HW210693   2.133   3.284   6.543  0.3649  0.1017 -0.6493
 3337SOL     OW10694   4.522   6.460   2.340 -0.4581  0.4698 -0.1149
 3337SOL    HW110695   4.618   6.466   2.347 -0.5500  0.3618  2.0402
 3337SOL    HW210696   4.505   6.454   2.246  1.5681  1.7289 -0.6345
 3338SOL     OW10697   4.692   3.127   1.411  0.8744 -0.2635  0.4549
 3338SOL    HW110698   4.716   3.192   1.477 -0.9598  0.4903  0.4368
 3338SOL    HW210699   4.730   3.161   1.329  0.8650  0.2167  0.6470
 3339SOL     OW10700   4.082   3.370   1.575 -0.6302  0.0991 -0.6039
 3339SOL    HW110701   4.007   3.429   1.573  0.0161  0.9221 -0.8278
 3339SOL    HW210702   4.109   3.369   1.667  0.1553  1.1919 -0.8052
 3340SOL     OW10703   6.879   6.249   0.393 -0.0911 -0.0149  0.6165
 3340SOL    HW110704   6.860   6.257   0.300  0.1777  1.3446  0.6613
 3340SOL    HW210705   6.814   6.186   0.425 -0.7527  0.1736 -0.3167
 3341SOL     OW10706   2.977   2.013   0.303 -0.3115  0.1321 -0.2004
 3341SOL    HW110707   2.900   2.070   0.302 -0.3636  0.2643 -4.3831
 3341SOL    HW210708   2.941   1.924   0.295 -0.0856  0.1321 -1.3352
 3342SOL     OW10709   0.940   1.459   2.950 -0.0776 -0.5103  0.1872
 3342SOL    HW110710   0.937   1.554   2.938  0.7076 -0.6308 -1.1542
 3342SOL    HW210711   0.854   1.428   2.919  0.4593 -0.4141 -1.5224
 3343SOL     OW10712   3.117   0.910   5.883  0.7155 -0.5198  0.0205
 3343SOL    HW110713   3.179   0.850   5.926  2.3952  1.1983  0.1631
 3343SOL    HW210714   3.099   0.977   5.949 -1.2526 -0.8960 -0.0734
 3344SOL     OW10715   5.479   4.853   4.099  0.2084  0.0695  0.3693
 3344SOL    HW110716   5.424   4.930   4.112 -0.2469 -0.5849  3.2240
 3344SOL    HW210717   5.568   4.887   4.093 -0.1864  0.9366 -1.1609
 3345SOL     OW10718   3.437   0.551   4.763  0.2223 -0.9832  0.2288
 3345SOL    HW110719   3.341   0.549   4.758  0.2187 -1.8561  0.4364
 3345SOL    HW210720   3.457   0.516   4.849  0.7513 -1.4633 -0.0852
 3346SOL     OW10721   3.223   1.893   3.196 -0.1762  0.1968  0.0218
 3346SOL    HW110722   3.291   1.959   3.213 -0.1565  0.1456  0.1428
 3346SOL    HW210723   3.146   1.925   3.243  0.1119 -0.3625  0.9041
 3347SOL     OW10724   5.738   6.635   4.204 -0.0441  0.7763  0.4829
 3347SOL    HW110725   5.803   6.601   4.265 -1.4860 -0.9699  1.1159
 3347SOL    HW210726   5.732   6.569   4.136 -1.5839  0.5857  0.7715
 3348SOL     OW10727   1.311   6.309   1.182 -0.0286  0.2580  0.3770
 3348SOL    HW110728   1.235   6.277   1.135  0.3867  0.1001 -0.1923
 3348SOL    HW210729   1.275   6.361   1.254 -0.7344 -1.6808  1.5030
 3349SOL     OW10730   3.868   2.494   3.898 -0.2525  0.0864  0.0844
 3349SOL    HW110731   3.943   2.435   3.894  0.1612  0.7002 -3.1066
 3349SOL    HW210732   3.905   2.581   3.889 -1.2108  0.5602  0.5932
 3350SOL     OW10733   5.815   4.320   1.166 -0.3201  0.7884  0.0678
 3350SOL    HW110734   5.783   4.240   1.207  2.3753  0.6584  2.2485
 3350SOL    HW210735   5.910   4.309   1.163  0.1740  3.9256  0.6115
 3351SOL     OW10736   3.018   3.222   3.805 -0.8150 -0.2706  0.4332
 3351SOL    HW110737   2.977   3.140   3.833  0.4770 -0.7860  0.8728
 3351SOL    HW210738   3.022   3.216   3.710  1.2762 -1.7666  0.5411
 3352SOL     OW10739   1.734   4.614   4.880 -0.8467 -0.4460  0.0642
 3352SOL    HW110740   1.735   4.582   4.970 -0.6241 -0.7352 -0.0361
 3352SOL    HW210741   1.827   4.626   4.858 -0.9198  0.0414  0.0186
 3353SOL     OW10742   6.271   3.214   6.835  0.0329 -0.2066 -0.1496
 3353SOL    HW110743   6.328   3.160   6.780  0.2493 -1.5227  1.3147
 3353SOL    HW210744   6.330   3.269   6.886 -0.2003  2.6048 -2.6388
 3354SOL     OW10745   1.330   4.929   0.811  0.0634  0.1102  0.3113
 3354SOL    HW110746   1.247   4.918   0.765  0.1867  0.7056 -0.0695
 3354SOL    HW210747   1.323   4.872   0.888 -1.0318  0.7636  0.7265
 3355SOL     OW10748   1.958   2.761   2.618 -0.0081 -0.3527  0.1932
 3355SOL    HW110749   1.931   2.676   2.653 -0.4412  0.0047  0.7325
 3355SOL    HW210750   1.972   2.745   2.525  1.2087 -1.3367  0.5059
 3356SOL     OW10751   2.792   6.313   1.763 -0.1531  0.1346 -0.4535
 3356SOL    HW110752   2.860   6.376   1.784  0.2052 -0.3293 -0.1901
 3356SOL    HW210753   2.714   6.366   1.747 -0.8403  0.5420  3.3105
 3357SOL     OW10754   5.861   3.563   6.635  0.7318  0.7775  0.1126
 3357SOL    HW110755   5.864   3.560   6.731  1.0457  1.6904  0.1381
 3357SOL    HW210756   5.937   3.615   6.610  1.1119 -0.1122 -0.6853
 3358SOL     OW10757   4.514   4.393   2.239 -0.4710 -0.0389 -0.0555
 3358SOL    HW110758   4.590   4.338   2.258  0.6460  0.7030 -2.1168
 3358SOL    HW210759   4.439   4.334   2.245  0.3963 -1.1210  0.5179
 3359SOL     OW10760   1.450   4.568   0.766 -0.7793  0.5123  0.8686
 3359SOL    HW110761   1.491   4.654   0.774 -0.4702  0.3265  1.3457
 3359SOL    HW210762   1.397   4.559   0.845 -1.5886  0.6671  0.3516
 3360SOL     OW10763   2.221   2.448   2.448  0.5768 -0.4476  0.4955
 3360SOL    HW110764   2.294   2.412   2.397  1.2928  0.8241  0.5907
 3360SOL    HW210765   2.176   2.507   2.388  1.3609  0.9823  1.2555
 3361SOL     OW10766   4.931   0.325   3.039 -0.2923 -0.2241 -0.0273
 3361SOL    HW110767   4.862   0.338   3.104 -1.2628 -1.8032 -0.6782
 3361SOL    HW210768   4.997   0.273   3.084 -0.2635 -0.0552  0.1274
 3362SOL     OW10769   2.893   5.825   6.137 -0.7304  0.3929 -0.1469
 3362SOL    HW110770   2.827   5.807   6.202 -0.2764  0.1360  0.2476
 3362SOL    HW210771   2.951   5.749   6.139 -0.1794  0.8025 -0.1753
 3363SOL     OW10772   2.162   0.225   5.920  0.6290  0.3415 -0.3072
 3363SOL    HW110773   2.245   0.239   5.875  0.5754 -1.7301 -1.1448
 3363SOL    HW210774   2.116   0.309   5.912  0.8944  0.2820 -3.5498
 3364SOL     OW10775   4.507   4.683   4.327  0.5849 -0.0457 -0.3749
 3364SOL    HW110776   4.592   4.642   4.312 -0.2462 -1.9409 -0.1648
 3364SOL    HW210777   4.443   4.618   4.297 -0.8136  0.7996  0.6491
 3365SOL     OW10778   4.522   2.027   6.385  0.0508 -0.8227  0.0124
 3365SOL    HW110779   4.518   1.968   6.460 -0.1179 -0.1144  0.5775
 3365SOL    HW210780   4.483   2.109   6.417 -0.9809 -0.8250 -1.1553
 3366SOL     OW10781   3.371   0.566   6.483 -0.0745  0.1789 -0.6231
 3366SOL    HW110782   3.313   0.508   6.433 -0.3232  0.3029 -0.4774
 3366SOL    HW210783   3.458   0.527   6.472 -0.4867 -1.3773  1.0950
 3367SOL     OW10784   6.574   6.847   1.591  0.1291 -0.8507  0.4783
 3367SOL    HW110785   6.566   6.894   1.508 -3.0790 -1.0424  0.5586
 3367SOL    HW210786   6.553   6.756   1.570  0.6475 -1.1722  1.2916
 3368SOL     OW10787   2.990   0.658   4.100  0.1844  0.0373 -0.2634
 3368SOL    HW110788   3.008   0.724   4.033 -1.5248  0.9489  0.1098
 3368SOL    HW210789   3.008   0.575   4.058 -0.8464  0.5833 -1.8762
 3369SOL     OW10790   2.205   0.703   4.357  0.3484  0.2799 -0.5604
 3369SOL    HW110791   2.212   0.730   4.266  1.1160  1.0338 -0.2822
 3369SOL    HW210792   2.149   0.770   4.398 -0.2063 -0.1935 -0.5219
 3370SOL     OW10793   0.062   2.178   4.309 -0.0140 -0.0054  0.7414
 3370SOL    HW110794   0.024   2.242   4.369  0.9582 -0.5405  1.9619
 3370SOL    HW210795   0.005   2.181   4.232 -0.1237  2.1565  0.8453
 3371SOL     OW10796   3.892   4.031   5.870  0.2699  0.6144  0.0669
 3371SOL    HW110797   3.946   4.070   5.939 -0.2239  0.3267  0.6230
 3371SOL    HW210798   3.828   3.977   5.917  1.0381 -1.0292 -0.6721
 3372SOL     OW10799   2.804   2.036   1.067  0.1649  0.8973  0.1992
 3372SOL    HW110800   2.738   2.087   1.020  0.8745  3.0973  1.4490
 3372SOL    HW210801   2.843   1.979   1.000 -3.1846 -0.8265 -0.5155
 3373SOL     OW10802   6.458   6.207   5.209 -0.1248 -0.4832  0.5802
 3373SOL    HW110803   6.505   6.126   5.229  2.4729  0.7357 -0.1281
 3373SOL    HW210804   6.370   6.179   5.184  1.6811 -3.5046 -3.3844
 3374SOL     OW10805   3.194   1.684   4.873  0.8425 -0.8162 -0.0331
 3374SOL    HW110806   3.181   1.637   4.955 -1.2670  1.0105  0.7716
 3374SOL    HW210807   3.184   1.617   4.805 -2.7311 -1.5736  1.0236
 3375SOL     OW10808   5.653   2.482   0.889 -0.2743  0.4583  0.2042
 3375SOL    HW110809   5.695   2.407   0.849 -0.8995 -0.1126  0.6052
 3375SOL    HW210810   5.719   2.516   0.951  0.4224  0.9251 -0.7558
 3376SOL     OW10811   5.382   3.494   3.903 -1.1143  0.0282  0.2957
 3376SOL    HW110812   5.447   3.563   3.895  0.7261 -1.7859 -1.4337
 3376SOL    HW210813   5.390   3.464   3.994  0.3357 -0.0027  0.1797
 3377SOL     OW10814   3.183   5.609   0.819  0.7257 -0.5899  0.5163
 3377SOL    HW110815   3.127   5.540   0.784  1.0837 -0.3022 -0.6640
 3377SOL    HW210816   3.131   5.689   0.813  1.3339 -0.2619 -0.9000
 3378SOL     OW10817   4.683   1.626   6.894 -0.2837 -0.2587  0.1904
 3378SOL    HW110818   4.636   1.709   6.901 -0.4318 -0.1619 -1.5393
 3378SOL    HW210819   4.681   1.590   6.982 -1.4002  0.9334  0.6880
 3379SOL     OW10820   1.226   0.648   2.810 -0.6983  0.4796 -0.2376
 3379SOL    HW110821   1.180   0.725   2.775 -1.1872 -1.0425 -3.2683
 3379SOL    HW210822   1.319   0.668   2.798 -0.7033  1.4318  1.0644
 3380SOL     OW10823   0.885   1.957   6.091 -0.3591  0.5553 -0.5018
 3380SOL    HW110824   0.955   1.916   6.142 -0.2255 -0.4803 -1.4888
 3380SOL    HW210825   0.807   1.946   6.145 -0.3769 -1.2632 -0.8236
 3381SOL     OW10826   2.601   6.130   3.100 -0.0770  0.0974  0.1852
 3381SOL    HW110827   2.648   6.117   3.183 -0.9991  0.3740  0.7617
 3381SOL    HW210828   2.644   6.206   3.060 -0.3638  0.6793  0.9608
 3382SOL     OW10829   5.265   5.684   1.132 -0.2325  0.1226  0.4161
 3382SOL    HW110830   5.296   5.601   1.170 -2.0668 -0.1645  1.4006
 3382SOL    HW210831   5.275   5.672   1.037  1.5979 -0.3391  0.6316
 3383SOL     OW10832   0.494   2.383   0.522 -0.5736 -0.2232  0.1542
 3383SOL    HW110833   0.444   2.352   0.446  0.0302 -1.8043  0.3633
 3383SOL    HW210834   0.575   2.333   0.519 -0.6117 -0.4254  1.9282
 3384SOL     OW10835   1.553   1.135   4.121 -0.2751  0.5961  0.0317
 3384SOL    HW110836   1.646   1.150   4.138 -0.6567  0.7199  2.3491
 3384SOL    HW210837   1.545   1.040   4.116 -0.1376  0.5339  0.7923
 3385SOL     OW10838   2.249   2.696   0.377  0.4621 -0.0923  0.4128
 3385SOL    HW110839   2.163   2.686   0.417 -0.0982 -0.1954 -0.8009
 3385SOL    HW210840   2.306   2.641   0.431 -0.6045 -1.5993  0.0555
 3386SOL     OW10841   1.132   4.810   1.205 -0.6622 -0.0417 -0.1272
 3386SOL    HW110842   1.202   4.874   1.220  0.6602 -1.4052 -0.1788
 3386SOL    HW210843   1.084   4.844   1.129  2.2836 -0.8447 -2.5714
 3387SOL     OW10844   0.798   0.535   3.377  0.1629  0.0766 -0.3020
 3387SOL    HW110845   0.874   0.499   3.423  1.6058  0.8964 -1.9398
 3387SOL    HW210846   0.749   0.458   3.347  0.7642 -0.4706  0.1113
 3388SOL     OW10847   3.419   0.687   4.530  0.0397 -0.5469  0.1882
 3388SOL    HW110848   3.418   0.640   4.614 -1.9717 -0.4921  0.2490
 3388SOL    HW210849   3.343   0.745   4.534  0.4716  0.1856 -1.3012
 3389SOL     OW10850   2.580   1.268   2.642  0.6323  0.2148  0.2386
 3389SOL    HW110851   2.605   1.195   2.585  1.8895  1.1750 -0.4936
 3389SOL    HW210852   2.663   1.300   2.678 -0.0152  0.5482  1.4768
 3390SOL     OW10853   4.639   6.030   3.484 -1.0361 -0.2923  0.2546
 3390SOL    HW110854   4.555   6.065   3.513 -0.7668  1.4070 -0.8747
 3390SOL    HW210855   4.617   5.974   3.409 -1.4726 -2.7425  2.0971
 3391SOL     OW10856   0.851   0.174   4.137 -0.2993  0.0287  0.0698
 3391SOL    HW110857   0.824   0.102   4.194  3.0217  0.3526  2.2635
 3391SOL    HW210858   0.842   0.138   4.048 -2.6980 -1.5358  0.8353
 3392SOL     OW10859   3.128   3.087   5.525  0.3736 -0.4109 -0.2466
 3392SOL    HW110860   3.185   3.036   5.468  1.6694  0.3135  0.3458
 3392SOL    HW210861   3.070   3.135   5.465  1.1372 -0.3126 -0.9286
 3393SOL     OW10862   5.088   2.010   2.843 -0.1723  0.2097  0.1170
 3393SOL    HW110863   5.122   2.069   2.910  1.1021  0.6697 -0.9106
 3393SOL    HW210864   5.164   1.963   2.810 -0.8865 -0.5635 -0.5004
 3394SOL     OW10865   1.091   1.126   1.838  0.0358  0.7180  0.1040
 3394SOL    HW110866   1.182   1.135   1.812 -0.0259  1.8770  0.2434
 3394SOL    HW210867   1.055   1.060   1.778  1.3834 -1.0925  1.1754
 3395SOL     OW10868   2.199   2.015   4.031  0.3957  0.0880 -0.0440
 3395SOL    HW110869   2.278   1.964   4.012 -0.1469 -1.4804  1.6560
 3395SOL    HW210870   2.193   2.015   4.127 -0.7756  1.6199 -0.0766
 3396SOL     OW10871   2.044   2.946   1.780  0.7724 -0.1791  0.3558
 3396SOL    HW110872   2.099   3.021   1.803  0.2229  0.1038  0.7716
 3396SOL    HW210873   2.100   2.891   1.726  1.4956  0.0635  0.8391
 3397SOL     OW10874   1.539   5.673   1.040  0.5650 -0.1606  0.2274
 3397SOL    HW110875   1.541   5.761   1.078 -0.1651  0.0020 -0.0992
 3397SOL    HW210876   1.481   5.680   0.964 -0.4056 -1.1595  0.8258
 3398SOL     OW10877   6.159   6.335   5.414 -0.3710 -0.2571 -0.0282
 3398SOL    HW110878   6.117   6.388   5.482  1.2149  1.3538 -0.2544
 3398SOL    HW210879   6.158   6.246   5.450  0.2314  0.5042  2.0301
 3399SOL     OW10880   6.414   1.858   0.768 -0.0605  0.0957  0.5665
 3399SOL    HW110881   6.329   1.898   0.789 -0.4368 -0.4578  0.1362
 3399SOL    HW210882   6.416   1.855   0.672  1.2195  1.7121  0.4895
 3400SOL     OW10883   5.145   6.093   3.031  0.1918 -0.5098 -0.2219
 3400SOL    HW110884   5.086   6.024   3.003 -0.5840 -0.3063  0.8257
 3400SOL    HW210885   5.222   6.047   3.066 -0.0453 -0.8267 -0.1158
 3401SOL     OW10886   5.725   4.603   4.871 -0.0541  0.6739  0.5469
 3401SOL    HW110887   5.659   4.638   4.811  0.8269  1.1050 -0.1959
 3401SOL    HW210888   5.729   4.667   4.942  0.9700  1.7128 -0.4039
 3402SOL     OW10889   3.648   0.808   4.525 -0.0012  0.4036 -0.6810
 3402SOL    HW110890   3.575   0.746   4.523  0.8385 -0.6847  0.5064
 3402SOL    HW210891   3.616   0.882   4.575 -0.1773 -0.2570  0.2097
 3403SOL     OW10892   4.628   0.866   3.286  0.0135 -0.6642 -0.9592
 3403SOL    HW110893   4.581   0.882   3.368 -0.5096 -0.0643 -1.3629
 3403SOL    HW210894   4.561   0.878   3.218  0.7508  0.1903 -1.5501
 3404SOL     OW10895   1.983   0.640   6.251 -0.0941  0.7126  0.7509
 3404SOL    HW110896   2.051   0.683   6.199 -0.3097  1.0057  0.7076
 3404SOL    HW210897   1.901   0.665   6.209 -0.1430 -1.9409 -0.9488
 3405SOL     OW10898   4.499   4.752   3.145 -0.1416 -0.2456  0.0748
 3405SOL    HW110899   4.446   4.678   3.114 -0.2643 -0.1676  0.0989
 3405SOL    HW210900   4.437   4.808   3.191 -0.1007  0.0164 -0.1912
 3406SOL     OW10901   0.346   2.842   1.823  0.3137  0.1205  0.2954
 3406SOL    HW110902   0.410   2.789   1.775  1.1314  0.4046  1.0403
 3406SOL    HW210903   0.267   2.787   1.825  0.9057 -0.7572  0.3899
 3407SOL     OW10904   4.102   3.634   3.736  0.0225 -0.1181  0.1339
 3407SOL    HW110905   4.167   3.654   3.668  1.5259 -0.1451  1.5062
 3407SOL    HW210906   4.086   3.717   3.779 -0.2500 -0.2684  0.3240
 3408SOL     OW10907   6.341   3.584   3.257  0.0361 -0.4601 -0.3146
 3408SOL    HW110908   6.401   3.658   3.259 -1.2990  0.6821  1.9027
 3408SOL    HW210909   6.258   3.620   3.227 -0.0152 -1.6668 -1.7402
 3409SOL     OW10910   3.050   6.711   5.266 -0.2555 -0.3795  0.5007
 3409SOL    HW110911   3.041   6.626   5.223  1.1537 -0.4138  0.2385
 3409SOL    HW210912   2.962   6.749   5.262 -0.3767 -0.7559 -1.6706
 3410SOL     OW10913   4.988   3.890   4.266 -0.2024  0.2872 -0.1606
 3410SOL    HW110914   5.050   3.877   4.195 -1.3321  1.9332 -1.5519
 3410SOL    HW210915   5.026   3.960   4.319  0.0963 -0.1326  0.1772
 3411SOL     OW10916   3.305   0.101   3.488 -0.2051  0.6174 -0.0881
 3411SOL    HW110917   3.231   0.077   3.432  1.0861  0.8022 -1.9453
 3411SOL    HW210918   3.326   0.191   3.463  2.0675 -0.1768 -1.3048
 3412SOL     OW10919   5.619   6.136   3.795  0.1011  0.6549  0.4361
 3412SOL    HW110920   5.554   6.151   3.727  1.5844  1.6673 -0.8266
 3412SOL    HW210921   5.568   6.105   3.870 -1.5306 -0.9411 -1.2369
 3413SOL     OW10922   4.851   0.069   2.841 -0.4872  0.6980 -0.1724
 3413SOL    HW110923   4.917   0.050   2.775 -1.0579  0.4296 -0.6724
 3413SOL    HW210924   4.901   0.105   2.915  0.1581  0.9783 -0.7342
 3414SOL     OW10925   3.783   5.128   4.588  0.3357 -0.4398  0.4239
 3414SOL    HW110926   3.795   5.153   4.680  0.5853 -0.9958  0.5503
 3414SOL    HW210927   3.766   5.210   4.542  1.1853 -0.0320  0.8118
 3415SOL     OW10928   1.984   5.817   0.556  0.5580 -0.1001 -0.3181
 3415SOL    HW110929   2.008   5.908   0.577 -0.7215 -0.2979  2.4008
 3415SOL    HW210930   1.922   5.825   0.484  2.2431  0.9675 -1.7329
 3416SOL     OW10931   1.046   1.929   2.779 -0.2671  0.4141 -0.4345
 3416SOL    HW110932   1.006   2.000   2.829 -1.2113  0.1326 -0.7811
 3416SOL    HW210933   1.132   1.964   2.755 -0.2891  1.0237  0.3183
 3417SOL     OW10934   2.536   5.033   4.466 -0.3629  0.0593  0.0012
 3417SOL    HW110935   2.627   5.011   4.447  0.1384  1.3492  0.8035
 3417SOL    HW210936   2.496   5.045   4.380  0.0942 -0.9753 -0.3688
 3418SOL     OW10937   2.323   6.832   4.708  0.3323  0.2454 -0.3455
 3418SOL    HW110938   2.367   6.834   4.623 -2.4987 -0.6689 -1.9754
 3418SOL    HW210939   2.281   6.746   4.711  0.3076  0.2837  1.9762
 3419SOL     OW10940   2.454   2.510   4.847  0.5992  0.3175  0.1420
 3419SOL    HW110941   2.500   2.518   4.764 -1.6102 -0.6653 -1.2860
 3419SOL    HW210942   2.422   2.598   4.865  1.1054  0.5393 -0.0281
 3420SOL     OW10943   3.013   3.703   4.215  0.5776 -0.1784 -0.4376
 3420SOL    HW110944   3.040   3.747   4.134  1.1729  0.6879  0.2081
 3420SOL    HW210945   2.941   3.646   4.188  0.0950  0.8409 -1.4054
 3421SOL     OW10946   1.128   3.233   2.507 -0.2299  0.1062 -0.1117
 3421SOL    HW110947   1.200   3.275   2.460 -0.8261  0.0579 -1.1004
 3421SOL    HW210948   1.145   3.253   2.599  0.6443  0.7173 -0.3857
 3422SOL     OW10949   4.887   6.548   4.041 -0.3741  0.4150  0.3363
 3422SOL    HW110950   4.889   6.485   4.113  0.1905  1.4944  1.2878
 3422SOL    HW210951   4.921   6.629   4.078 -2.9747  1.9105 -0.2583
 3423SOL     OW10952   3.774   4.679   0.560 -0.6403  0.2977  0.0199
 3423SOL    HW110953   3.837   4.607   0.570  0.1809  1.2441  2.1948
 3423SOL    HW210954   3.691   4.643   0.591 -0.9736 -0.6078 -1.7927
 3424SOL     OW10955   5.277   6.414   4.859 -0.1326  0.0635 -0.5805
 3424SOL    HW110956   5.304   6.441   4.771  1.0831 -0.3145 -0.3437
 3424SOL    HW210957   5.324   6.474   4.918 -1.3968  0.7038 -0.1795
 3425SOL     OW10958   5.618   5.224   0.290  0.1516  0.5407  0.5583
 3425SOL    HW110959   5.614   5.220   0.385 -1.9942 -0.0176  0.4928
 3425SOL    HW210960   5.650   5.138   0.264 -1.2611 -0.0639  0.7377
 3426SOL     OW10961   2.474   0.115   5.426 -0.7531 -0.0239 -0.1401
 3426SOL    HW110962   2.463   0.090   5.334 -1.0532 -0.1553 -0.0696
 3426SOL    HW210963   2.396   0.166   5.446 -1.1478 -0.7854  0.3068
 3427SOL     OW10964   3.160   3.533   3.042 -0.2567  0.6643 -0.0856
 3427SOL    HW110965   3.117   3.573   2.966  0.5974  0.2803 -0.7863
 3427SOL    HW210966   3.140   3.439   3.034  0.2069  0.5651 -0.0791
 3428SOL     OW10967   2.100   5.863   2.844 -0.2501 -0.4881  0.3490
 3428SOL    HW110968   2.094   5.860   2.940  3.3516 -2.7432  0.6986
 3428SOL    HW210969   2.152   5.786   2.821 -0.9632 -0.0014 -3.4672
 3429SOL     OW10970   2.521   2.633   1.283 -0.0355  0.2498 -0.1662
 3429SOL    HW110971   2.436   2.591   1.294 -1.0085  2.3618  0.8632
 3429SOL    HW210972   2.546   2.660   1.372  0.9779  1.0338 -0.6672
 3430SOL     OW10973   0.896   5.416   0.432  0.2223  1.1020  0.5309
 3430SOL    HW110974   0.921   5.454   0.517  2.6061 -0.9415  0.8455
 3430SOL    HW210975   0.979   5.403   0.386 -0.9868  1.8858 -2.0636
 3431SOL     OW10976   1.100   0.892   4.575  0.2372  0.1016  0.5842
 3431SOL    HW110977   1.027   0.851   4.528  1.2055 -2.7046  1.3235
 3431SOL    HW210978   1.171   0.894   4.510  0.4428 -0.1772  0.8010
 3432SOL     OW10979   3.463   1.405   3.245 -0.4097  0.0495 -0.2387
 3432SOL    HW110980   3.412   1.486   3.244 -0.6794 -0.1232 -0.5435
 3432SOL    HW210981   3.493   1.394   3.155  1.9829  1.2781  0.3475
 3433SOL     OW10982   3.412   3.889   6.292  0.3332  0.3469  0.5079
 3433SOL    HW110983   3.367   3.953   6.347 -0.1737 -0.6103  1.2409
 3433SOL    HW210984   3.417   3.931   6.206  0.7817  1.7032  1.1743
 3434SOL     OW10985   6.245   5.990   3.423 -0.1259  0.4814 -0.3620
 3434SOL    HW110986   6.246   6.061   3.359  0.1234  0.8353  0.0273
 3434SOL    HW210987   6.336   5.982   3.452 -0.0916 -0.2270 -0.6478
 3435SOL     OW10988   4.895   0.717   2.335  0.3551 -0.4024  0.1155
 3435SOL    HW110989   4.958   0.657   2.376 -1.5798 -1.6794  1.3651
 3435SOL    HW210990   4.821   0.661   2.310 -0.5219  1.1158 -0.8540
 3436SOL     OW10991   5.660   3.671   4.444 -0.3770  0.2570 -0.6204
 3436SOL    HW110992   5.651   3.684   4.538  0.2071 -1.1116 -0.3464
 3436SOL    HW210993   5.579   3.627   4.418 -0.6631  0.8922 -0.8185
 3437SOL     OW10994   2.315   3.428   2.191  0.4013 -0.2581 -0.5471
 3437SOL    HW110995   2.225   3.409   2.219 -0.0947  0.7806 -1.3680
 3437SOL    HW210996   2.335   3.512   2.233  1.1974 -0.7235  0.0461
 3438SOL     OW10997   1.988   1.106   6.393 -0.1018  0.4082  0.3015
 3438SOL    HW110998   1.912   1.092   6.449 -0.3721  0.5766 -0.0219
 3438SOL    HW210999   1.973   1.051   6.317 -0.2697  1.0179 -0.1126
 3439SOL     OW11000   4.374   2.594   0.995 -0.1968  0.8349 -0.1541
 3439SOL    HW111001   4.346   2.679   1.028  2.1163  2.0127 -1.0002
 3439SOL    HW211002   4.312   2.531   1.033 -1.3016  2.7570  1.3729
 3440SOL     OW11003   6.771   3.897   6.728  0.4379  0.1305 -0.6694
 3440SOL    HW111004   6.750   3.962   6.660  3.7062  0.7590 -1.2525
 3440SOL    HW211005   6.788   3.950   6.806  2.3238 -0.0330 -0.9336
 3441SOL     OW11006   0.781   4.483   0.552 -0.2246  0.2869 -0.0876
 3441SOL    HW111007   0.825   4.430   0.485 -0.2793 -1.3197  1.0872
 3441SOL    HW211008   0.707   4.522   0.506 -0.4612 -1.0499 -0.9049
 3442SOL     OW11009   4.819   6.516   0.274 -0.7889 -0.0758 -0.0053
 3442SOL    HW111010   4.854   6.435   0.310  0.4347  0.4141 -0.0569
 3442SOL    HW211011   4.819   6.578   0.347  0.5323  0.5567 -0.5209
 3443SOL     OW11012   1.085   3.561   1.606  0.1560  0.2618 -0.0530
 3443SOL    HW111013   1.025   3.603   1.668 -0.7116 -0.8508 -0.1094
 3443SOL    HW211014   1.101   3.474   1.642 -0.4552 -0.4552 -1.4022
 3444SOL     OW11015   2.344   3.954   4.415  0.1490 -0.6782  0.1168
 3444SOL    HW111016   2.399   3.924   4.343  0.2297 -1.2577  0.4211
 3444SOL    HW211017   2.406   3.982   4.483  0.0814  0.4042 -0.2466
 3445SOL     OW11018   1.749   0.422   6.223 -1.0467  0.2605 -0.0356
 3445SOL    HW111019   1.716   0.486   6.285 -0.8279  0.1065  0.2442
 3445SOL    HW211020   1.843   0.438   6.220 -1.2361  1.2890 -1.5039
 3446SOL     OW11021   1.892   2.377   2.882  0.1016  0.6852  0.4624
 3446SOL    HW111022   1.948   2.382   2.805 -0.5293 -1.2677 -0.1729
 3446SOL    HW211023   1.875   2.469   2.905  0.2655  1.3229 -1.7398
 3447SOL     OW11024   3.128   3.006   4.855 -0.4521  0.0740  0.7239
 3447SOL    HW111025   3.150   3.076   4.794 -0.2987  1.0529  1.8772
 3447SOL    HW211026   3.062   2.954   4.809 -0.1710  0.6618 -0.3579
 3448SOL     OW11027   4.687   2.435   5.531 -0.7839 -0.2906  0.2126
 3448SOL    HW111028   4.617   2.459   5.591  0.4576  0.7766  1.3062
 3448SOL    HW211029   4.643   2.420   5.448 -2.3445 -0.0093  0.9468
 3449SOL     OW11030   4.291   0.771   5.554  0.0084 -0.2154  0.4104
 3449SOL    HW111031   4.221   0.706   5.547 -0.2245  0.0819 -0.0642
 3449SOL    HW211032   4.263   0.843   5.498  1.0779 -0.4413 -0.4363
 3450SOL     OW11033   1.328   6.073   5.955 -0.1361  0.0257  0.3820
 3450SOL    HW111034   1.350   6.161   5.986 -1.0501  0.0864  0.9042
 3450SOL    HW211035   1.412   6.031   5.939  0.3035  1.0845 -0.1340
 3451SOL     OW11036   1.308   4.495   6.455  0.0977  0.1467 -0.0582
 3451SOL    HW111037   1.230   4.503   6.510 -0.3811 -0.0806 -0.6870
 3451SOL    HW211038   1.274   4.469   6.369  0.7972  0.9305 -0.5826
 3452SOL     OW11039   0.602   2.608   1.035 -0.7264  0.1048 -0.1063
 3452SOL    HW111040   0.635   2.541   0.977 -1.5515 -1.9540  1.6574
 3452SOL    HW211041   0.643   2.689   1.005 -0.1672 -1.0491 -2.6947
 3453SOL     OW11042   1.575   1.237   2.416  0.2252 -0.0082 -0.2676
 3453SOL    HW111043   1.521   1.209   2.490  0.1955  0.9680  0.0924
 3453SOL    HW211044   1.639   1.296   2.455 -0.2383  1.0850 -1.1126
 3454SOL     OW11045   4.831   6.142   1.565 -0.4196  0.2142  0.1013
 3454SOL    HW111046   4.750   6.189   1.586 -1.9844 -1.5424 -1.5285
 3454SOL    HW211047   4.801   6.062   1.521  2.1706 -1.3374  0.9581
 3455SOL     OW11048   1.831   2.381   4.389 -0.5513  0.4794 -0.3317
 3455SOL    HW111049   1.881   2.436   4.329  1.3066  0.2169  0.8882
 3455SOL    HW211050   1.781   2.322   4.333  1.5763 -0.1643 -1.6421
 3456SOL     OW11051   2.751   1.186   6.030 -0.0393 -0.2398  0.3540
 3456SOL    HW111052   2.656   1.173   6.030  0.1829 -2.2588  0.2696
 3456SOL    HW211053   2.766   1.264   5.977 -1.4935 -1.5191 -2.0674
 3457SOL     OW11054   5.016   2.649   3.726  0.1797  0.0078 -0.0580
 3457SOL    HW111055   5.075   2.618   3.657  0.8161  1.3538 -0.1535
 3457SOL    HW211056   5.063   2.632   3.807 -1.6665 -4.0619  0.3696
 3458SOL     OW11057   0.834   1.229   1.312 -0.0359  0.6448  0.0144
 3458SOL    HW111058   0.821   1.307   1.365  0.3259  0.6892  0.0426
 3458SOL    HW211059   0.929   1.213   1.315  0.2670  1.7213 -2.0922
 3459SOL     OW11060   0.198   1.248   1.430  0.1185  0.2287  0.2278
 3459SOL    HW111061   0.273   1.194   1.406  1.5818  1.8839  0.8926
 3459SOL    HW211062   0.184   1.304   1.354  0.8295  1.2610  0.8412
 3460SOL     OW11063   2.128   1.035   1.287  0.2412  0.0787  0.2174
 3460SOL    HW111064   2.128   1.050   1.382  0.6108 -0.4543  0.3064
 3460SOL    HW211065   2.218   1.057   1.260  0.7109 -1.6157  0.3007
 3461SOL     OW11066   6.243   5.386   1.043  0.4110  0.5270 -0.0687
 3461SOL    HW111067   6.282   5.460   1.089  0.7246 -0.6889  1.7191
 3461SOL    HW211068   6.317   5.329   1.022 -0.0098 -0.1449  0.2243
 3462SOL     OW11069   1.260   4.762   3.761  0.1952 -0.4085 -0.4256
 3462SOL    HW111070   1.243   4.689   3.702 -0.7873 -0.1025 -0.5489
 3462SOL    HW211071   1.220   4.837   3.718 -0.6468 -0.2016  0.6621
 3463SOL     OW11072   1.478   3.182   3.540 -0.1096 -0.3624 -0.2649
 3463SOL    HW111073   1.411   3.162   3.607 -0.5880  0.5121 -0.4667
 3463SOL    HW211074   1.519   3.098   3.522 -1.3372 -0.9774 -0.3149
 3464SOL     OW11075   1.949   2.233   4.082 -0.3265  0.5395  0.0329
 3464SOL    HW111076   1.956   2.177   4.005  0.7740  0.7564 -0.0422
 3464SOL    HW211077   1.856   2.254   4.088 -0.2951  1.4856 -1.9402
 3465SOL     OW11078   3.108   4.198   0.850  0.3857 -0.1846  0.0582
 3465SOL    HW111079   3.088   4.104   0.853  1.6004 -0.4370  1.5325
 3465SOL    HW211080   3.062   4.235   0.925  1.7160 -0.0152  0.8179
 3466SOL     OW11081   3.126   5.205   2.967 -0.4368  0.2265  0.4903
 3466SOL    HW111082   3.188   5.164   2.908 -0.6839 -0.0984  0.4532
 3466SOL    HW211083   3.042   5.202   2.920 -0.1722  2.1901 -0.1861
 3467SOL     OW11084   2.535   3.750   6.115 -0.0753 -0.8155  0.2803
 3467SOL    HW111085   2.464   3.704   6.160 -0.1206 -0.1174  0.9533
 3467SOL    HW211086   2.577   3.801   6.184  0.3239 -0.2868 -0.3448
 3468SOL     OW11087   4.880   6.144   5.816 -0.1573  0.2634 -0.5703
 3468SOL    HW111088   4.898   6.051   5.830 -0.2235  0.1444 -1.2096
 3468SOL    HW211089   4.786   6.147   5.798 -0.9409  0.8931  2.9336
 3469SOL     OW11090   2.762   6.006   5.438  0.0362 -0.3953 -0.6538
 3469SOL    HW111091   2.781   6.041   5.525 -0.8065 -0.4411 -0.4356
 3469SOL    HW211092   2.778   5.912   5.446 -1.1896 -0.5914 -0.1786
 3470SOL     OW11093   1.869   0.782   6.598 -0.6492 -0.4065 -0.0721
 3470SOL    HW111094   1.822   0.865   6.601 -0.1795 -0.1769  1.1165
 3470SOL    HW211095   1.939   0.797   6.534 -0.1905  0.3165  0.5871
 3471SOL     OW11096   4.332   4.834   3.715  0.3397  1.0807 -0.1153
 3471SOL    HW111097   4.237   4.822   3.712  0.6508 -2.2052 -0.6166
 3471SOL    HW211098   4.358   4.798   3.800  1.3091 -0.3652 -0.9712
 3472SOL     OW11099   6.001   4.252   2.262 -0.3054 -0.3649 -0.1499
 3472SOL    HW111100   6.023   4.305   2.339 -0.8053 -1.3675  0.6993
 3472SOL    HW211101   6.075   4.193   2.252  0.7958  1.1673 -1.7808
 3473SOL     OW11102   5.321   3.962   1.095 -0.0647 -0.3968 -0.4530
 3473SOL    HW111103   5.315   4.057   1.104 -1.0762 -0.6213  3.0688
 3473SOL    HW211104   5.300   3.929   1.183 -0.1182 -3.9038 -1.6330
 3474SOL     OW11105   5.874   3.126   4.705 -0.1089 -0.8396  0.4612
 3474SOL    HW111106   5.969   3.115   4.709  0.0119  0.3993  2.1216
 3474SOL    HW211107   5.851   3.165   4.789 -1.5785  2.5155 -1.2970
 3475SOL     OW11108   3.537   6.407   5.598 -0.6512  0.1762  0.2042
 3475SOL    HW111109   3.467   6.374   5.654 -0.2964  0.8083  1.0512
 3475SOL    HW211110   3.492   6.463   5.534 -0.9580  0.3363  0.5547
 3476SOL     OW11111   1.996   5.831   5.353  0.6755 -0.1303  0.2193
 3476SOL    HW111112   1.958   5.770   5.416  0.7645 -0.4140  0.0019
 3476SOL    HW211113   1.921   5.871   5.309  0.5895  0.7361  1.1251
 3477SOL     OW11114   5.280   0.272   0.532 -0.4076 -0.6499 -0.1707
 3477SOL    HW111115   5.194   0.305   0.505  0.0024  0.8033  0.2218
 3477SOL    HW211116   5.291   0.304   0.622  1.7867  1.8537 -1.2051
 3478SOL     OW11117   0.376   0.567   6.603  0.0779 -0.0120  0.4537
 3478SOL    HW111118   0.288   0.602   6.590  0.1706  0.0181 -0.1680
 3478SOL    HW211119   0.429   0.643   6.629 -0.0479 -0.0008  0.6767
 3479SOL     OW11120   4.404   2.108   5.225 -0.3245  0.4637  0.0710
 3479SOL    HW111121   4.401   2.106   5.129 -3.6689  3.5159 -0.0983
 3479SOL    HW211122   4.335   2.049   5.253  2.0407 -2.1258  0.8427
 3480SOL     OW11123   0.057   4.992   3.198 -0.2409  0.1878 -0.3677
 3480SOL    HW111124   0.026   4.973   3.109  1.9491  1.4418 -1.4650
 3480SOL    HW211125   0.146   4.959   3.201  0.1728  1.3059  0.9282
 3481SOL     OW11126   0.436   5.380   5.718  0.3942  0.4733 -0.1010
 3481SOL    HW111127   0.496   5.305   5.725  1.9338  1.6943  0.3859
 3481SOL    HW211128   0.430   5.397   5.624  0.0669 -0.2273 -0.2127
 3482SOL     OW11129   4.716   1.287   5.740  0.9000 -0.8963  0.0722
 3482SOL    HW111130   4.757   1.201   5.739  2.3511 -0.2517  0.1750
 3482SOL    HW211131   4.624   1.271   5.756  1.1896 -2.4107  0.2917
 3483SOL     OW11132   3.080   6.032   6.138 -0.2425 -0.0405  0.1824
 3483SOL    HW111133   3.005   5.976   6.158 -0.0689 -0.3762 -0.0996
 3483SOL    HW211134   3.107   6.067   6.223  0.1335 -1.0046  0.4795
 3484SOL     OW11135   2.596   3.621   2.468 -0.1477 -0.2151 -0.0804
 3484SOL    HW111136   2.631   3.602   2.382 -1.9600  0.3344 -0.9863
 3484SOL    HW211137   2.589   3.536   2.511  0.6015 -0.5082 -0.5241
 3485SOL     OW11138   3.014   3.706   2.325  0.2000 -0.0395 -0.0807
 3485SOL    HW111139   3.028   3.795   2.356  1.3860  0.2091 -1.2286
 3485SOL    HW211140   3.045   3.650   2.395  2.3845  0.4967 -0.5574
 3486SOL     OW11141   1.800   4.744   4.439  0.2753  0.1646  0.1637
 3486SOL    HW111142   1.776   4.833   4.466 -0.4538  0.3131 -0.9492
 3486SOL    HW211143   1.809   4.749   4.344  1.6337 -0.6363  0.2168
 3487SOL     OW11144   6.613   5.557   5.741  0.1971 -0.2608  0.5523
 3487SOL    HW111145   6.701   5.594   5.744  0.3848 -0.6588  0.0595
 3487SOL    HW211146   6.600   5.534   5.649 -0.2278 -0.6670  0.7109
 3488SOL     OW11147   1.051   1.449   4.882  0.2391 -0.1358  0.2842
 3488SOL    HW111148   1.143   1.423   4.873 -0.3304 -2.6369  0.8092
 3488SOL    HW211149   1.012   1.380   4.936 -2.0258  0.6615 -0.2285
 3489SOL     OW11150   1.634   1.677   1.402  0.0679  0.7636  0.6238
 3489SOL    HW111151   1.680   1.745   1.351  1.9699  0.0534  1.2913
 3489SOL    HW211152   1.652   1.700   1.493 -0.7924  0.3561  0.8978
 3490SOL     OW11153   2.765   5.297   4.500 -0.1316  0.6777 -0.0671
 3490SOL    HW111154   2.831   5.244   4.456 -1.0949 -0.2624 -0.4042
 3490SOL    HW211155   2.804   5.385   4.504  1.8044 -0.1610  1.1628
 3491SOL     OW11156   6.621   1.675   5.058 -0.1168 -0.1040 -0.3094
 3491SOL    HW111157   6.712   1.702   5.055 -0.1704  0.2774  0.9371
 3491SOL    HW211158   6.605   1.632   4.973  1.0807  0.2168 -0.7063
 3492SOL     OW11159   0.076   1.764   3.695  0.2070 -0.3952 -0.0975
 3492SOL    HW111160   0.078   1.744   3.789 -1.9077  0.8005  0.2845
 3492SOL    HW211161  -0.010   1.804   3.682  0.1882 -1.1483 -2.6963
 3493SOL     OW11162   1.419   3.019   6.028 -0.2515  0.6333 -0.2476
 3493SOL    HW111163   1.327   3.044   6.030 -0.6010 -0.3216 -2.2578
 3493SOL    HW211164   1.418   2.923   6.025  0.8552  0.5710  0.7024
 3494SOL     OW11165   4.265   5.137   0.722 -0.2795 -0.0306  0.0070
 3494SOL    HW111166   4.269   5.199   0.649  3.1647 -1.1728 -0.9490
 3494SOL    HW211167   4.303   5.185   0.796 -1.1741  0.2049  0.3268
 3495SOL     OW11168   1.671   6.449   2.063 -0.6841  0.1153 -0.2126
 3495SOL    HW111169   1.649   6.507   2.136  0.1037  0.9129 -0.5781
 3495SOL    HW211170   1.730   6.502   2.008 -0.1003 -0.9703 -0.6623
 3496SOL     OW11171   2.260   2.730   2.265  0.8096 -0.0222 -0.0707
 3496SOL    HW111172   2.303   2.781   2.197 -0.0054  0.1254 -0.4839
 3496SOL    HW211173   2.317   2.654   2.277  2.0706  1.0021  0.6096
 3497SOL     OW11174   3.520   0.060   5.822  0.0492  0.5173 -0.3697
 3497SOL    HW111175   3.599   0.020   5.856 -0.2702  0.5786  0.4602
 3497SOL    HW211176   3.498   0.009   5.744  0.3128 -0.1634 -0.0020
 3498SOL     OW11177   4.104   2.062   0.239 -0.0709 -0.6288  0.0340
 3498SOL    HW111178   4.117   2.143   0.189 -0.4132 -0.1098  0.7710
 3498SOL    HW211179   4.155   1.997   0.191 -0.4472 -0.1655 -1.0296
 3499SOL     OW11180   6.224   2.961   6.238  0.4044  0.1542  0.0926
 3499SOL    HW111181   6.239   2.980   6.330 -0.1293 -0.4510  0.3094
 3499SOL    HW211182   6.219   3.047   6.196 -0.0543  0.4448  0.7379
 3500SOL     OW11183   3.967   3.596   4.112  0.1290 -0.0276  0.1334
 3500SOL    HW111184   3.952   3.528   4.047 -2.0793 -0.5513  1.1232
 3500SOL    HW211185   3.938   3.677   4.070  2.6417  0.3732 -0.9976
 3501SOL     OW11186   3.889   4.463   4.150 -0.1329  0.1093 -0.3572
 3501SOL    HW111187   3.864   4.549   4.184 -2.4228 -0.4678 -0.3867
 3501SOL    HW211188   3.890   4.474   4.055 -1.2242 -0.0460 -0.4036
 3502SOL     OW11189   4.317   6.857   2.118 -0.0850  1.1447  0.4596
 3502SOL    HW111190   4.241   6.799   2.121 -0.0732  1.1640  2.6047
 3502SOL    HW211191   4.392   6.799   2.114 -0.1681  1.1098 -0.8832
 3503SOL     OW11192   1.879   5.543   5.337  0.2856 -0.8187  0.2642
 3503SOL    HW111193   1.887   5.529   5.242  0.2517 -1.8942  0.4037
 3503SOL    HW211194   1.956   5.499   5.374 -1.3419 -3.3329  0.9567
 3504SOL     OW11195   1.365   6.873   1.622  0.0774 -0.3083  0.6800
 3504SOL    HW111196   1.448   6.918   1.636 -0.7223  1.8493 -0.9786
 3504SOL    HW211197   1.381   6.818   1.545 -0.1388  0.5008  0.0429
 3505SOL     OW11198   1.103   4.933   1.872 -0.2294 -0.3797 -0.4123
 3505SOL    HW111199   1.055   4.927   1.954  0.0564 -1.3888 -0.3083
 3505SOL    HW211200   1.039   4.912   1.805 -1.1072  2.7886 -0.7166
 3506SOL     OW11201   4.126   1.215   2.697  0.3737 -0.2413  0.3585
 3506SOL    HW111202   4.158   1.151   2.760 -1.0191  0.0289  1.3938
 3506SOL    HW211203   4.032   1.221   2.714  0.3799  1.7672  0.0222
 3507SOL     OW11204   4.128   2.163   6.336 -0.3101 -0.1396  0.2117
 3507SOL    HW111205   4.092   2.186   6.422 -2.4037 -0.1385 -0.5966
 3507SOL    HW211206   4.166   2.077   6.347  0.0241  0.1426  1.2973
 3508SOL     OW11207   4.333   3.106   4.716  0.2470  0.3093 -0.0364
 3508SOL    HW111208   4.294   3.167   4.653 -0.8683 -0.2085  0.1113
 3508SOL    HW211209   4.422   3.137   4.729  0.4497  0.5278 -1.7457
 3509SOL     OW11210   6.005   5.290   1.113  0.0639  0.5069 -0.1354
 3509SOL    HW111211   5.998   5.331   1.199  1.8154  0.7440 -0.0665
 3509SOL    HW211212   6.097   5.299   1.089 -0.0488 -0.9844 -1.3327
 3510SOL     OW11213   1.149   1.998   2.140  0.1249  0.0789  0.1750
 3510SOL    HW111214   1.129   2.083   2.101  2.1882  0.9057  0.7833
 3510SOL    HW211215   1.166   1.941   2.065  2.2093  1.1739 -0.2738
 3511SOL     OW11216   2.526   3.055   3.377  0.2695 -0.3920  0.1360
 3511SOL    HW111217   2.536   3.025   3.467  0.4555 -1.9281 -0.3736
 3511SOL    HW211218   2.495   2.978   3.329  0.4800  0.3076 -1.1739
 3512SOL     OW11219   4.282   2.944   0.432  0.0854 -0.2744 -0.1738
 3512SOL    HW111220   4.288   2.910   0.342  0.5668  0.5444 -0.4663
 3512SOL    HW211221   4.188   2.952   0.448 -0.0070 -0.3914 -0.6286
 3513SOL     OW11222   3.794   3.382   6.757 -0.1152 -0.4593 -0.0323
 3513SOL    HW111223   3.771   3.449   6.694  0.7492  0.8267  0.9582
 3513SOL    HW211224   3.731   3.311   6.742 -0.1652 -0.0329 -2.0311
 3514SOL     OW11225   2.330   4.864   3.432  0.0367 -0.8039 -0.4786
 3514SOL    HW111226   2.395   4.860   3.502 -0.7272 -2.3010  0.2046
 3514SOL    HW211227   2.371   4.818   3.358  0.1965 -0.7480 -0.4245
 3515SOL     OW11228   3.263   4.486   6.141  0.4166 -0.0908 -0.3747
 3515SOL    HW111229   3.310   4.499   6.058 -0.7960  0.8961 -0.9458
 3515SOL    HW211230   3.317   4.531   6.206  1.4469 -0.9873 -0.5937
 3516SOL     OW11231   5.782   4.616   5.974 -0.0179 -0.0611 -0.1029
 3516SOL    HW111232   5.784   4.659   5.888 -1.8838  1.2404  0.4562
 3516SOL    HW211233   5.846   4.545   5.965  1.3843  1.2804 -1.8749
 3517SOL     OW11234   4.920   2.897   0.906  0.6208  0.2118  0.0779
 3517SOL    HW111235   4.957   2.843   0.976  0.3693 -0.2791 -0.1620
 3517SOL    HW211236   4.997   2.935   0.863  0.8393 -0.5870 -0.2458
 3518SOL     OW11237   6.080   2.814   0.714  0.1352  0.0817  0.2098
 3518SOL    HW111238   6.129   2.808   0.796  1.0323  0.8689 -0.2506
 3518SOL    HW211239   6.048   2.725   0.698  0.8268 -0.2967  0.8774
 3519SOL     OW11240   6.313   5.132   6.816 -0.1870 -0.2112 -0.2205
 3519SOL    HW111241   6.235   5.185   6.829  2.1630  3.2772  0.8774
 3519SOL    HW211242   6.359   5.135   6.900  1.9647 -0.6574 -1.3036
 3520SOL     OW11243   4.236   2.426   3.309 -0.1919 -0.1407  0.5199
 3520SOL    HW111244   4.215   2.426   3.215  1.0487  0.0178  0.2224
 3520SOL    HW211245   4.298   2.498   3.319 -0.4206 -0.0682  1.4989
 3521SOL     OW11246   1.648   5.550   0.655 -0.5345  0.0556 -0.0937
 3521SOL    HW111247   1.582   5.528   0.590 -1.7072  1.1496  0.6680
 3521SOL    HW211248   1.600   5.600   0.722  0.5010 -1.4112  1.8636
 3522SOL     OW11249   4.645   1.511   4.679 -0.5689 -0.2683  0.0272
 3522SOL    HW111250   4.684   1.596   4.658 -0.6971  0.1133  1.2520
 3522SOL    HW211251   4.718   1.449   4.675  0.0110  0.2897  1.4065
 3523SOL     OW11252   2.814   5.568   1.175  0.2159 -0.5585 -0.0367
 3523SOL    HW111253   2.894   5.542   1.130  0.0846 -1.9563  0.4809
 3523SOL    HW211254   2.759   5.489   1.173 -1.7869  0.7830 -1.6882
 3524SOL     OW11255   0.881   2.103   0.085 -0.4392  0.0646 -0.3429
 3524SOL    HW111256   0.820   2.139   0.020 -0.0275 -0.9684 -1.3444
 3524SOL    HW211257   0.947   2.057   0.032  0.2430 -0.2967  0.7966
 3525SOL     OW11258   1.186   5.539   5.272 -0.2323  0.1026 -0.2324
 3525SOL    HW111259   1.275   5.559   5.301  0.0767 -0.5812 -0.6748
 3525SOL    HW211260   1.193   5.451   5.233 -1.5117 -0.9343  1.6939
 3526SOL     OW11261   4.511   0.627   1.173  0.4848  0.5288 -0.8118
 3526SOL    HW111262   4.497   0.639   1.267 -1.5889  0.1654 -1.0231
 3526SOL    HW211263   4.458   0.550   1.150  1.9102 -0.1206 -2.0725
 3527SOL     OW11264   4.405   3.688   0.479  0.9796 -0.8182  0.4231
 3527SOL    HW111265   4.368   3.747   0.545  0.4292 -0.9077  0.2077
 3527SOL    HW211266   4.447   3.745   0.416  0.1888 -0.6217  0.0563
 3528SOL     OW11267   6.539   4.985   0.956 -0.1549 -0.0783 -0.5837
 3528SOL    HW111268   6.536   4.924   0.882 -0.3672 -0.8249  0.0302
 3528SOL    HW211269   6.450   5.022   0.960  0.7327  2.7240 -2.9208
 3529SOL     OW11270   5.950   1.730   5.992 -0.1550  0.2220 -0.1361
 3529SOL    HW111271   5.871   1.694   6.033  0.3130  0.2908  0.8814
 3529SOL    HW211272   5.981   1.795   6.055 -0.3670  1.6222 -1.4347
 3530SOL     OW11273   1.713   2.670   6.573  0.2451  0.7157 -0.5109
 3530SOL    HW111274   1.659   2.609   6.523 -0.7243  1.0786  0.0587
 3530SOL    HW211275   1.669   2.754   6.563  1.2097  1.2004 -0.7559
 3531SOL     OW11276   6.255   5.820   0.790 -0.1205  0.1780 -0.1850
 3531SOL    HW111277   6.348   5.795   0.789  0.2887  1.5631 -1.8956
 3531SOL    HW211278   6.209   5.740   0.815  1.4647 -0.8109 -0.2799
 3532SOL     OW11279   0.512   2.488   6.402  0.2301 -0.0174 -0.0192
 3532SOL    HW111280   0.431   2.497   6.351 -1.4224  0.2786  2.4856
 3532SOL    HW211281   0.563   2.423   6.354 -2.1524 -1.3396 -0.9498
 3533SOL     OW11282   5.256   1.306   6.340  0.3415  0.0201 -0.4254
 3533SOL    HW111283   5.209   1.365   6.282  0.6856 -0.3379 -1.0728
 3533SOL    HW211284   5.269   1.357   6.420 -1.1120  0.1388 -0.2369
 3534SOL     OW11285   4.459   5.145   3.013 -0.6713 -0.4350 -0.1830
 3534SOL    HW111286   4.384   5.177   3.063  0.0096  1.5155 -0.3524
 3534SOL    HW211287   4.493   5.222   2.968  0.4956 -1.5889 -1.3729
 3535SOL     OW11288   1.564   6.378   0.493 -0.1620  0.0584  0.6903
 3535SOL    HW111289   1.501   6.415   0.556 -1.0957 -1.0730  0.4484
 3535SOL    HW211290   1.521   6.299   0.460  2.1953 -1.8854  2.0012
 3536SOL     OW11291   4.094   0.825   6.641 -0.1104  0.3448  0.3086
 3536SOL    HW111292   4.105   0.738   6.679 -1.9942 -0.1417 -0.1889
 3536SOL    HW211293   4.159   0.879   6.687  0.2996 -1.0597  1.4523
 3537SOL     OW11294   1.853   2.318   1.922  0.0118  0.1395  0.4567
 3537SOL    HW111295   1.941   2.293   1.951 -0.4494 -2.2487 -0.0154
 3537SOL    HW211296   1.817   2.239   1.882 -0.3183  2.4306 -4.5704
 3538SOL     OW11297   4.810   3.919   3.267  0.1332  0.2754  0.0599
 3538SOL    HW111298   4.834   3.954   3.181  1.9903  0.7828  0.7470
 3538SOL    HW211299   4.865   3.842   3.278 -0.8087 -0.3652  0.3899
 3539SOL     OW11300   5.582   4.908   0.280  0.0132 -0.0981 -0.0791
 3539SOL    HW111301   5.505   4.891   0.225 -0.0944 -0.9086  0.3053
 3539SOL    HW211302   5.545   4.928   0.366  0.0593  3.3163 -0.7102
 3540SOL     OW11303   4.025   2.080   3.072 -0.2152  0.1278 -0.0432
 3540SOL    HW111304   4.085   2.030   3.128 -1.3297 -0.4441  0.6804
 3540SOL    HW211305   3.941   2.075   3.117 -0.7921  0.9964 -0.9870
 3541SOL     OW11306   0.761   0.549   3.690  0.6240  0.5700  0.2179
 3541SOL    HW111307   0.754   0.638   3.655  0.1145  0.4504  0.0044
 3541SOL    HW211308   0.846   0.518   3.660  1.0996  1.2205  0.8558
 3542SOL     OW11309   2.765   0.719   5.217 -0.0788 -0.3306  0.2384
 3542SOL    HW111310   2.708   0.782   5.261 -0.1423  0.0942 -0.4424
 3542SOL    HW211311   2.706   0.656   5.177 -0.0110 -0.9163  1.0398
 3543SOL     OW11312   3.934   2.298   1.062  0.1665  0.4110  0.0423
 3543SOL    HW111313   3.947   2.211   1.100  1.1195  0.4632 -0.1233
 3543SOL    HW211314   3.857   2.289   1.006  1.2179 -0.7994 -1.3142
 3544SOL     OW11315   5.719   1.344   4.161 -0.9054 -0.0074 -0.2266
 3544SOL    HW111316   5.694   1.418   4.106 -2.0866 -0.7811 -0.7831
 3544SOL    HW211317   5.688   1.267   4.114  1.0594 -0.9503 -0.0888
 3545SOL     OW11318   6.411   6.469   1.754 -0.1229 -0.5188  0.4545
 3545SOL    HW111319   6.364   6.552   1.743  0.4646 -0.2925 -0.4142
 3545SOL    HW211320   6.492   6.493   1.799 -0.4670 -0.8070  1.2672
 3546SOL     OW11321   4.698   0.356   0.711 -0.0679  0.1823  0.0156
 3546SOL    HW111322   4.650   0.436   0.732  0.2408  0.0072  1.5005
 3546SOL    HW211323   4.631   0.288   0.707 -0.3101  0.4691 -1.0846
 3547SOL     OW11324   0.128   3.080   2.715  0.7152 -0.4027 -0.0412
 3547SOL    HW111325   0.088   3.167   2.718  0.2905 -0.6096  0.3479
 3547SOL    HW211326   0.162   3.066   2.803 -0.4394 -1.1926  0.3078
 3548SOL     OW11327   2.927   5.563   2.846  0.1495  0.6426 -0.2587
 3548SOL    HW111328   2.969   5.537   2.928  0.9927 -1.1889 -1.1863
 3548SOL    HW211329   2.998   5.560   2.781 -1.1510 -1.9480 -1.7676
 3549SOL     OW11330   0.398   3.691   2.334  0.0152  0.0702 -0.3095
 3549SOL    HW111331   0.400   3.660   2.244 -1.0438 -0.5032 -0.1528
 3549SOL    HW211332   0.412   3.612   2.387 -2.5218 -0.2244  0.0864
 3550SOL     OW11333   6.269   2.959   0.101 -0.0302 -0.0358 -0.0021
 3550SOL    HW111334   6.319   3.027   0.146 -0.9553  0.2869  0.5626
 3550SOL    HW211335   6.235   3.002   0.023  1.1992 -0.4715 -0.7987
 3551SOL     OW11336   1.048   2.061   4.824 -0.1132  0.3075  0.3141
 3551SOL    HW111337   0.999   2.045   4.743 -0.9693  0.1322  0.8484
 3551SOL    HW211338   1.121   2.000   4.820  0.3134  0.8645 -0.7011
 3552SOL     OW11339   5.362   4.782   2.816  0.0414 -0.3909  0.6582
 3552SOL    HW111340   5.292   4.824   2.866  2.0965  2.2384  1.5494
 3552SOL    HW211341   5.397   4.716   2.875 -0.6088 -0.5992  0.8232
 3553SOL     OW11342   3.509   3.985   1.800  0.0751 -0.0841  0.1394
 3553SOL    HW111343   3.428   3.982   1.750 -1.9498  1.6336  3.0041
 3553SOL    HW211344   3.522   4.077   1.820  1.7352 -0.5119  1.2854
 3554SOL     OW11345   4.067   1.737   4.941 -0.1870  0.1626 -0.0250
 3554SOL    HW111346   4.029   1.689   4.868 -0.5007 -1.4227  1.1382
 3554SOL    HW211347   4.153   1.696   4.955  0.7815  1.8073 -0.7739
 3555SOL     OW11348   3.780   4.786   1.673  0.0011  0.5897 -0.3043
 3555SOL    HW111349   3.741   4.699   1.666  0.4865  0.2582  0.9699
 3555SOL    HW211350   3.739   4.836   1.602  0.1318 -0.8179 -1.4052
 3556SOL     OW11351   6.547   1.236   1.484 -0.0127  0.0497 -0.4634
 3556SOL    HW111352   6.484   1.287   1.433 -1.0426 -1.8118 -1.1625
 3556SOL    HW211353   6.613   1.208   1.421  0.5776  0.5415 -0.0761
 3557SOL     OW11354   0.765   4.444   4.139  0.1272 -0.2477 -0.5756
 3557SOL    HW111355   0.832   4.491   4.089  1.4326  0.9871  2.1139
 3557SOL    HW211356   0.724   4.512   4.192 -0.8647 -1.5305  0.3502
 3558SOL     OW11357   3.180   1.940   2.262  0.0644 -0.1310 -0.0491
 3558SOL    HW111358   3.251   2.004   2.264 -0.4042  0.4200 -0.4945
 3558SOL    HW211359   3.223   1.857   2.243  0.6379  0.1222  0.1142
 3559SOL     OW11360   0.382   4.255   1.279 -0.4483  0.0421 -0.0654
 3559SOL    HW111361   0.295   4.291   1.300 -0.5704  0.4287 -1.1788
 3559SOL    HW211362   0.440   4.296   1.343 -1.0258  0.0463  0.4744
 3560SOL     OW11363   1.286   1.329   4.795 -0.2919 -0.4476 -0.5173
 3560SOL    HW111364   1.269   1.321   4.701 -0.9912 -2.2959 -0.2829
 3560SOL    HW211365   1.328   1.246   4.819 -1.3230 -0.5808  1.0250
 3561SOL     OW11366   5.075   6.486   2.403  0.5997  0.4120 -0.2774
 3561SOL    HW111367   5.129   6.490   2.324  0.3619  2.6082 -0.3850
 3561SOL    HW211368   5.129   6.437   2.466  1.9583  0.9834 -0.9547
 3562SOL     OW11369   0.197   3.164   6.591  0.2873  0.0965 -0.3559
 3562SOL    HW111370   0.173   3.071   6.592 -0.3568  0.1111 -3.5054
 3562SOL    HW211371   0.140   3.204   6.656 -0.4648 -1.5091  0.0254
 3563SOL     OW11372   0.812   6.424   3.252 -0.0945 -0.4612 -0.2010
 3563SOL    HW111373   0.906   6.422   3.234 -0.1711 -1.5924 -0.5690
 3563SOL    HW211374   0.806   6.430   3.347  0.3207  1.8565 -0.2568
 3564SOL     OW11375   2.480   1.164   6.003 -0.8439 -0.1605  0.3779
 3564SOL    HW111376   2.486   1.169   5.907  0.3923  0.5103  0.4721
 3564SOL    HW211377   2.441   1.247   6.029  1.6081  0.9943  0.6249
 3565SOL     OW11378   3.990   2.196   1.940  0.5404  0.0775 -0.3608
 3565SOL    HW111379   4.073   2.244   1.931  0.1538  0.9183  0.4002
 3565SOL    HW211380   4.015   2.111   1.977  1.2010 -0.2283 -1.4484
 3566SOL     OW11381   2.401   2.933   5.456 -0.1528 -0.5170 -0.0620
 3566SOL    HW111382   2.451   2.948   5.375  0.9201  0.4422  0.7413
 3566SOL    HW211383   2.458   2.876   5.508  0.5924  1.3724  1.2682
 3567SOL     OW11384   1.654   6.695   2.914 -0.2880 -0.5454  0.0229
 3567SOL    HW111385   1.569   6.734   2.936  0.2840  1.0069 -0.3953
 3567SOL    HW211386   1.706   6.706   2.993 -0.6432 -2.1293  0.5259
 3568SOL     OW11387   2.849   1.006   3.607 -0.1091 -0.4746  0.0964
 3568SOL    HW111388   2.765   1.026   3.649  0.3331 -0.6196  1.0657
 3568SOL    HW211389   2.900   1.087   3.617 -0.4095 -0.0966 -1.2260
 3569SOL     OW11390   1.436   6.154   0.420  0.3351  0.4813 -0.2090
 3569SOL    HW111391   1.377   6.121   0.487  0.9543  0.3867  0.3008
 3569SOL    HW211392   1.413   6.105   0.341  0.1656 -0.0073  0.1428
 3570SOL     OW11393   4.544   4.871   0.011 -0.4540 -0.2097  0.1481
 3570SOL    HW111394   4.581   4.935   0.072 -0.4447  1.7546 -1.7961
 3570SOL    HW211395   4.450   4.882   0.017 -0.4359  2.0219 -2.0767
 3571SOL     OW11396   2.394   3.947   5.105 -0.2684  0.0525 -0.2756
 3571SOL    HW111397   2.405   3.852   5.103 -0.5506  0.0288 -1.3496
 3571SOL    HW211398   2.323   3.964   5.042 -0.5450  0.9271  0.2618
 3572SOL     OW11399   2.886   3.152   1.768 -0.1060 -0.3460 -0.4499
 3572SOL    HW111400   2.926   3.107   1.693 -1.5103 -2.5430  0.0429
 3572SOL    HW211401   2.902   3.245   1.751  2.6663 -0.9402 -1.6767
 3573SOL     OW11402   4.891   1.953   4.027  0.2078 -0.5807 -0.1635
 3573SOL    HW111403   4.844   1.880   3.985 -0.0719 -0.4869 -0.0136
 3573SOL    HW211404   4.873   2.028   3.971 -0.6540 -0.3226  0.4269
 3574SOL     OW11405   0.096   3.221   0.226  0.0242 -0.4168 -0.2395
 3574SOL    HW111406   0.084   3.278   0.150  1.1408 -1.1350 -0.9762
 3574SOL    HW211407   0.170   3.165   0.203 -0.9158 -2.0449  0.5485
 3575SOL     OW11408   6.586   3.252   5.705 -0.6593  0.1509 -0.1891
 3575SOL    HW111409   6.628   3.246   5.791 -0.9020  2.5735  0.1635
 3575SOL    HW211410   6.565   3.161   5.683  2.1434 -0.8878  0.8826
 3576SOL     OW11411   6.041   4.608   5.531  0.1093 -0.1194  0.2573
 3576SOL    HW111412   6.098   4.684   5.545 -0.2420  0.0130  1.0473
 3576SOL    HW211413   6.010   4.617   5.441 -0.6652  1.1901  0.6295
 3577SOL     OW11414   5.143   5.394   0.892 -0.2926 -0.6422 -0.0097
 3577SOL    HW111415   5.202   5.357   0.959 -1.1121  2.0846  2.4187
 3577SOL    HW211416   5.185   5.477   0.867 -0.9632 -0.7364 -1.5499
 3578SOL     OW11417   1.862   2.180   6.379  0.5594 -0.1706  0.3070
 3578SOL    HW111418   1.887   2.099   6.335  0.9718  1.5890 -3.0276
 3578SOL    HW211419   1.770   2.192   6.359  0.4830  0.1781  0.8269
 3579SOL     OW11420   5.122   3.474   4.270  0.2513  0.6178  0.3961
 3579SOL    HW111421   5.114   3.428   4.186 -1.4753 -0.1652  0.9572
 3579SOL    HW211422   5.166   3.411   4.328 -2.2485 -0.5055  1.2083
 3580SOL     OW11423   6.718   3.208   0.287  0.1768 -0.4065  0.0311
 3580SOL    HW111424   6.813   3.205   0.276  0.1914 -0.7100  0.2160
 3580SOL    HW211425   6.703   3.271   0.357  0.1185  1.0715 -1.2578
 3581SOL     OW11426   6.658   2.333   1.763 -0.1117  0.2645  0.6446
 3581SOL    HW111427   6.729   2.301   1.706 -0.7233 -1.2989  0.7163
 3581SOL    HW211428   6.619   2.406   1.714  1.3696  1.0022  0.4968
 3582SOL     OW11429   0.221   0.018   5.926 -0.0556  0.2453 -0.3257
 3582SOL    HW111430   0.179  -0.063   5.897  0.4765 -0.7898  1.6132
 3582SOL    HW211431   0.251   0.059   5.845  0.1203 -1.7458 -1.3401
 3583SOL     OW11432   4.581   0.770   5.644  0.3823 -0.0923  0.3488
 3583SOL    HW111433   4.555   0.714   5.572 -2.0439 -2.0535  2.5350
 3583SOL    HW211434   4.505   0.827   5.658  1.9046  2.2482 -0.3306
 3584SOL     OW11435   1.841   5.997   4.232  0.4452 -0.2096  0.8906
 3584SOL    HW111436   1.915   5.937   4.240  0.0253 -0.7674  0.6186
 3584SOL    HW211437   1.768   5.951   4.271  0.0631  0.0166  0.4507
 3585SOL     OW11438   3.457   3.591   5.865  0.0622 -0.7365  0.0508
 3585SOL    HW111439   3.491   3.569   5.952 -0.1320  0.0433  0.3341
 3585SOL    HW211440   3.372   3.632   5.882 -0.4241 -1.4789 -0.5731
 3586SOL     OW11441   3.796   0.901   0.147 -0.0642 -0.0207  0.1099
 3586SOL    HW111442   3.801   0.994   0.170 -0.8538  0.1820 -0.4815
 3586SOL    HW211443   3.705   0.887   0.122  0.2372 -0.7482 -0.6497
 3587SOL     OW11444   1.198   2.863   3.980  0.8047  0.4081  0.1962
 3587SOL    HW111445   1.147   2.785   4.002 -0.4628  0.5105 -2.0647
 3587SOL    HW211446   1.289   2.837   3.993  0.3611 -1.1575  0.3254
 3588SOL     OW11447   2.057   3.417   2.279 -0.0819 -0.4991 -0.2821
 3588SOL    HW111448   1.997   3.349   2.247 -0.6033  0.1005 -0.5953
 3588SOL    HW211449   2.046   3.416   2.374 -0.7057 -0.2909 -0.3490
 3589SOL     OW11450   4.929   5.734   2.046  0.6677  0.7825 -0.1515
 3589SOL    HW111451   4.839   5.739   2.078  0.5052 -1.4448 -0.1251
 3589SOL    HW211452   4.975   5.681   2.111  1.9179  1.5291 -0.3855
 3590SOL     OW11453   5.631   0.882   1.332 -0.0518  0.3160  0.0334
 3590SOL    HW111454   5.646   0.840   1.417  0.9341  1.0527  0.2527
 3590SOL    HW211455   5.537   0.894   1.328 -0.2224 -0.7250  0.5324
 3591SOL     OW11456   5.420   4.602   3.720 -0.1811 -0.0360 -0.5221
 3591SOL    HW111457   5.348   4.586   3.659  0.5792  0.6845 -1.6547
 3591SOL    HW211458   5.377   4.634   3.799 -1.1895 -0.9071 -0.6946
 3592SOL     OW11459   3.908   0.715   3.838  0.2684 -0.0369  0.7005
 3592SOL    HW111460   3.842   0.706   3.770  0.8873  0.2336  0.0443
 3592SOL    HW211461   3.922   0.810   3.847  1.1143 -0.1068  0.2702
 3593SOL     OW11462   4.272   0.323   0.383  0.0369  0.2750  1.0500
 3593SOL    HW111463   4.249   0.360   0.468 -1.8870  0.1484  0.6100
 3593SOL    HW211464   4.197   0.270   0.358  0.9514 -0.4418 -0.3274
 3594SOL     OW11465   1.428   0.512   0.322  0.3321 -0.1857  0.7390
 3594SOL    HW111466   1.448   0.603   0.342  0.1204 -0.2193  1.1237
 3594SOL    HW211467   1.344   0.496   0.366 -0.6552  0.0255 -0.9892
 3595SOL     OW11468   3.646   0.542   1.871  0.3777  0.0106  0.1348
 3595SOL    HW111469   3.668   0.450   1.858  0.8610 -0.0718  1.3964
 3595SOL    HW211470   3.700   0.569   1.945  0.9975  1.5845 -0.8392
 3596SOL     OW11471   3.185   6.382   2.785  0.1884 -0.6216  0.3341
 3596SOL    HW111472   3.209   6.380   2.692  0.4184 -1.1463  0.4000
 3596SOL    HW211473   3.168   6.290   2.807  0.8175 -0.5952  0.9827
 3597SOL     OW11474   1.153   1.565   0.713  0.8104  0.0354 -0.0825
 3597SOL    HW111475   1.122   1.601   0.797  1.0530 -1.0779  0.4958
 3597SOL    HW211476   1.233   1.517   0.735 -0.0372 -1.7124 -0.6535
 3598SOL     OW11477   6.719   1.253   5.941 -0.4549 -0.5046  0.4268
 3598SOL    HW111478   6.719   1.313   5.866  1.1465 -1.5751 -0.4855
 3598SOL    HW211479   6.649   1.190   5.921  0.3515 -1.1408 -0.5083
 3599SOL     OW11480   2.435   6.266   5.212 -0.1745 -0.8836 -0.3159
 3599SOL    HW111481   2.464   6.202   5.277  1.8591 -0.2272 -0.5216
 3599SOL    HW211482   2.486   6.345   5.231 -0.8874 -0.0864 -1.5673
 3600SOL     OW11483   0.297   4.496   1.005  0.0077  0.6321 -0.4724
 3600SOL    HW111484   0.297   4.401   1.014  0.0740  0.5535 -1.2072
 3600SOL    HW211485   0.311   4.511   0.912 -1.6577  1.3412 -0.6503
 3601SOL     OW11486   5.567   5.596   2.425 -0.6788  0.3912 -0.5309
 3601SOL    HW111487   5.616   5.570   2.503  0.7511  1.5075 -1.0106
 3601SOL    HW211488   5.489   5.639   2.458 -1.1635 -1.0102  0.2572
 3602SOL     OW11489   0.654   5.447   0.494  0.6962 -0.2082  0.1609
 3602SOL    HW111490   0.743   5.423   0.466  0.3271 -0.2707 -1.0062
 3602SOL    HW211491   0.646   5.539   0.471  0.2848 -0.3298 -0.1783
 3603SOL     OW11492   5.551   4.242   1.258  0.4468 -0.1614  0.3360
 3603SOL    HW111493   5.612   4.199   1.318  0.8355  1.3806  1.1282
 3603SOL    HW211494   5.546   4.332   1.291 -1.1960  0.1109 -0.5478
 3604SOL     OW11495   2.802   0.853   4.525 -0.0467 -0.1608 -0.0882
 3604SOL    HW111496   2.739   0.848   4.596 -0.5570 -1.3616 -0.6095
 3604SOL    HW211497   2.752   0.834   4.446  0.6301  0.5866 -0.7211
 3605SOL     OW11498   1.752   6.774   3.613  0.2184 -0.0410 -0.0197
 3605SOL    HW111499   1.794   6.858   3.597  4.6604 -1.6187  1.7885
 3605SOL    HW211500   1.755   6.762   3.708  0.4050 -2.5064 -0.2589
 3606SOL     OW11501   6.640   4.097   2.198  0.2588 -0.4862  0.6843
 3606SOL    HW111502   6.727   4.136   2.188 -0.6881  1.6300  0.1892
 3606SOL    HW211503   6.584   4.150   2.141 -1.3148 -2.0093  0.7449
 3607SOL     OW11504   0.556   5.333   1.763  0.1140 -0.0141  0.4341
 3607SOL    HW111505   0.603   5.328   1.679  2.0722 -0.9067  1.5267
 3607SOL    HW211506   0.525   5.244   1.778 -3.0687  0.7241 -0.7679
 3608SOL     OW11507   1.387   6.482   1.964 -0.0973  0.1108 -0.2051
 3608SOL    HW111508   1.294   6.468   1.946 -0.0188 -2.6779  1.1270
 3608SOL    HW211509   1.432   6.420   1.907  0.9044  0.6494 -0.0302
 3609SOL     OW11510   3.961   1.651   2.546  0.8381 -0.1585 -0.3507
 3609SOL    HW111511   3.995   1.616   2.629  1.9319  0.8674 -0.3452
 3609SOL    HW211512   3.892   1.712   2.572 -0.3446 -1.4357 -0.3210
 3610SOL     OW11513   2.594   0.606   5.476 -0.4746  0.3408  0.3913
 3610SOL    HW111514   2.561   0.572   5.560  0.7535  0.9953  1.1645
 3610SOL    HW211515   2.652   0.537   5.444 -1.5016 -0.2310 -0.3180
 3611SOL     OW11516   1.423   4.411   1.944  0.1812  0.3847 -0.1304
 3611SOL    HW111517   1.437   4.470   2.018 -0.9327 -1.8326  1.9635
 3611SOL    HW211518   1.414   4.324   1.983  1.1641 -1.1608 -3.0211
 3612SOL     OW11519   5.239   4.991   5.126 -0.0641 -0.3824 -0.1954
 3612SOL    HW111520   5.177   5.022   5.191 -0.4609 -0.2210 -0.6451
 3612SOL    HW211521   5.286   4.920   5.169 -0.2199 -0.1789  0.3128
 3613SOL     OW11522   0.933   4.941   2.084 -0.1215 -0.0052 -0.0160
 3613SOL    HW111523   0.877   4.901   2.150 -1.2008  0.4513 -0.6311
 3613SOL    HW211524   1.017   4.954   2.128 -0.3505 -1.0930  0.7977
 3614SOL     OW11525   5.937   4.854   0.714 -0.7969  0.4131  0.7315
 3614SOL    HW111526   5.880   4.798   0.661  0.6962  0.4999 -1.0663
 3614SOL    HW211527   5.881   4.887   0.784 -1.9765 -2.5194  1.2907
 3615SOL     OW11528   3.732   6.097   0.369 -0.2784 -0.1652 -0.2697
 3615SOL    HW111529   3.758   6.015   0.412 -0.5566 -0.7950 -1.2699
 3615SOL    HW211530   3.655   6.126   0.417  0.6182  0.2576  0.9675
 3616SOL     OW11531   1.067   1.980   3.259  0.1303 -0.0940 -0.7731
 3616SOL    HW111532   0.977   1.953   3.241  0.1721 -2.7974  2.1932
 3616SOL    HW211533   1.121   1.922   3.205  0.1288 -0.0992 -0.7689
 3617SOL     OW11534   6.883   4.289   4.126 -0.0852 -0.3381  0.1168
 3617SOL    HW111535   6.859   4.231   4.054  1.9109 -2.3719  0.9631
 3617SOL    HW211536   6.831   4.258   4.200 -0.1616  0.0003  0.2077
 3618SOL     OW11537   1.749   2.325   6.005 -0.1441 -0.1228  0.2401
 3618SOL    HW111538   1.661   2.350   5.978 -0.0781 -0.9155 -0.7754
 3618SOL    HW211539   1.737   2.242   6.052  0.1511 -0.7774 -0.8061
 3619SOL     OW11540   5.875   0.601   0.644 -0.5655 -0.0932  0.2992
 3619SOL    HW111541   5.870   0.697   0.640  0.5714  0.0759  1.8946
 3619SOL    HW211542   5.952   0.583   0.698 -0.4829 -1.9307 -0.3645
 3620SOL     OW11543   6.102   5.678   2.028  0.1863 -0.4406 -0.4834
 3620SOL    HW111544   6.077   5.680   1.936 -1.4449  0.1847 -0.0663
 3620SOL    HW211545   6.019   5.689   2.076  1.1617  0.8373  1.0209
 3621SOL     OW11546   0.265   0.226   6.354  0.0545 -0.2983 -0.4814
 3621SOL    HW111547   0.170   0.219   6.356 -0.0261  0.2314 -1.6921
 3621SOL    HW211548   0.287   0.271   6.436 -0.6995 -0.6911 -0.0486
 3622SOL     OW11549   6.410   4.567   5.302 -0.3011  0.1929 -0.5995
 3622SOL    HW111550   6.368   4.497   5.251 -2.6505 -0.9168  2.5524
 3622SOL    HW211551   6.486   4.525   5.342 -2.5501 -1.2672  2.5323
 3623SOL     OW11552   4.089   0.752   2.521  0.0409  0.1858  0.4195
 3623SOL    HW111553   4.104   0.658   2.529  0.3276  0.0813 -1.1521
 3623SOL    HW211554   4.032   0.773   2.595  0.7408 -1.0299  1.3504
 3624SOL     OW11555   0.328   5.786   5.356  0.2338 -0.3252 -0.2537
 3624SOL    HW111556   0.363   5.774   5.444 -1.8810 -1.7081  0.4697
 3624SOL    HW211557   0.233   5.775   5.366 -0.4634  2.6632 -2.1758
 3625SOL     OW11558   4.100   4.176   1.064  0.2343  0.2794  0.3707
 3625SOL    HW111559   4.045   4.158   0.988 -2.0217  1.3296  1.6383
 3625SOL    HW211560   4.168   4.234   1.032  0.8846 -1.3118 -1.3335
 3626SOL     OW11561   3.743   5.912   0.581 -0.0417  0.3253 -0.0236
 3626SOL    HW111562   3.687   5.839   0.556  0.6114 -0.8463  1.7827
 3626SOL    HW211563   3.803   5.876   0.646  2.3509  1.7261 -1.3265
 3627SOL     OW11564   2.429   0.028   5.170  0.0671  0.1064 -0.3814
 3627SOL    HW111565   2.374  -0.012   5.102 -0.2423 -1.8478  0.9455
 3627SOL    HW211566   2.511  -0.020   5.166 -0.4284 -1.0051  1.4662
 3628SOL     OW11567   2.938   4.659   2.228 -0.1263  0.0852  0.4686
 3628SOL    HW111568   2.949   4.618   2.142  3.0004 -0.6432  1.0640
 3628SOL    HW211569   2.954   4.588   2.290 -0.2355  1.0392  1.6206
 3629SOL     OW11570   3.596   4.414   0.157  0.3733 -0.6184  0.3921
 3629SOL    HW111571   3.684   4.449   0.140  0.1972  0.0002  0.7407
 3629SOL    HW211572   3.565   4.463   0.232 -0.7983  0.1010 -0.5254
 3630SOL     OW11573   4.768   5.937   4.082  0.8032 -0.2773 -0.3097
 3630SOL    HW111574   4.825   5.912   4.155  1.0174 -2.1502 -1.0810
 3630SOL    HW211575   4.828   5.957   4.010  0.5407 -0.5513 -0.6086
 3631SOL     OW11576   6.639   1.301   4.970  0.1025  0.1188 -0.6009
 3631SOL    HW111577   6.633   1.329   4.878 -2.3735  0.6854 -0.3373
 3631SOL    HW211578   6.642   1.206   4.966 -1.5088  0.0584 -1.2862
 3632SOL     OW11579   2.472   4.873   0.026  0.0246 -0.1445  0.4053
 3632SOL    HW111580   2.403   4.815   0.059  0.1102  0.5490  1.8889
 3632SOL    HW211581   2.522   4.897   0.104  1.9283 -0.5654 -0.6234
 3633SOL     OW11582   1.692   0.658   1.402  0.0021  0.6953  0.4910
 3633SOL    HW111583   1.718   0.723   1.337  2.5120  0.3274  1.0413
 3633SOL    HW211584   1.761   0.661   1.468 -0.9491 -1.0233  1.6352
 3634SOL     OW11585   1.924   6.592   3.837  0.1550 -0.6357  0.4668
 3634SOL    HW111586   1.862   6.631   3.899 -1.0178 -0.4486 -0.7698
 3634SOL    HW211587   1.913   6.497   3.849 -0.3023 -0.6036  0.3374
 3635SOL     OW11588   2.539   6.635   1.778 -0.4483  0.4399 -0.1839
 3635SOL    HW111589   2.541   6.559   1.721  0.2991  0.0403  0.3595
 3635SOL    HW211590   2.454   6.677   1.760 -1.7578 -1.5807  0.8982
 3636SOL     OW11591   1.459   2.592   3.253  0.1983  0.2660 -0.1963
 3636SOL    HW111592   1.494   2.619   3.338  0.8840  1.5892 -0.8540
 3636SOL    HW211593   1.371   2.560   3.271  1.3033 -2.2106  1.3954
 3637SOL     OW11594   4.560   1.821   0.874 -0.1681  0.0305 -0.3943
 3637SOL    HW111595   4.649   1.854   0.886 -0.3034  0.6319 -0.9768
 3637SOL    HW211596   4.570   1.726   0.867  0.4355  0.0978 -0.4989
 3638SOL     OW11597   4.034   0.759   2.230 -0.1453 -0.3525 -0.1679
 3638SOL    HW111598   3.991   0.674   2.221 -0.8844 -0.1034  0.7712
 3638SOL    HW211599   4.046   0.770   2.325  1.6431 -0.2183 -0.3741
 3639SOL     OW11600   0.813   0.567   1.863  0.8183 -0.3447 -0.2319
 3639SOL    HW111601   0.752   0.560   1.937  0.3760  1.4899 -0.3649
 3639SOL    HW211602   0.874   0.495   1.876 -0.9005 -1.7642  0.3459
 3640SOL     OW11603   5.335   3.296   1.686  0.0980 -0.1632 -0.2945
 3640SOL    HW111604   5.352   3.232   1.755  2.0935  2.3840  1.8169
 3640SOL    HW211605   5.409   3.286   1.626 -0.1967 -0.5385 -0.6067
 3641SOL     OW11606   5.931   3.685   3.835 -0.1724  0.5220  0.4540
 3641SOL    HW111607   5.917   3.774   3.803  0.5948  0.0974 -1.1876
 3641SOL    HW211608   5.862   3.633   3.794  0.0130  0.1818  0.5615
 3642SOL     OW11609   3.573   5.135   6.506  0.2987 -0.2937  0.1681
 3642SOL    HW111610   3.626   5.117   6.584 -0.4185 -1.2168  0.4607
 3642SOL    HW211611   3.494   5.084   6.519 -0.9696  1.5228  0.0370
 3643SOL     OW11612   6.147   3.041   5.020 -0.0574  0.1762 -0.5155
 3643SOL    HW111613   6.055   3.069   5.019  0.2839  1.5323  0.9759
 3643SOL    HW211614   6.173   3.051   5.112  0.6976 -3.3222 -0.1923
 3644SOL     OW11615   1.923   3.571   6.735 -0.1643  0.2226  0.1029
 3644SOL    HW111616   1.829   3.585   6.729 -0.2703 -0.2770  0.5751
 3644SOL    HW211617   1.943   3.580   6.829  0.4030  1.2312 -0.0978
 3645SOL     OW11618   4.461   3.139   6.052  0.0797  0.1943 -0.4465
 3645SOL    HW111619   4.435   3.050   6.027  1.3578 -0.4755  0.4689
 3645SOL    HW211620   4.549   3.148   6.016 -0.2873  1.3416 -1.0811
 3646SOL     OW11621   0.109   0.686   0.117 -0.1900  0.0855  0.4086
 3646SOL    HW111622   0.045   0.647   0.058 -0.2683  0.3015  0.3516
 3646SOL    HW211623   0.190   0.691   0.066 -0.2779  0.3442  0.2953
 3647SOL     OW11624   5.126   1.280   5.674 -0.0034  0.2276 -0.5134
 3647SOL    HW111625   5.150   1.226   5.749  0.5178 -0.1144 -0.9190
 3647SOL    HW211626   5.088   1.359   5.712 -0.3398 -0.2151  0.0975
 3648SOL     OW11627   4.199   6.195   5.097  0.1424  0.7063 -0.0762
 3648SOL    HW111628   4.186   6.283   5.062  0.0021  1.8390  2.5863
 3648SOL    HW211629   4.120   6.178   5.148  0.5816 -0.5894  0.2076
 3649SOL     OW11630   4.329   2.415   0.412  0.1366 -0.5285 -0.0747
 3649SOL    HW111631   4.375   2.445   0.490 -1.1385 -0.7238  0.7761
 3649SOL    HW211632   4.237   2.408   0.438 -0.1254 -1.9127 -1.1896
 3650SOL     OW11633   3.923   0.453   1.932  0.2258  0.1061  0.0974
 3650SOL    HW111634   3.996   0.493   1.884  1.5093 -2.2837 -0.1486
 3650SOL    HW211635   3.953   0.451   2.023  0.9250 -1.6163 -0.1204
 3651SOL     OW11636   2.492   3.562   6.609 -0.1115 -0.2725  0.2323
 3651SOL    HW111637   2.555   3.532   6.544 -0.0312 -0.9506  0.6170
 3651SOL    HW211638   2.515   3.514   6.688 -0.2094  0.5361  0.7659
 3652SOL     OW11639   6.187   2.679   1.298  0.0498  0.4443  0.4451
 3652SOL    HW111640   6.262   2.687   1.240  0.4805  1.0635  1.0666
 3652SOL    HW211641   6.149   2.767   1.301  0.5642  0.6590  1.7607
 3653SOL     OW11642   4.134   2.489   6.366 -0.0687 -0.1105 -0.2919
 3653SOL    HW111643   4.197   2.538   6.419 -0.4006 -0.4462  0.4228
 3653SOL    HW211644   4.096   2.426   6.427  1.1276 -2.0064 -1.4088
 3654SOL     OW11645   0.510   3.171   3.541 -0.2528  0.0470 -0.0756
 3654SOL    HW111646   0.575   3.240   3.554 -0.6459  0.7291 -1.4439
 3654SOL    HW211647   0.556   3.090   3.565  1.0207  0.5362 -0.7364
 3655SOL     OW11648   5.382   1.601   4.261  0.3600 -0.2607  0.8071
 3655SOL    HW111649   5.326   1.617   4.337  1.8636  1.6489  1.6201
 3655SOL    HW211650   5.461   1.561   4.297  0.4696 -0.7619  0.0287
 3656SOL     OW11651   6.235   5.740   5.492 -0.1654  0.1527 -0.3770
 3656SOL    HW111652   6.242   5.780   5.579  0.1900 -0.3688 -0.1607
 3656SOL    HW211653   6.181   5.801   5.442 -3.2449 -1.0657  1.1882
 3657SOL     OW11654   1.037   1.255   6.393  0.3744 -0.0999 -0.2630
 3657SOL    HW111655   0.998   1.261   6.481 -0.1685 -0.1498 -0.4958
 3657SOL    HW211656   1.069   1.343   6.375 -2.7273  0.9262 -1.4613
 3658SOL     OW11657   0.881   0.146   0.473  0.1937  0.1585 -0.2121
 3658SOL    HW111658   0.875   0.081   0.543  0.4576 -0.8260 -1.0622
 3658SOL    HW211659   0.925   0.099   0.402  1.5688  1.6723 -0.4091
 3659SOL     OW11660   2.953   3.783   6.091 -0.5673 -0.1874 -0.0373
 3659SOL    HW111661   2.924   3.798   6.001 -0.9943  0.0906  0.1399
 3659SOL    HW211662   2.921   3.695   6.112 -2.8419  0.7351  0.7241
 3660SOL     OW11663   1.120   4.686   4.924 -0.0643  0.2043  0.3091
 3660SOL    HW111664   1.059   4.748   4.886 -0.9886 -2.1691 -2.5058
 3660SOL    HW211665   1.207   4.720   4.901 -0.5648 -0.0772 -2.4067
 3661SOL     OW11666   0.447   4.490   6.634 -0.1249 -0.2409 -0.4697
 3661SOL    HW111667   0.351   4.484   6.632 -0.0624 -1.5381 -0.5017
 3661SOL    HW211668   0.476   4.402   6.658  1.0952 -0.1044 -1.3689
 3662SOL     OW11669   2.376   2.913   2.451  0.0885 -0.1737  1.0392
 3662SOL    HW111670   2.347   2.855   2.381 -0.6179 -0.2976  1.4316
 3662SOL    HW211671   2.470   2.926   2.434 -0.3373  0.9129 -0.7435
 3663SOL     OW11672   3.123   6.660   6.698  0.3820  0.2239 -0.0185
 3663SOL    HW111673   3.168   6.684   6.618  1.9891 -0.0346  0.7767
 3663SOL    HW211674   3.064   6.588   6.672  1.4568 -0.3880 -0.8183
 3664SOL     OW11675   4.548   0.332   5.408  0.0821 -0.1856 -0.3492
 3664SOL    HW111676   4.602   0.262   5.370  1.1906  1.3591 -1.8114
 3664SOL    HW211677   4.458   0.308   5.385  0.4848 -0.9067 -1.2625
 3665SOL     OW11678   3.098   1.401   5.795 -0.6738 -0.4249  0.4690
 3665SOL    HW111679   3.082   1.421   5.887 -0.5656  0.8044  0.2267
 3665SOL    HW211680   3.011   1.397   5.755 -0.6618  0.4564  0.3426
 3666SOL     OW11681   6.874   0.431   2.412 -0.1973  0.4997 -0.4166
 3666SOL    HW111682   6.834   0.461   2.331  2.1060  1.1363 -1.4064
 3666SOL    HW211683   6.941   0.369   2.384  1.0060  1.1405  0.9181
 3667SOL     OW11684   1.569   0.452   1.791  0.1274  0.1333  0.3631
 3667SOL    HW111685   1.547   0.466   1.699  0.4069  2.7700  0.6248
 3667SOL    HW211686   1.485   0.433   1.833 -0.2455  0.5334 -0.1871
 3668SOL     OW11687   1.587   2.719   5.936 -0.4599  0.1006 -0.5602
 3668SOL    HW111688   1.587   2.726   6.031  1.3765 -3.7434 -0.0791
 3668SOL    HW211689   1.662   2.772   5.908  0.1038 -0.1744  0.3682
 3669SOL     OW11690   0.450   0.376   6.233  0.0666 -0.0506 -0.1790
 3669SOL    HW111691   0.417   0.363   6.144 -1.6742 -0.1310  0.4595
 3669SOL    HW211692   0.391   0.326   6.289 -0.0416  1.5418  1.2118
 3670SOL     OW11693   6.751   2.026   1.496  0.0217 -0.2066  0.1669
 3670SOL    HW111694   6.689   2.079   1.546  0.8806 -0.9081  2.0851
 3670SOL    HW211695   6.720   1.936   1.507  0.4396 -0.4079 -0.2534
 3671SOL     OW11696   3.447   3.158   0.922 -0.0998 -0.2488 -0.2202
 3671SOL    HW111697   3.457   3.083   0.980 -2.7454 -0.8860 -0.4655
 3671SOL    HW211698   3.405   3.122   0.843 -2.4469  1.5877  0.0852
 3672SOL     OW11699   6.477   2.964   1.421  0.1637  0.1961  0.0034
 3672SOL    HW111700   6.560   2.917   1.423 -0.5018 -1.0181  0.1812
 3672SOL    HW211701   6.502   3.057   1.417  1.5425 -0.0436  1.8013
 3673SOL     OW11702   4.735   2.841   2.771  0.1563 -0.0478 -0.6419
 3673SOL    HW111703   4.725   2.772   2.705 -1.3336  0.8747 -1.4148
 3673SOL    HW211704   4.651   2.844   2.816  1.3289 -1.1152  1.8528
 3674SOL     OW11705   3.376   6.535   4.610  0.3266  0.0497  0.2483
 3674SOL    HW111706   3.402   6.528   4.518  1.1786  0.9711  0.3982
 3674SOL    HW211707   3.455   6.565   4.655 -0.7765  2.3931  0.8102
 3675SOL     OW11708   0.800   2.232   3.470  0.0888 -0.1011 -0.3288
 3675SOL    HW111709   0.787   2.232   3.375 -0.6454 -0.0811 -0.2364
 3675SOL    HW211710   0.724   2.280   3.504  1.0657  1.1247  0.1863
 3676SOL     OW11711   1.519   3.869   0.415  0.1472 -0.0345 -0.4444
 3676SOL    HW111712   1.484   3.919   0.489  0.3211 -1.5838  0.7571
 3676SOL    HW211713   1.467   3.789   0.414  1.7521 -1.1320 -0.3993
 3677SOL     OW11714   0.893   2.835   6.569  0.0641 -0.2288 -0.2768
 3677SOL    HW111715   0.839   2.881   6.634  0.6477 -0.8604  0.6891
 3677SOL    HW211716   0.846   2.846   6.486 -0.1494  1.5205  0.0468
 3678SOL     OW11717   5.798   4.063   0.157  0.5433  0.5691  0.2182
 3678SOL    HW111718   5.874   4.028   0.204  0.5583  0.3344  0.0180
 3678SOL    HW211719   5.727   4.003   0.178  0.4513  0.6961  0.2713
 3679SOL     OW11720   6.123   0.264   3.272  0.3361 -0.5782 -0.2559
 3679SOL    HW111721   6.032   0.273   3.245  0.2976 -1.1231 -0.3179
 3679SOL    HW211722   6.127   0.179   3.315  0.7935 -0.5127 -0.1646
 3680SOL     OW11723   1.714   5.434   2.977 -0.1803 -0.3748  0.3015
 3680SOL    HW111724   1.785   5.378   3.008  0.6223  0.0593 -0.6928
 3680SOL    HW211725   1.706   5.413   2.884 -0.1987  0.7923  0.0233
 3681SOL     OW11726   4.863   0.829   4.901 -0.1389  0.0993  0.1126
 3681SOL    HW111727   4.878   0.737   4.923 -1.6363  0.0956  1.2758
 3681SOL    HW211728   4.794   0.858   4.961  0.7930  2.1959  0.2605
 3682SOL     OW11729   5.972   2.820   2.434  0.2354 -0.4565 -0.0793
 3682SOL    HW111730   5.883   2.785   2.426  0.3449 -0.5508 -1.0365
 3682SOL    HW211731   6.026   2.756   2.388  0.7780 -0.3122  0.3537
 3683SOL     OW11732   0.982   6.850   4.646 -0.0959 -0.1298  0.5530
 3683SOL    HW111733   1.020   6.804   4.571  1.3918  1.1447  0.4535
 3683SOL    HW211734   0.952   6.933   4.609 -1.5187 -0.4402  0.9671
 3684SOL     OW11735   5.025   4.450   4.253  0.2835  0.3485  0.8033
 3684SOL    HW111736   5.024   4.411   4.341  3.1389  2.2921  1.8255
 3684SOL    HW211737   5.013   4.544   4.268  0.3220  0.6578 -0.9428
 3685SOL     OW11738   1.202   6.872   0.246 -0.5565 -0.0556 -0.3892
 3685SOL    HW111739   1.211   6.815   0.169  0.0861  1.6181 -1.6226
 3685SOL    HW211740   1.268   6.840   0.307 -0.5666 -0.9647 -0.8315
 3686SOL     OW11741   4.443   4.183   2.600  0.0408 -0.6304  0.3290
 3686SOL    HW111742   4.533   4.153   2.612 -0.2385 -1.4489  0.4129
 3686SOL    HW211743   4.420   4.157   2.511 -0.5235 -1.5250  0.7255
 3687SOL     OW11744   2.685   2.598   3.839 -0.3601 -0.1533  0.0591
 3687SOL    HW111745   2.603   2.629   3.801  0.3699  2.5428  0.4647
 3687SOL    HW211746   2.732   2.678   3.863  1.6714 -1.6430  1.3808
 3688SOL     OW11747   2.193   1.204   0.008  0.6679 -0.3753 -0.4845
 3688SOL    HW111748   2.218   1.112   0.020 -1.2678 -1.3106 -2.8364
 3688SOL    HW211749   2.273   1.253   0.027  1.1410 -2.2502  3.4139
 3689SOL     OW11750   2.073   6.435   5.070 -0.7316  0.0014 -0.1794
 3689SOL    HW111751   2.009   6.505   5.083 -0.5353  0.1340  0.0849
 3689SOL    HW211752   2.022   6.362   5.037 -0.5212  1.1895 -3.4690
 3690SOL     OW11753   0.565   0.630   2.934  0.2251  0.4106 -0.5474
 3690SOL    HW111754   0.485   0.648   2.984  0.6282 -0.4721  0.4563
 3690SOL    HW211755   0.636   0.664   2.989  0.7361 -1.2380 -0.1227
 3691SOL     OW11756   4.950   2.130   3.632 -0.4392  0.1700  0.0812
 3691SOL    HW111757   4.935   2.213   3.587 -1.8525  0.3630  0.8543
 3691SOL    HW211758   4.921   2.146   3.722 -0.2435 -1.0094  0.3664
 3692SOL     OW11759   1.442   5.667   0.787  0.3238  0.2588  0.0783
 3692SOL    HW111760   1.347   5.670   0.775  0.3643 -0.4477 -0.4707
 3692SOL    HW211761   1.471   5.756   0.764  0.0243 -0.1110 -1.9520
 3693SOL     OW11762   2.638   0.049   2.897  0.2100 -0.2162 -0.1887
 3693SOL    HW111763   2.660  -0.041   2.920 -1.1728 -0.6796 -0.6223
 3693SOL    HW211764   2.614   0.046   2.805  0.7382  0.7163 -0.3720
 3694SOL     OW11765   0.829   1.883   3.149 -0.4842 -0.5295  0.2359
 3694SOL    HW111766   0.793   1.953   3.094 -2.2099  0.4323  2.4711
 3694SOL    HW211767   0.771   1.808   3.133 -1.1621 -0.1622  0.9399
 3695SOL     OW11768   0.560   3.886   2.983  0.3484  0.1202 -0.0493
 3695SOL    HW111769   0.629   3.876   2.917  0.5012  0.4300  0.0593
 3695SOL    HW211770   0.587   3.831   3.056  0.5724  0.3730  0.0619
 3696SOL     OW11771   3.974   3.984   1.224  0.4314  0.5547 -0.4994
 3696SOL    HW111772   4.011   3.896   1.225 -0.7677  0.0098 -1.7938
 3696SOL    HW211773   4.023   4.030   1.156  0.0962  0.4386 -0.8239
 3697SOL     OW11774   1.129   3.429   5.093  0.4744 -0.0791  0.4730
 3697SOL    HW111775   1.077   3.357   5.056  1.3785 -0.7495  0.4885
 3697SOL    HW211776   1.098   3.506   5.046  1.0932 -0.8059 -1.2147
 3698SOL     OW11777   5.257   5.611   2.380 -0.7082 -0.3043 -0.0890
 3698SOL    HW111778   5.245   5.701   2.349 -0.1886  0.1841  1.0662
 3698SOL    HW211779   5.240   5.557   2.303 -1.9738  0.7217 -0.5712
 3699SOL     OW11780   6.771   6.875   0.071 -0.4648  0.2123 -0.6978
 3699SOL    HW111781   6.820   6.876  -0.010 -2.1796  0.5782 -1.7825
 3699SOL    HW211782   6.700   6.812   0.056 -1.2964  0.8965  0.1953
 3700SOL     OW11783   2.283   4.016   1.695 -0.3459  0.1222  0.0456
 3700SOL    HW111784   2.370   4.053   1.712  0.9857 -2.3400 -0.8518
 3700SOL    HW211785   2.269   4.029   1.602 -2.6049  3.5478  0.6697
 3701SOL     OW11786   6.048   0.197   4.388 -0.2955  0.4725  0.9023
 3701SOL    HW111787   5.977   0.135   4.376  0.3774 -0.3313  0.9687
 3701SOL    HW211788   6.045   0.254   4.311  0.0124 -0.5993  0.0763
 3702SOL     OW11789   4.905   5.100   4.825 -0.4675  0.8395 -0.5302
 3702SOL    HW111790   4.913   5.169   4.759 -0.2893 -1.0583 -2.6365
 3702SOL    HW211791   4.819   5.061   4.809 -0.3803  0.2714  0.3066
 3703SOL     OW11792   0.446   0.279   2.284  0.2278 -0.3745  0.1551
 3703SOL    HW111793   0.502   0.228   2.343 -1.2520 -1.3296  0.7998
 3703SOL    HW211794   0.385   0.324   2.342  0.9021  1.4368 -0.4758
 3704SOL     OW11795   5.111   4.880   5.562 -0.2608  0.0908 -0.3163
 3704SOL    HW111796   5.137   4.928   5.641  0.6906 -0.6777 -0.1469
 3704SOL    HW211797   5.097   4.948   5.496  1.3305  0.6135 -0.1572
 3705SOL     OW11798   0.630   6.131   1.510  0.0468 -0.0011 -0.3335
 3705SOL    HW111799   0.669   6.217   1.527 -1.2472  0.4489  0.5375
 3705SOL    HW211800   0.680   6.096   1.435  0.4612  1.5872 -0.8364
 3706SOL     OW11801   4.991   4.717   2.041 -0.3306  0.0375 -0.2043
 3706SOL    HW111802   4.903   4.683   2.033 -0.9334  1.5580 -0.4862
 3706SOL    HW211803   5.020   4.689   2.127 -1.0528 -0.5594 -0.1477
 3707SOL     OW11804   1.095   5.985   5.618 -0.1886 -0.1533  0.4732
 3707SOL    HW111805   1.163   6.049   5.639 -0.8923  0.7669  0.0273
 3707SOL    HW211806   1.063   5.955   5.702  0.1473  0.0897  0.6909
 3708SOL     OW11807   6.645   2.421   4.629  0.1737  0.5791  0.0671
 3708SOL    HW111808   6.670   2.383   4.544  0.3150  0.5477  0.1226
 3708SOL    HW211809   6.670   2.513   4.621 -0.3047  0.6945 -0.1220
 3709SOL     OW11810   0.679   4.005   1.966 -0.2630  0.3414 -0.1592
 3709SOL    HW111811   0.620   4.070   2.005  1.0720  1.9484 -0.7444
 3709SOL    HW211812   0.740   4.056   1.914  1.7911 -1.2472  0.5707
 3710SOL     OW11813   3.186   1.147   5.703 -0.0719 -0.1299 -0.6731
 3710SOL    HW111814   3.134   1.218   5.739  0.4724  0.3925 -0.8948
 3710SOL    HW211815   3.140   1.067   5.730  0.7616  0.1705  1.9636
 3711SOL     OW11816   1.653   4.776   3.229 -0.2748 -0.1342  0.2274
 3711SOL    HW111817   1.699   4.744   3.152 -0.7963 -0.2364 -0.0467
 3711SOL    HW211818   1.722   4.807   3.287  0.0426  1.9947 -1.1690
 3712SOL     OW11819   0.244   5.657   0.988 -0.4505  0.2033  0.2964
 3712SOL    HW111820   0.156   5.654   0.950 -0.2076 -2.4882 -0.2397
 3712SOL    HW211821   0.234   5.620   1.075 -0.1292  1.7144  1.0120
 3713SOL     OW11822   2.386   2.058   3.059 -0.2705  0.6044  0.0867
 3713SOL    HW111823   2.388   2.043   3.154 -1.0696  1.2959  0.2218
 3713SOL    HW211824   2.309   2.113   3.045  0.7689  1.9039 -0.7526
 3714SOL     OW11825   1.388   5.040   4.172  0.0479  0.2228  0.3524
 3714SOL    HW111826   1.385   5.023   4.078 -1.3587  2.5329 -0.1104
 3714SOL    HW211827   1.468   5.091   4.185 -0.9658  2.0172 -0.0824
 3715SOL     OW11828   4.625   1.922   4.177 -0.5417 -0.0262 -0.0993
 3715SOL    HW111829   4.663   1.876   4.251 -0.1445 -0.0404 -0.3074
 3715SOL    HW211830   4.700   1.942   4.120 -0.5067  1.9651  0.5711
 3716SOL     OW11831   0.879   5.155   0.729 -0.0727  0.2362  0.2547
 3716SOL    HW111832   0.973   5.157   0.708 -0.0539  0.9129  0.3547
 3716SOL    HW211833   0.855   5.247   0.738 -0.7777  0.0710  0.1228
 3717SOL     OW11834   2.812   5.130   3.185  0.5985 -0.1130  0.1702
 3717SOL    HW111835   2.747   5.122   3.115 -1.1295 -0.8312  1.7934
 3717SOL    HW211836   2.866   5.052   3.176  0.9429  0.2248 -0.8626
 3718SOL     OW11837   2.912   1.790   3.853  0.5475 -0.2490 -0.2467
 3718SOL    HW111838   2.852   1.737   3.802  0.6555 -0.9364  0.3250
 3718SOL    HW211839   2.896   1.880   3.823 -1.0757 -0.3526  0.1984
 3719SOL     OW11840   0.419   4.681   3.482  0.3279 -0.5343 -0.0604
 3719SOL    HW111841   0.361   4.754   3.504  1.8710  0.9084 -0.5950
 3719SOL    HW211842   0.455   4.653   3.566 -3.4265 -3.6237  0.7847
 3720SOL     OW11843   1.791   3.321   5.728  0.4482 -0.1450 -0.1026
 3720SOL    HW111844   1.753   3.391   5.675  0.7081 -0.5046 -0.7715
 3720SOL    HW211845   1.802   3.360   5.815 -0.1434  0.3957 -0.2630
 3721SOL     OW11846   5.970   4.789   4.674  0.3307 -0.2604 -0.5201
 3721SOL    HW111847   5.888   4.792   4.625 -0.0832  0.1352  0.1819
 3721SOL    HW211848   6.018   4.867   4.646  0.7915 -0.8693 -1.4671
 3722SOL     OW11849   4.497   3.732   1.428 -0.1916 -0.0886  0.1971
 3722SOL    HW111850   4.552   3.677   1.371 -0.8276 -0.7050  0.1533
 3722SOL    HW211851   4.408   3.708   1.404 -0.5100  1.5347 -0.3586
 3723SOL     OW11852   0.894   2.852   0.040  0.0532 -0.0779 -0.1542
 3723SOL    HW111853   0.957   2.886  -0.024 -0.6713 -0.1586 -0.9258
 3723SOL    HW211854   0.934   2.871   0.125  0.7575  0.5678 -0.6161
 3724SOL     OW11855   1.947   6.313   6.775 -0.3862  0.2206 -0.1208
 3724SOL    HW111856   2.013   6.271   6.829 -0.3739 -0.4969 -0.6782
 3724SOL    HW211857   1.955   6.407   6.794 -0.6302 -0.0433  1.3732
 3725SOL     OW11858   4.004   4.402   6.152 -0.1069 -0.3560  0.1678
 3725SOL    HW111859   4.095   4.433   6.158  0.1118 -0.9346 -0.0387
 3725SOL    HW211860   3.966   4.421   6.237  1.1337 -2.9302  1.4094
 3726SOL     OW11861   3.455   2.145   5.971 -0.2044  0.2737 -0.0424
 3726SOL    HW111862   3.481   2.112   5.886 -0.1575 -3.9810  1.4205
 3726SOL    HW211863   3.367   2.182   5.957 -0.5698 -1.1464 -1.7709
 3727SOL     OW11864   2.487   2.145   2.795  0.1723 -0.0880 -0.3998
 3727SOL    HW111865   2.481   2.130   2.889  3.0759 -0.9856 -0.2613
 3727SOL    HW211866   2.415   2.094   2.758  0.3675 -1.6393  1.2154
 3728SOL     OW11867   0.734   0.926   3.566 -0.8647 -0.3517  0.0067
 3728SOL    HW111868   0.707   0.964   3.482 -0.3592  0.9059  0.3848
 3728SOL    HW211869   0.819   0.887   3.548 -0.8704 -0.3076 -0.1194
 3729SOL     OW11870   5.786   0.980   3.657  0.0436  0.3030 -0.0917
 3729SOL    HW111871   5.838   1.060   3.664  0.2883  0.0905  0.6412
 3729SOL    HW211872   5.834   0.925   3.595  0.2494  0.4463 -0.0592
 3730SOL     OW11873   4.255   5.803   4.933 -0.1978 -0.5587  0.0737
 3730SOL    HW111874   4.324   5.792   4.999 -0.2366  0.6056  0.3303
 3730SOL    HW211875   4.184   5.848   4.980  0.7722  2.6655 -1.3296
 3731SOL     OW11876   4.266   1.737   6.592 -0.5352 -0.4789 -0.2893
 3731SOL    HW111877   4.176   1.759   6.614 -0.8423 -1.5718 -0.3965
 3731SOL    HW211878   4.318   1.810   6.625 -1.4712  0.2076 -0.3320
 3732SOL     OW11879   6.098   3.725   3.483 -0.6938 -0.1163 -0.3132
 3732SOL    HW111880   6.021   3.670   3.498 -0.7669  0.3514  1.1795
 3732SOL    HW211881   6.171   3.675   3.520 -0.4991  0.0624 -0.4551
 3733SOL     OW11882   2.175   1.661   2.275  0.5649  0.2473 -0.0875
 3733SOL    HW111883   2.215   1.698   2.196  2.2279 -1.2569 -0.0283
 3733SOL    HW211884   2.196   1.567   2.270  0.6590  0.1060  2.0902
 3734SOL     OW11885   3.563   4.350   4.762 -0.1320 -0.0207  0.1738
 3734SOL    HW111886   3.549   4.368   4.855 -1.3311  0.8633 -0.1702
 3734SOL    HW211887   3.535   4.429   4.717  1.6672  0.0653 -0.8845
 3735SOL     OW11888   1.037   2.199   1.916 -0.8911  0.1063  0.3093
 3735SOL    HW111889   0.943   2.200   1.937 -0.7841 -0.0347  0.8271
 3735SOL    HW211890   1.051   2.113   1.876 -1.1272  0.4321 -0.4717
 3736SOL     OW11891   1.218   1.230   5.688 -0.0236 -0.0052 -0.6450
 3736SOL    HW111892   1.304   1.244   5.728 -0.4969  1.4511 -0.0716
 3736SOL    HW211893   1.172   1.173   5.749  0.9440 -1.8747 -1.5834
 3737SOL     OW11894   6.554   0.436   3.600 -0.6328  0.4070 -0.3869
 3737SOL    HW111895   6.634   0.431   3.651 -0.7802  0.8205 -0.1100
 3737SOL    HW211896   6.563   0.516   3.548  0.3772 -0.9726 -2.4997
 3738SOL     OW11897   2.195   1.730   6.526  0.0035  0.5409 -0.2381
 3738SOL    HW111898   2.235   1.804   6.481 -0.5516  1.1411  0.2315
 3738SOL    HW211899   2.155   1.768   6.604 -0.3010 -0.2517  0.0061
 3739SOL     OW11900   1.391   0.657   6.114  0.1384 -0.4537 -0.3441
 3739SOL    HW111901   1.350   0.575   6.086 -0.0920 -0.2373 -0.6413
 3739SOL    HW211902   1.338   0.686   6.188  0.0233 -0.3990 -0.4495
 3740SOL     OW11903   4.698   6.223   5.620  0.5385  0.2768 -0.3085
 3740SOL    HW111904   4.749   6.294   5.581 -0.6674  1.3679  0.0348
 3740SOL    HW211905   4.617   6.221   5.569 -0.3440  0.5958  1.0273
 3741SOL     OW11906   4.605   3.004   1.805  0.1063  0.2383 -0.3687
 3741SOL    HW111907   4.532   3.066   1.804 -1.3026 -1.3399 -0.8458
 3741SOL    HW211908   4.626   2.992   1.897 -0.6771  0.2514 -0.1840
 3742SOL     OW11909   1.691   5.150   1.221  0.0072 -0.4360  0.0273
 3742SOL    HW111910   1.649   5.064   1.215 -1.1079  0.1605 -1.1948
 3742SOL    HW211911   1.710   5.173   1.130 -0.4636  0.9680  0.2677
 3743SOL     OW11912   4.943   3.850   3.697  0.2356  0.2639 -0.2141
 3743SOL    HW111913   4.950   3.888   3.785 -0.0212 -1.0967  0.4287
 3743SOL    HW211914   4.853   3.865   3.671  1.0307  3.3358 -1.5690
 3744SOL     OW11915   6.093   4.265   2.792  0.5714 -0.1265 -0.0848
 3744SOL    HW111916   6.081   4.181   2.748  0.1418 -0.7311  1.1509
 3744SOL    HW211917   6.187   4.283   2.783  0.3070  0.3509 -2.2370
 3745SOL     OW11918   4.250   0.870   0.950  0.1769  0.3846  0.4077
 3745SOL    HW111919   4.210   0.843   1.032  0.1119  1.0679  0.6052
 3745SOL    HW211920   4.179   0.910   0.900  0.2798  0.2376  0.1402
 3746SOL     OW11921   1.123   3.056   6.027 -0.1880  0.2629  0.4170
 3746SOL    HW111922   1.046   3.102   5.994 -0.9731  0.1834  2.0291
 3746SOL    HW211923   1.088   2.989   6.086  1.1064  0.3256  1.3081
 3747SOL     OW11924   4.393   6.686   2.480 -0.8411 -0.0902 -0.0315
 3747SOL    HW111925   4.371   6.619   2.415  2.7324 -1.5358  0.0331
 3747SOL    HW211926   4.363   6.650   2.563  0.6819 -1.5359 -0.0567
 3748SOL     OW11927   2.904   3.118   2.243 -0.5990  0.4019 -0.1462
 3748SOL    HW111928   2.859   3.125   2.159 -1.3531 -2.8750 -0.1154
 3748SOL    HW211929   2.850   3.169   2.303 -2.4547 -0.6804 -0.8252
 3749SOL     OW11930   2.247   1.519   5.772  0.4872 -0.1808  0.0499
 3749SOL    HW111931   2.275   1.489   5.685 -0.7382  1.0086 -0.7825
 3749SOL    HW211932   2.166   1.568   5.756  0.3074  0.1733  1.8531
 3750SOL     OW11933   1.361   4.897   1.760 -0.2662  0.3339  0.4364
 3750SOL    HW111934   1.395   4.986   1.765 -1.3237  0.7496  0.4454
 3750SOL    HW211935   1.267   4.906   1.773 -0.2817 -0.8783  1.3813
 3751SOL     OW11936   2.370   4.704   3.719  0.1780  0.0587 -0.0776
 3751SOL    HW111937   2.444   4.711   3.778  2.4925  2.4074 -2.9104
 3751SOL    HW211938   2.391   4.630   3.662 -0.7654 -0.6003  0.4052
 3752SOL     OW11939   0.644   6.158   4.960  0.5119  0.0478  0.9750
 3752SOL    HW111940   0.680   6.224   4.900 -1.2744  0.3161  0.1302
 3752SOL    HW211941   0.703   6.083   4.950 -0.4474 -0.4546 -2.2736
 3753SOL     OW11942   1.392   6.204   4.121 -0.4446  0.1707 -0.1998
 3753SOL    HW111943   1.311   6.228   4.166 -0.9534  0.7568 -1.3808
 3753SOL    HW211944   1.364   6.150   4.048  0.0067  1.8670 -1.6964
 3754SOL     OW11945   0.232   4.379   0.045 -0.1727 -0.4136  0.3269
 3754SOL    HW111946   0.212   4.368  -0.048  0.0379 -2.0466  0.4310
 3754SOL    HW211947   0.221   4.291   0.082  2.4533 -0.4325  1.2910
 3755SOL     OW11948   5.336   6.683   3.420 -0.5413  0.6204 -0.1011
 3755SOL    HW111949   5.417   6.726   3.446 -0.3402  0.1662  0.0354
 3755SOL    HW211950   5.287   6.672   3.501 -0.8007  1.0108 -0.2012
 3756SOL     OW11951   1.274   1.832   3.114  0.2745 -0.4168 -0.0152
 3756SOL    HW111952   1.307   1.792   3.033  0.6766  0.9082 -0.5258
 3756SOL    HW211953   1.339   1.807   3.180  0.0018 -1.4154 -0.1106
 3757SOL     OW11954   1.945   5.143   3.959 -0.0776  0.3370  0.5679
 3757SOL    HW111955   2.008   5.078   3.992 -0.0629  0.4901  0.8427
 3757SOL    HW211956   1.869   5.091   3.932 -1.0588  0.3639  3.0394
 3758SOL     OW11957   3.777   1.425   2.165  0.1404  0.5739 -0.5632
 3758SOL    HW111958   3.859   1.386   2.196  1.1082  2.0805 -1.1354
 3758SOL    HW211959   3.709   1.372   2.207  1.3820 -0.9435 -0.3606
 3759SOL     OW11960   6.648   4.007   1.921  0.0318  0.2496 -0.0140
 3759SOL    HW111961   6.635   4.092   1.963  1.2779 -0.2489  1.4645
 3759SOL    HW211962   6.682   3.951   1.990  1.7463 -0.7600 -1.5930
 3760SOL     OW11963   2.429   3.821   6.627  0.2907 -0.0661 -0.2656
 3760SOL    HW111964   2.450   3.729   6.609  1.2430 -0.3622  1.9178
 3760SOL    HW211965   2.509   3.869   6.605 -0.6957  0.5247 -2.8481
 3761SOL     OW11966   2.622   3.344   6.071 -0.0495  0.1960  0.0912
 3761SOL    HW111967   2.659   3.284   6.135  0.6331  1.7865  1.2600
 3761SOL    HW211968   2.533   3.361   6.102 -1.3038 -2.3016 -1.7861
 3762SOL     OW11969   2.394   6.400   6.841  0.1643 -0.0323  0.0376
 3762SOL    HW111970   2.310   6.393   6.796 -0.3187 -1.7997  1.1254
 3762SOL    HW211971   2.375   6.378   6.932  1.1149  3.3742  1.2343
 3763SOL     OW11972   1.716   5.958   0.926  0.2242 -0.0251  0.0065
 3763SOL    HW111973   1.647   6.023   0.942 -0.2886 -0.4004 -0.6285
 3763SOL    HW211974   1.684   5.907   0.851  1.4765  0.1814 -0.6936
 3764SOL     OW11975   4.408   1.051   5.691  0.4933 -0.2910  0.2780
 3764SOL    HW111976   4.322   1.046   5.734  0.8139  1.1731  1.1731
 3764SOL    HW211977   4.441   1.137   5.716  2.6941 -1.2423  0.8149
 3765SOL     OW11978   0.102   3.959   1.832  0.1119 -0.0606  0.0116
 3765SOL    HW111979   0.079   3.932   1.921  1.0075 -0.8703  0.0240
 3765SOL    HW211980   0.044   3.907   1.776 -0.3486  0.3382  0.1134
 3766SOL     OW11981   2.899   6.684   5.717  0.1184 -0.3909 -0.1272
 3766SOL    HW111982   2.947   6.608   5.683  0.0001 -0.2842 -0.5371
 3766SOL    HW211983   2.936   6.759   5.670  0.1244 -0.2128  0.1616
 3767SOL     OW11984   0.047   6.337   5.060  0.1707 -0.2890 -0.1834
 3767SOL    HW111985  -0.028   6.292   5.019 -1.1934 -0.5076  2.3330
 3767SOL    HW211986   0.100   6.266   5.096  0.0168 -0.0356  0.5535
 3768SOL     OW11987   5.205   5.022   4.390  0.1571  0.7732 -0.0581
 3768SOL    HW111988   5.255   5.083   4.444 -0.9561  1.1071  0.6143
 3768SOL    HW211989   5.122   5.067   4.373 -0.7976 -0.6578  0.6753
 3769SOL     OW11990   6.397   4.132   4.786 -0.1993  0.3167  0.2091
 3769SOL    HW111991   6.361   4.090   4.864 -0.0061 -0.0524  0.1004
 3769SOL    HW211992   6.320   4.166   4.739 -0.2996  0.7321  0.6680
 3770SOL     OW11993   2.311   6.754   3.111  0.8253  0.2656 -0.4813
 3770SOL    HW111994   2.313   6.819   3.041  1.0222  1.2258  0.3940
 3770SOL    HW211995   2.255   6.684   3.078  0.3341  1.0343 -1.2980
 3771SOL     OW11996   0.960   2.899   4.903  0.0439 -0.4069 -0.6270
 3771SOL    HW111997   1.039   2.865   4.859 -1.0088 -2.1570 -1.2910
 3771SOL    HW211998   0.936   2.976   4.851 -0.3605 -1.6134 -2.3492
 3772SOL     OW11999   2.992   3.618   2.856  0.3244 -0.2722  0.3440
 3772SOL    HW112000   3.011   3.667   2.776  0.4259  1.0392  1.1443
 3772SOL    HW212001   2.914   3.567   2.835 -1.1459  1.9652  0.1667
 3773SOL     OW12002   0.988   2.660   3.751  0.4946  0.3396 -0.0606
 3773SOL    HW112003   1.075   2.648   3.711 -0.2166 -0.1614 -1.5491
 3773SOL    HW212004   1.003   2.650   3.845  2.2584  1.5022 -0.1628
 3774SOL     OW12005   4.507   2.384   2.324 -0.1343  0.4081  0.4152
 3774SOL    HW112006   4.538   2.463   2.369  0.5902  0.6206 -0.4311
 3774SOL    HW212007   4.530   2.312   2.383  1.5099  0.6081  0.0514
 3775SOL     OW12008   5.706   1.088   6.181  0.6962 -0.1473  0.2100
 3775SOL    HW112009   5.793   1.128   6.180  0.6514 -0.0406 -1.1115
 3775SOL    HW212010   5.659   1.134   6.250  0.6267  2.1197 -1.2785
 3776SOL     OW12011   0.550   0.204   0.469 -0.4830  0.1171  0.5480
 3776SOL    HW112012   0.582   0.168   0.386 -0.1363 -1.5025  1.3547
 3776SOL    HW212013   0.504   0.285   0.444  1.6433  0.9348 -0.9620
 3777SOL     OW12014   2.830   3.117   6.615 -0.3023  0.4017 -0.4261
 3777SOL    HW112015   2.890   3.169   6.669 -1.9547  1.2232  0.6956
 3777SOL    HW212016   2.854   3.026   6.633  0.9569  0.7159 -0.4363
 3778SOL     OW12017   2.135   2.506   3.567 -0.0062  0.3296 -0.2673
 3778SOL    HW112018   2.146   2.563   3.643  2.0883  0.6220 -0.7506
 3778SOL    HW212019   2.073   2.553   3.511 -1.7293  0.0220  1.2909
 3779SOL     OW12020   4.657   5.068   0.152 -0.1287 -0.1600 -0.1415
 3779SOL    HW112021   4.671   5.118   0.232 -1.3395 -0.8148  0.5069
 3779SOL    HW212022   4.661   5.133   0.082  2.7198  0.1872  0.2191
 3780SOL     OW12023   3.992   4.252   1.332  0.3886 -0.0484  0.1804
 3780SOL    HW112024   3.983   4.168   1.376 -1.0944 -0.6687 -1.1859
 3780SOL    HW212025   4.042   4.233   1.253 -0.5751  0.1727 -0.5050
 3781SOL     OW12026   0.138   6.012   5.889 -0.5631  0.4095 -0.9838
 3781SOL    HW112027   0.231   6.009   5.864 -0.0672 -0.6418  0.7992
 3781SOL    HW212028   0.093   5.966   5.818  0.2996  0.6098 -1.6901
 3782SOL     OW12029   6.245   0.566   5.170 -0.5503 -0.5479 -0.1675
 3782SOL    HW112030   6.296   0.491   5.200 -1.3507 -0.6484  1.0306
 3782SOL    HW212031   6.154   0.544   5.191 -0.8717  0.4648 -0.4178
 3783SOL     OW12032   5.693   6.115   4.585  0.4638 -1.0153 -0.5066
 3783SOL    HW112033   5.736   6.030   4.598  0.7815 -1.0095 -1.4262
 3783SOL    HW212034   5.745   6.177   4.636  0.6110 -1.2698 -0.3451
 3784SOL     OW12035   1.278   0.393   0.649  0.3528  0.0508 -0.3353
 3784SOL    HW112036   1.208   0.346   0.694 -0.6070  2.2416  0.6037
 3784SOL    HW212037   1.298   0.467   0.707  2.1560  0.5211 -1.4816
 3785SOL     OW12038   6.378   3.824   6.274  0.5300 -0.0322  0.5428
 3785SOL    HW112039   6.446   3.862   6.219 -0.5295  0.0369 -0.7659
 3785SOL    HW212040   6.352   3.743   6.230 -0.2603 -0.0411  0.9857
 3786SOL     OW12041   4.693   5.623   3.136 -0.4913  0.5939 -0.0969
 3786SOL    HW112042   4.762   5.607   3.071 -0.2150  1.1356  0.0564
 3786SOL    HW212043   4.614   5.637   3.084 -0.5934 -0.4785 -0.2610
 3787SOL     OW12044   5.716   1.029   0.333  0.2119 -0.5540 -0.3112
 3787SOL    HW112045   5.673   1.075   0.405 -0.7476  0.4487 -1.4895
 3787SOL    HW212046   5.775   1.093   0.295 -0.3365 -0.6086 -1.2889
 3788SOL     OW12047   5.782   3.122   6.337  0.2719 -0.4792 -0.0917
 3788SOL    HW112048   5.745   3.046   6.292  2.0444 -1.6305  0.2861
 3788SOL    HW212049   5.787   3.095   6.429  1.1725 -0.0194  0.0042
 3789SOL     OW12050   2.629   0.290   6.071 -0.5188 -0.6272  0.2176
 3789SOL    HW112051   2.567   0.345   6.024 -0.0335 -0.0778  0.1993
 3789SOL    HW212052   2.696   0.269   6.005 -0.6032 -1.0876  0.2756
 3790SOL     OW12053   5.087   6.405   3.720 -0.4076 -0.3310  0.6601
 3790SOL    HW112054   5.030   6.332   3.698 -0.5467  0.5311 -2.4533
 3790SOL    HW212055   5.034   6.483   3.701  1.2952  0.4917 -1.1563
 3791SOL     OW12056   2.870   5.112   2.839  0.8035 -0.4435 -0.2295
 3791SOL    HW112057   2.878   5.177   2.770 -1.5087  0.2974  0.1115
 3791SOL    HW212058   2.812   5.045   2.803 -1.0054  0.2901  1.1094
 3792SOL     OW12059   5.515   4.786   4.758 -0.4855  0.1274  0.4427
 3792SOL    HW112060   5.581   4.827   4.702 -0.1887 -1.1765 -0.2064
 3792SOL    HW212061   5.452   4.855   4.775  0.0986  0.9122 -0.4463
 3793SOL     OW12062   0.789   3.783   3.903  0.3615  0.2157 -0.5893
 3793SOL    HW112063   0.859   3.839   3.871  2.0290 -0.5870  1.4011
 3793SOL    HW212064   0.755   3.828   3.980 -0.4487 -0.0177 -0.8005
 3794SOL     OW12065   2.594   4.325   2.795 -0.0896 -0.0958  0.0937
 3794SOL    HW112066   2.542   4.314   2.874  1.6774  0.8052  1.4717
 3794SOL    HW212067   2.541   4.288   2.725 -0.4152 -3.9589  2.1305
 3795SOL     OW12068   1.825   5.608   1.277 -0.5239  0.1780 -0.6405
 3795SOL    HW112069   1.903   5.587   1.226  0.4198 -1.4185  1.3112
 3795SOL    HW212070   1.777   5.671   1.223  0.9591 -0.5152 -2.9179
 3796SOL     OW12071   3.782   4.442   6.722  0.3680 -0.0700  0.1392
 3796SOL    HW112072   3.851   4.473   6.781 -1.6033  3.8648  0.6744
 3796SOL    HW212073   3.824   4.439   6.636  1.7554  0.0638  0.7810
 3797SOL     OW12074   1.267   5.438   4.621 -0.0331 -0.1344  0.4095
 3797SOL    HW112075   1.301   5.523   4.592  0.8947 -0.5274  0.3079
 3797SOL    HW212076   1.309   5.375   4.563 -0.7394 -0.6656  0.4709
 3798SOL     OW12077   1.034   3.991   0.694  0.5793  0.5703 -0.2106
 3798SOL    HW112078   1.056   3.951   0.610 -1.2119  0.4807 -0.6789
 3798SOL    HW212079   1.061   4.082   0.686  0.5770  0.5205 -0.8135
 3799SOL     OW12080   6.339   3.299   0.970  0.6687 -0.2803 -0.3311
 3799SOL    HW112081   6.334   3.215   1.016 -1.0663 -0.2930 -0.4873
 3799SOL    HW212082   6.248   3.325   0.958  1.1731  1.5167 -0.5030
 3800SOL     OW12083   3.753   4.883   4.489 -0.6350  0.5380 -0.1841
 3800SOL    HW112084   3.774   4.970   4.521  0.5728 -0.1038  0.8815
 3800SOL    HW212085   3.749   4.829   4.568  0.5911 -0.7381 -0.9457
 3801SOL     OW12086   3.201   3.167   4.018 -0.1041 -0.2083  0.0177
 3801SOL    HW112087   3.176   3.219   4.094 -0.5538 -1.2524  0.6115
 3801SOL    HW212088   3.137   3.190   3.951 -0.1056  0.2301  0.1685
 3802SOL     OW12089   1.749   1.403   2.572 -0.1114 -0.2167 -0.2930
 3802SOL    HW112090   1.770   1.386   2.664  1.4208 -1.7732 -0.8769
 3802SOL    HW212091   1.705   1.488   2.573 -2.7639 -1.4570  2.1746
 3803SOL     OW12092   3.901   5.491   0.117 -0.0507 -0.1243  0.4161
 3803SOL    HW112093   3.811   5.510   0.090  0.4393  1.7982  0.0328
 3803SOL    HW212094   3.931   5.571   0.160  1.6561 -0.5435  0.0845
 3804SOL     OW12095   3.285   4.817   1.941  0.0547  0.3288 -0.3365
 3804SOL    HW112096   3.211   4.796   1.884 -0.6601 -0.6676  0.8842
 3804SOL    HW212097   3.362   4.810   1.885 -0.6883  0.3690 -1.3941
 3805SOL     OW12098   0.136   0.465   2.909  0.2508 -0.2659  0.3179
 3805SOL    HW112099   0.069   0.396   2.901  0.4748 -0.3742 -0.7107
 3805SOL    HW212100   0.217   0.417   2.926  0.4213 -0.2723 -0.4789
 3806SOL     OW12101   5.373   3.830   0.435  0.7714  0.1553  0.0905
 3806SOL    HW112102   5.284   3.806   0.460  0.2029 -0.6025 -2.3810
 3806SOL    HW212103   5.416   3.747   0.417  1.4846  0.5834 -0.2304
 3807SOL     OW12104   2.916   1.826   2.646  0.3840  0.0113  0.0729
 3807SOL    HW112105   2.927   1.856   2.556 -0.7298  0.8379  0.1957
 3807SOL    HW212106   2.825   1.845   2.667  0.4335 -0.8254  1.1450
 3808SOL     OW12107   4.310   5.609   6.887 -0.5203  0.1560 -0.2282
 3808SOL    HW112108   4.315   5.699   6.854 -3.2442  0.0500 -1.2110
 3808SOL    HW212109   4.368   5.559   6.829  0.6499  1.1794  0.0300
 3809SOL     OW12110   5.375   1.058   2.860 -0.4098 -0.4735  0.6417
 3809SOL    HW112111   5.428   1.087   2.785  0.9272 -0.5885  1.5053
 3809SOL    HW212112   5.437   1.010   2.915 -1.8356 -2.1482  0.8517
 3810SOL     OW12113   0.570   1.720   4.050 -0.3403  0.5283 -0.7549
 3810SOL    HW112114   0.565   1.756   3.961 -0.3975 -0.3037 -1.0980
 3810SOL    HW212115   0.512   1.775   4.102 -0.9983  0.4756 -1.4285
 3811SOL     OW12116   2.265   5.087   2.122 -0.2205 -0.2298 -0.0025
 3811SOL    HW112117   2.229   5.094   2.211 -0.2882  0.6736 -0.0965
 3811SOL    HW212118   2.357   5.110   2.132 -0.8418  3.0063 -0.6113
 3812SOL     OW12119   6.849   4.274   1.805 -0.7890 -0.4101 -0.4016
 3812SOL    HW112120   6.882   4.204   1.861  0.6664 -0.1710 -0.9281
 3812SOL    HW212121   6.907   4.348   1.821 -1.5653  0.2973 -0.7560
 3813SOL     OW12122   0.730   0.981   6.712 -0.9579  0.2412  0.3912
 3813SOL    HW112123   0.723   1.024   6.797  0.6985 -1.9653  1.7708
 3813SOL    HW212124   0.821   0.951   6.708 -0.8812  0.6204 -2.3696
 3814SOL     OW12125   0.663   2.079   4.093 -0.4424 -0.4044 -0.0629
 3814SOL    HW112126   0.718   2.007   4.063 -0.0497  0.2018 -0.8590
 3814SOL    HW212127   0.582   2.038   4.121  0.4009 -1.3209  1.1337
 3815SOL     OW12128   0.075   3.072   4.302  0.3382 -0.2216  0.3417
 3815SOL    HW112129   0.015   2.998   4.313 -0.7050  0.3105 -1.5128
 3815SOL    HW212130   0.022   3.149   4.323  0.8427  0.1510  0.2460
 3816SOL     OW12131   4.797   5.420   3.997  0.0719  0.0219 -0.4176
 3816SOL    HW112132   4.890   5.399   4.002  0.6495  2.5659  1.3435
 3816SOL    HW212133   4.789   5.476   3.919 -0.0722 -0.4970 -0.7811
 3817SOL     OW12134   4.332   6.570   2.724 -0.1846 -0.8124  0.5874
 3817SOL    HW112135   4.284   6.575   2.806 -1.6261 -1.1802 -0.1940
 3817SOL    HW212136   4.421   6.549   2.749 -0.9140 -2.4508  1.9978
 3818SOL     OW12137   3.674   0.732   1.134  0.2854  0.0759  0.3739
 3818SOL    HW112138   3.676   0.737   1.229  0.2011 -0.4903  0.4088
 3818SOL    HW212139   3.585   0.702   1.113 -0.3619  2.0334  0.0103
 3819SOL     OW12140   2.383   4.395   6.130  0.2489  0.4352 -0.4271
 3819SOL    HW112141   2.349   4.360   6.212  1.6226 -1.5609 -0.6088
 3819SOL    HW212142   2.413   4.483   6.151  2.2451 -0.6527  1.7541
 3820SOL     OW12143   4.649   6.334   5.274  0.3871 -0.5761 -0.3613
 3820SOL    HW112144   4.587   6.267   5.301 -0.5219  0.0682 -0.8295
 3820SOL    HW212145   4.728   6.316   5.326 -1.1333  0.3607  2.4583
 3821SOL     OW12146   5.782   1.491   0.278  0.4194  0.0112  0.5141
 3821SOL    HW112147   5.795   1.585   0.286 -1.3352  0.3597 -0.0847
 3821SOL    HW212148   5.730   1.468   0.355 -0.6764 -0.0859 -0.2152
 3822SOL     OW12149   0.354   3.917   3.214  0.1546 -0.1954 -0.5539
 3822SOL    HW112150   0.398   3.904   3.298  1.1481  0.0286 -1.0294
 3822SOL    HW212151   0.421   3.898   3.149 -0.7985 -1.0636 -1.3185
 3823SOL     OW12152   5.424   3.522   6.263  0.0197  0.6632  0.1239
 3823SOL    HW112153   5.488   3.452   6.278  0.1726  0.9357  0.7937
 3823SOL    HW212154   5.346   3.494   6.310  0.6700  1.7656  2.0148
 3824SOL     OW12155   0.489   4.168   0.242  1.0340  0.6715 -0.0193
 3824SOL    HW112156   0.523   4.146   0.329 -2.7472  0.1033  1.4697
 3824SOL    HW212157   0.494   4.086   0.193  1.1825  0.4375  0.3785
 3825SOL     OW12158   2.172   0.011   2.578 -0.1028 -0.3288  0.3009
 3825SOL    HW112159   2.152  -0.059   2.641 -0.2758 -0.6771 -0.1299
 3825SOL    HW212160   2.092   0.063   2.574  0.3868  0.5360  1.4207
 3826SOL     OW12161   0.530   5.597   2.289  0.3140  0.2134  0.0926
 3826SOL    HW112162   0.533   5.672   2.348 -1.9102 -0.4781  1.1860
 3826SOL    HW212163   0.591   5.534   2.327  0.9630  0.8269  0.0841
 3827SOL     OW12164   3.757   3.516   5.536  0.4727  0.2813  0.3251
 3827SOL    HW112165   3.777   3.424   5.552  0.7232 -0.2540 -2.5255
 3827SOL    HW212166   3.836   3.551   5.494 -0.6926  0.9199 -1.4602
 3828SOL     OW12167   3.993   2.368   6.797  0.0858 -0.0442 -0.0871
 3828SOL    HW112168   3.963   2.459   6.798 -0.4238 -0.1633 -1.5711
 3828SOL    HW212169   3.936   2.323   6.859 -0.4988  0.4102 -0.2900
 3829SOL     OW12170   2.805   5.323   2.622 -0.3928  0.1754  0.0882
 3829SOL    HW112171   2.774   5.407   2.589 -0.3789 -0.0018 -0.3949
 3829SOL    HW212172   2.726   5.271   2.638 -0.3776  0.0106 -0.3591
 3830SOL     OW12173   2.558   0.453   0.585  0.3799 -0.1552 -0.6449
 3830SOL    HW112174   2.615   0.383   0.555 -0.3146 -1.1852  0.3737
 3830SOL    HW212175   2.477   0.409   0.610 -0.4328  1.1335 -0.9311
 3831SOL     OW12176   6.871   1.266   6.184  0.2073  0.0914  0.1643
 3831SOL    HW112177   6.951   1.223   6.154  0.2628  1.2286 -1.5160
 3831SOL    HW212178   6.822   1.284   6.103 -0.7779  1.2533  0.9807
 3832SOL     OW12179   6.149   4.217   3.668 -0.9117  0.1822 -0.0151
 3832SOL    HW112180   6.172   4.124   3.661 -1.8792 -0.0563 -0.1234
 3832SOL    HW212181   6.064   4.224   3.626 -1.1948  0.9844  0.6574
 3833SOL     OW12182   6.455   5.009   1.299 -0.6874 -0.1180  0.0435
 3833SOL    HW112183   6.503   5.091   1.306 -1.4789  0.4184 -0.5784
 3833SOL    HW212184   6.471   4.980   1.209  0.6323 -1.3283  0.6297
 3834SOL     OW12185   0.938   0.763   3.581  0.1338 -0.2242 -0.4222
 3834SOL    HW112186   0.947   0.669   3.565 -0.4759 -0.1676 -1.1742
 3834SOL    HW212187   1.026   0.792   3.603 -0.0830 -1.3813  2.3037
 3835SOL     OW12188   4.137   0.618   1.456 -0.2737  0.5311  0.2417
 3835SOL    HW112189   4.079   0.682   1.497 -1.2093 -1.0468  1.5093
 3835SOL    HW212190   4.086   0.580   1.385 -0.4880 -0.1793  0.7534
 3836SOL     OW12191   2.234   6.091   2.333  0.6590 -0.5618 -0.1836
 3836SOL    HW112192   2.185   6.052   2.260  0.3248 -0.4057 -0.0443
 3836SOL    HW212193   2.173   6.154   2.371  1.7968  1.5354 -1.5984
 3837SOL     OW12194   3.798   2.085   3.234  0.2439 -0.4407  0.6512
 3837SOL    HW112195   3.751   2.165   3.259  0.0459 -0.5573  0.6535
 3837SOL    HW212196   3.729   2.025   3.205  0.5232 -0.0254 -0.9756
 3838SOL     OW12197   6.286   4.528   5.822  0.0633 -0.1117 -0.1442
 3838SOL    HW112198   6.307   4.600   5.881  1.1125 -0.0183 -0.6044
 3838SOL    HW212199   6.346   4.540   5.748 -0.6501 -0.7049 -0.8328
 3839SOL     OW12200   0.608   5.140   2.669  0.4587  0.1848  0.0996
 3839SOL    HW112201   0.603   5.235   2.657 -1.0012  0.1781  0.5419
 3839SOL    HW212202   0.620   5.128   2.763 -0.8873 -0.1032  0.2430
 3840SOL     OW12203   4.542   5.903   5.921 -0.1929  0.3018  0.3735
 3840SOL    HW112204   4.573   5.812   5.926 -1.3460 -0.3701 -2.5095
 3840SOL    HW212205   4.453   5.899   5.958  0.1896  0.5338  1.3372
 3841SOL     OW12206   5.342   5.686   6.416  0.2319 -0.1933 -0.3765
 3841SOL    HW112207   5.334   5.701   6.511 -1.4625 -0.7089 -0.4057
 3841SOL    HW212208   5.365   5.594   6.408  1.5181  0.1233 -0.4506
 3842SOL     OW12209   2.548   4.956   3.047  0.0162 -0.0341  0.1472
 3842SOL    HW112210   2.464   5.002   3.051  0.5848  0.9623  1.3146
 3842SOL    HW212211   2.537   4.881   3.106  0.3649  0.8544  1.3726
 3843SOL     OW12212   6.149   0.510   1.125  0.1996 -0.3589  0.0169
 3843SOL    HW112213   6.241   0.493   1.106  1.1283  2.8184  1.1155
 3843SOL    HW212214   6.145   0.603   1.147 -3.2414 -0.4452  0.3657
 3844SOL     OW12215   3.131   5.561   4.995 -0.2007  0.2225 -0.1380
 3844SOL    HW112216   3.086   5.630   5.045  2.0193  0.6748  1.3554
 3844SOL    HW212217   3.121   5.483   5.049 -0.0658  0.0918 -0.3030
 3845SOL     OW12218   1.921   3.744   5.905 -0.2163  0.1335 -0.3321
 3845SOL    HW112219   1.975   3.719   5.830 -2.1396 -1.8844 -1.1746
 3845SOL    HW212220   1.882   3.827   5.880  1.7344  1.1965 -0.0611
 3846SOL     OW12221   2.190   0.892   2.066  0.1296 -0.4591 -0.9232
 3846SOL    HW112222   2.123   0.956   2.090  0.4690  0.0467 -1.3036
 3846SOL    HW212223   2.141   0.813   2.043 -0.4037  0.1679 -2.0508
 3847SOL     OW12224   3.755   4.919   5.062 -0.8207 -0.3350 -0.1341
 3847SOL    HW112225   3.825   4.896   5.001 -0.1864 -0.4442  0.6179
 3847SOL    HW212226   3.697   4.843   5.061 -1.1287 -0.0901 -1.0395
 3848SOL     OW12227   6.498   6.395   0.670  0.0088 -0.4567  0.0325
 3848SOL    HW112228   6.487   6.360   0.581  0.5891  1.3883 -0.8221
 3848SOL    HW212229   6.593   6.402   0.682 -0.0752  0.7337  0.1658
 3849SOL     OW12230   2.393   1.932   0.309 -0.7679 -0.0063  0.7607
 3849SOL    HW112231   2.439   1.926   0.225 -1.7792  1.9457 -0.0036
 3849SOL    HW212232   2.301   1.935   0.285 -1.0237  1.8962  1.7928
 3850SOL     OW12233   6.742   0.837   2.813 -0.2506 -0.4837  0.1305
 3850SOL    HW112234   6.754   0.921   2.858 -0.0376 -0.8929  0.8596
 3850SOL    HW212235   6.831   0.802   2.805 -0.2082 -0.1080 -1.2430
 3851SOL     OW12236   3.885   4.858   2.282 -0.1528  0.5280  0.0286
 3851SOL    HW112237   3.850   4.789   2.339  0.1211  0.3509 -0.0140
 3851SOL    HW212238   3.890   4.935   2.338 -2.3976  1.0877 -0.4481
 3852SOL     OW12239   3.332   0.941   4.172 -0.3060  0.1514 -0.2841
 3852SOL    HW112240   3.383   1.022   4.167  0.6413 -0.4720 -1.2983
 3852SOL    HW212241   3.370   0.885   4.104 -0.2602 -1.5246  1.0401
 3853SOL     OW12242   5.267   1.532   2.353  0.2282 -0.8887  0.0232
 3853SOL    HW112243   5.282   1.626   2.348 -1.2999 -0.6676 -0.9857
 3853SOL    HW212244   5.303   1.497   2.272 -1.9006 -0.7248 -1.0591
 3854SOL     OW12245   1.079   5.944   1.575 -0.0412 -0.1617  0.0520
 3854SOL    HW112246   1.010   5.884   1.548  0.0638 -0.9335  1.4237
 3854SOL    HW212247   1.034   6.020   1.611 -0.1649  0.1890 -0.8108
 3855SOL     OW12248   1.855   3.191   1.881  0.1253  0.0967 -0.3693
 3855SOL    HW112249   1.783   3.129   1.891  0.6859 -0.6776 -0.9997
 3855SOL    HW212250   1.864   3.203   1.786  0.1590  0.9893 -0.2627
 3856SOL     OW12251   2.838   4.558   6.266  0.1973 -0.5286 -0.0113
 3856SOL    HW112252   2.863   4.635   6.216 -0.9711  1.6175  2.4840
 3856SOL    HW212253   2.903   4.492   6.242  2.1807  1.6707 -1.1392
 3857SOL     OW12254   5.986   6.598   4.666 -0.0946 -0.3426  0.1732
 3857SOL    HW112255   6.013   6.539   4.597  1.6502  0.4828  0.0984
 3857SOL    HW212256   6.043   6.577   4.740 -1.7912 -1.0825  1.3617
 3858SOL     OW12257   2.153   1.511   1.195  0.3338 -0.3353  0.1085
 3858SOL    HW112258   2.219   1.541   1.256  0.9394  0.5310 -0.9306
 3858SOL    HW212259   2.076   1.494   1.249  0.1409  2.5196  0.8855
 3859SOL     OW12260   5.909   0.063   5.417 -0.4331 -0.0032 -0.1843
 3859SOL    HW112261   5.948   0.064   5.330 -1.3455  0.4230 -0.6106
 3859SOL    HW212262   5.855   0.142   5.420 -1.3659 -0.6383  0.3147
 3860SOL     OW12263   1.725   0.864   1.733  0.2006  0.1212  0.7787
 3860SOL    HW112264   1.698   0.933   1.672 -1.2505 -0.9060  0.2160
 3860SOL    HW212265   1.644   0.833   1.772  1.0685  0.6082  3.1534
 3861SOL     OW12266   6.392   4.973   1.557  0.8177 -0.0693 -0.0317
 3861SOL    HW112267   6.405   4.879   1.570  0.3308 -0.1110  0.1644
 3861SOL    HW212268   6.412   4.987   1.464 -0.1102 -0.5427 -0.3169
 3862SOL     OW12269   0.836   2.610   1.319  0.0897  0.1205  0.4018
 3862SOL    HW112270   0.859   2.524   1.355  0.8124 -0.0508 -0.4594
 3862SOL    HW212271   0.911   2.635   1.266 -0.6896  0.6760 -0.4609
 3863SOL     OW12272   3.504   5.810   3.973 -0.0756  0.4841  0.1796
 3863SOL    HW112273   3.422   5.792   3.927  0.6610  0.6871 -1.2716
 3863SOL    HW212274   3.488   5.779   4.062 -1.8534  0.8929  0.0427
 3864SOL     OW12275   4.104   6.673   4.456  0.5742  0.0528 -0.7291
 3864SOL    HW112276   4.079   6.666   4.548  2.0767  0.6563 -0.2387
 3864SOL    HW212277   4.178   6.734   4.456  1.5215 -1.0324 -2.1494
 3865SOL     OW12278   6.167   4.849   5.625 -0.4498  0.1544 -0.2084
 3865SOL    HW112279   6.132   4.923   5.675 -0.8336  1.0149 -1.6641
 3865SOL    HW212280   6.174   4.778   5.688  0.6976  1.6374  1.4584
 3866SOL     OW12281   4.993   5.464   3.350  0.0184 -0.1385  0.2305
 3866SOL    HW112282   4.905   5.470   3.311  0.0215 -1.2555  0.0152
 3866SOL    HW212283   5.027   5.553   3.346 -0.8802  0.2001 -0.2282
 3867SOL     OW12284   4.034   4.543   4.810  0.0122  0.0634 -0.9232
 3867SOL    HW112285   3.985   4.534   4.727 -0.0642  1.4090 -1.0375
 3867SOL    HW212286   4.100   4.474   4.805 -0.7463 -0.6613 -1.5595
 3868SOL     OW12287   5.851   3.156   6.012 -0.5011 -0.2685  0.3435
 3868SOL    HW112288   5.783   3.140   6.077 -1.1342 -0.3528 -0.3322
 3868SOL    HW212289   5.888   3.070   5.994 -2.8262 -0.8916 -2.1079
 3869SOL     OW12290   6.487   0.031   5.774 -0.3109 -0.1235 -0.0718
 3869SOL    HW112291   6.546   0.096   5.736  0.8214 -0.3857  1.1614
 3869SOL    HW212292   6.543  -0.022   5.831 -1.8984  0.2185  1.9120
 3870SOL     OW12293   3.877   5.821   1.356  0.0837  0.1983  0.2535
 3870SOL    HW112294   3.798   5.769   1.373 -0.1476  0.0412 -1.1603
 3870SOL    HW212295   3.942   5.786   1.416 -0.7666 -0.0550  1.0478
 3871SOL     OW12296   1.997   1.854   1.499  0.3797  0.5273 -0.3340
 3871SOL    HW112297   2.006   1.947   1.478  1.9132 -0.0168 -2.3941
 3871SOL    HW212298   2.084   1.827   1.528 -0.6704  0.2425  2.9409
 3872SOL     OW12299   4.346   5.481   3.847  0.2963  0.0088  0.0947
 3872SOL    HW112300   4.362   5.444   3.760 -0.6064 -1.1571  0.4009
 3872SOL    HW212301   4.258   5.451   3.870 -0.4320  2.1953  0.4729
 3873SOL     OW12302   4.599   0.794   6.607  0.5684  0.0003  0.5872
 3873SOL    HW112303   4.638   0.724   6.555  1.1803  0.9114 -0.2142
 3873SOL    HW212304   4.674   0.836   6.650  0.1849  0.0405  1.2343
 3874SOL     OW12305   5.429   6.507   6.139  0.0269 -0.1053 -0.4692
 3874SOL    HW112306   5.487   6.437   6.112  0.0649 -0.6172  0.8441
 3874SOL    HW212307   5.341   6.472   6.127  0.0148  0.1603 -1.1672
 3875SOL     OW12308   3.651   5.381   0.440 -0.4192  0.1024 -0.1504
 3875SOL    HW112309   3.586   5.364   0.372 -0.6455 -3.3204  0.7495
 3875SOL    HW212310   3.600   5.392   0.520 -0.0295 -1.2897  0.3289
 3876SOL     OW12311   3.999   1.088   6.609  0.1857  0.2575  0.2422
 3876SOL    HW112312   4.070   1.144   6.579 -0.8105  1.4314 -0.0236
 3876SOL    HW212313   3.956   1.139   6.678  1.4453 -1.7217  2.6197
 3877SOL     OW12314   0.260   5.192   1.978  0.2290  0.2838 -0.3331
 3877SOL    HW112315   0.275   5.187   1.884  1.5304 -0.9464 -0.0936
 3877SOL    HW212316   0.309   5.119   2.014 -0.9367  0.2264  1.2382
 3878SOL     OW12317   0.712   4.970   6.288  0.1280  0.2832 -0.2736
 3878SOL    HW112318   0.621   4.979   6.318  0.6240 -0.4566  1.5543
 3878SOL    HW212319   0.704   4.953   6.194 -1.6110  0.4406 -0.1916
 3879SOL     OW12320   3.683   2.469   3.146  0.1451  0.3455  0.6416
 3879SOL    HW112321   3.753   2.504   3.202  0.6718 -0.2470  0.3659
 3879SOL    HW212322   3.671   2.537   3.080  1.3716 -0.0762 -0.0609
 3880SOL     OW12323   1.922   6.187   1.048  0.1868  0.1737 -0.3768
 3880SOL    HW112324   1.840   6.219   1.009  0.3738 -1.2670 -2.0688
 3880SOL    HW212325   1.982   6.261   1.042 -0.8753  1.1743  0.6558
 3881SOL     OW12326   4.278   3.201   2.795  0.1683 -0.0418  0.5064
 3881SOL    HW112327   4.260   3.213   2.889  0.2657 -0.2545  0.5535
 3881SOL    HW212328   4.300   3.289   2.764  0.3525 -0.0066  0.7315
 3882SOL     OW12329   1.888   3.403   4.254 -0.1899  0.0174  0.1013
 3882SOL    HW112330   1.852   3.488   4.280 -1.4668 -0.8192  1.1698
 3882SOL    HW212331   1.981   3.420   4.242 -0.4790  1.6625 -0.1204
 3883SOL     OW12332   6.209   5.140   1.326 -0.0384  0.3754  0.0995
 3883SOL    HW112333   6.278   5.074   1.328  0.6266  1.0618  0.1162
 3883SOL    HW212334   6.160   5.121   1.246 -0.0337 -0.3180  0.2561
 3884SOL     OW12335   6.279   3.000   1.749  0.1830 -0.1676 -0.2315
 3884SOL    HW112336   6.224   3.013   1.826 -0.1872  0.2166 -0.5559
 3884SOL    HW212337   6.368   3.021   1.779  0.1539 -0.7402  0.2799
 3885SOL     OW12338   3.381   0.428   2.978 -0.3303 -0.1861 -0.5648
 3885SOL    HW112339   3.398   0.362   3.045 -0.0161  1.3208  0.9096
 3885SOL    HW212340   3.437   0.402   2.905  0.2107 -1.2415  0.1934
 3886SOL     OW12341   4.733   0.749   2.014  0.3528 -0.2984 -0.1070
 3886SOL    HW112342   4.762   0.839   2.021  0.0883 -0.2285  0.1059
 3886SOL    HW212343   4.670   0.738   2.085 -1.4003  0.0611 -1.4966
 3887SOL     OW12344   6.631   3.228   1.012 -0.0031 -0.4023  0.3766
 3887SOL    HW112345   6.550   3.178   1.017 -0.7582  0.8272  0.7284
 3887SOL    HW212346   6.655   3.226   0.919 -0.7671 -0.2612  0.1737
 3888SOL     OW12347   1.192   4.990   3.633  0.4120  0.3418  0.1328
 3888SOL    HW112348   1.271   5.043   3.627  0.5139  0.1104 -0.7101
 3888SOL    HW212349   1.122   5.047   3.600  0.2359  0.5302  0.8321
 3889SOL     OW12350   1.722   4.728   1.353 -0.4015 -0.3170 -0.5468
 3889SOL    HW112351   1.667   4.706   1.278  0.0677  0.6767 -1.2013
 3889SOL    HW212352   1.665   4.780   1.410  0.3213  2.4861 -2.1739
 3890SOL     OW12353   1.463   1.302   2.169 -0.0414  0.1816 -0.0902
 3890SOL    HW112354   1.505   1.286   2.254  1.7038  2.2981 -0.4279
 3890SOL    HW212355   1.493   1.390   2.145  1.2747 -1.0802 -3.8547
 3891SOL     OW12356   2.472   0.859   1.184 -0.3536 -0.1010 -0.3674
 3891SOL    HW112357   2.463   0.803   1.107 -0.4721  0.0884 -0.4924
 3891SOL    HW212358   2.475   0.798   1.258 -0.1041 -0.2906 -0.5307
 3892SOL     OW12359   3.245   3.976   2.895  0.1528 -0.4014  0.0323
 3892SOL    HW112360   3.306   3.918   2.850  0.7232  0.9160 -0.9507
 3892SOL    HW212361   3.230   3.934   2.980  3.0440 -0.3799  0.6469
 3893SOL     OW12362   6.614   0.540   2.195 -0.1175  0.0583  0.6821
 3893SOL    HW112363   6.601   0.501   2.108 -0.7293  0.9719  0.3531
 3893SOL    HW212364   6.564   0.483   2.254 -0.0183 -0.3396  0.3859
 3894SOL     OW12365   3.380   3.972   6.015 -0.1688  0.5308 -0.0894
 3894SOL    HW112366   3.379   4.066   5.999  0.3055  0.6030  0.2541
 3894SOL    HW212367   3.422   3.935   5.937  0.3689  0.6883  0.1152
 3895SOL     OW12368   5.357   1.723   0.738  0.2406 -0.1447 -0.3750
 3895SOL    HW112369   5.273   1.709   0.695  0.4459 -0.7877 -0.5751
 3895SOL    HW212370   5.385   1.636   0.766  0.3879  0.1875  0.5486
 3896SOL     OW12371   4.875   1.190   2.675  0.2239  0.2350  0.4617
 3896SOL    HW112372   4.838   1.279   2.678 -1.4417 -0.4421  1.4453
 3896SOL    HW212373   4.800   1.134   2.659  1.2120 -1.0471  0.1967
 3897SOL     OW12374   3.190   1.773   3.821  0.1766  0.1768 -0.5213
 3897SOL    HW112375   3.096   1.762   3.833  0.0479  1.2573 -0.4930
 3897SOL    HW212376   3.199   1.855   3.772  1.1476  0.6537  0.4218
 3898SOL     OW12377   4.064   1.991   2.804 -0.6993 -0.3519 -0.0569
 3898SOL    HW112378   4.038   2.047   2.877  2.1162 -0.1260  0.9096
 3898SOL    HW212379   4.059   2.047   2.727 -1.4669  0.0936  0.3018
 3899SOL     OW12380   6.846   6.721   4.237  0.3626  0.3553 -0.3578
 3899SOL    HW112381   6.797   6.640   4.226  1.5893 -0.3328 -1.0658
 3899SOL    HW212382   6.821   6.774   4.161 -0.2862  0.5517 -0.0049
 3900SOL     OW12383   5.216   1.843   4.995  0.2312 -0.8469 -0.1383
 3900SOL    HW112384   5.149   1.790   5.039  0.8935 -0.2055  1.7757
 3900SOL    HW212385   5.299   1.810   5.031  0.7561  0.2288 -0.3251
 3901SOL     OW12386   0.181   5.890   2.998  0.4490 -0.2326 -0.0730
 3901SOL    HW112387   0.088   5.889   2.972  0.1846 -0.5008  0.8488
 3901SOL    HW212388   0.216   5.970   2.959 -0.0986 -0.2821 -0.6826
 3902SOL     OW12389   6.169   0.096   2.181 -0.1114 -0.2397  0.0683
 3902SOL    HW112390   6.148   0.138   2.265  0.8168  0.9696 -0.2791
 3902SOL    HW212391   6.121   0.147   2.116  1.2957  0.5417 -0.3961
 3903SOL     OW12392   4.974   6.884   2.118 -0.2628 -0.5991  0.3115
 3903SOL    HW112393   5.031   6.829   2.172  0.0580 -1.9321 -1.2863
 3903SOL    HW212394   4.942   6.951   2.178  1.1191 -1.1998  1.8192
 3904SOL     OW12395   1.329   4.815   2.797  0.1037  0.4614  0.1876
 3904SOL    HW112396   1.379   4.889   2.829  0.8612  0.7796 -1.6403
 3904SOL    HW212397   1.384   4.739   2.816 -0.8106  0.2632  2.3474
 3905SOL     OW12398   3.420   5.990   3.057  0.0858  0.3278 -0.1977
 3905SOL    HW112399   3.441   6.070   3.106  2.1291  0.0182 -0.4813
 3905SOL    HW212400   3.471   5.922   3.100  2.1398  0.0752 -2.7796
 3906SOL     OW12401   5.718   6.033   6.386  0.0549 -0.2633 -0.5989
 3906SOL    HW112402   5.638   6.024   6.334 -0.9109  2.3503  0.2395
 3906SOL    HW212403   5.789   6.028   6.322 -1.1026  4.3260 -2.6944
 3907SOL     OW12404   2.388   6.159   1.262  0.1094  0.8085 -0.0303
 3907SOL    HW112405   2.401   6.254   1.269 -0.4585  0.8286  0.7947
 3907SOL    HW212406   2.293   6.147   1.269  0.1092  0.2256 -0.8296
 3908SOL     OW12407   3.956   3.251   5.674 -0.2180  0.1075 -0.3646
 3908SOL    HW112408   3.873   3.216   5.641 -0.3662 -0.0585  0.1704
 3908SOL    HW212409   3.965   3.212   5.761 -0.1360  1.0030  0.0349
 3909SOL     OW12410   5.312   4.320   1.483 -0.3138 -0.0491 -0.1787
 3909SOL    HW112411   5.397   4.359   1.462 -0.3903  0.3991  0.3438
 3909SOL    HW212412   5.326   4.226   1.469  0.3926 -0.0284  0.3225
 3910SOL     OW12413   4.174   5.058   3.088 -0.4865  0.3771 -0.0800
 3910SOL    HW112414   4.200   5.146   3.060 -0.5337  0.8033  1.1638
 3910SOL    HW212415   4.226   4.999   3.033 -0.6730  1.1649 -1.1375
 3911SOL     OW12416   5.720   3.205   2.938 -0.0159  0.0621 -0.6844
 3911SOL    HW112417   5.746   3.232   3.026 -0.3689 -0.5239 -0.3916
 3911SOL    HW212418   5.748   3.276   2.882  0.2104  0.4475 -0.0949
 3912SOL     OW12419   1.785   5.875   1.198  0.5937  0.3938  0.1335
 3912SOL    HW112420   1.847   5.948   1.196  1.1644 -0.0711  0.4272
 3912SOL    HW212421   1.751   5.870   1.109  0.4343  1.1104  0.1435
 3913SOL     OW12422   5.155   3.066   1.240 -0.2108  0.0062 -0.1115
 3913SOL    HW112423   5.148   2.982   1.285  0.5998 -0.1784 -0.3096
 3913SOL    HW212424   5.066   3.098   1.235 -0.4862 -0.6799  0.2875
 3914SOL     OW12425   1.817   3.928   5.524 -0.0561 -0.3004  0.1954
 3914SOL    HW112426   1.867   3.997   5.480 -1.0109 -0.2576 -0.8685
 3914SOL    HW212427   1.876   3.852   5.525  1.2143  0.6535  1.8775
 3915SOL     OW12428   4.638   1.256   5.028 -0.0396 -0.4789  0.2370
 3915SOL    HW112429   4.625   1.203   5.107  0.0546  0.3517  0.8213
 3915SOL    HW212430   4.642   1.192   4.957 -0.3369 -1.2274  0.8760
 3916SOL     OW12431   2.476   4.435   1.041 -0.8265  0.0689 -0.3859
 3916SOL    HW112432   2.452   4.344   1.029 -0.4664  0.0231 -0.8184
 3916SOL    HW212433   2.482   4.447   1.136  1.9973 -1.1607 -0.2970
 3917SOL     OW12434   0.789   4.726   5.752  0.0242  0.4695 -0.6798
 3917SOL    HW112435   0.695   4.713   5.748 -0.7665  4.7367 -0.5094
 3917SOL    HW212436   0.820   4.704   5.663 -1.1122 -0.6450 -0.8330
 3918SOL     OW12437   5.328   4.404   0.577 -0.3724  0.1222  0.1958
 3918SOL    HW112438   5.412   4.437   0.609 -0.6382  0.6823  0.3242
 3918SOL    HW212439   5.349   4.367   0.491  0.4235 -1.7940  1.1621
 3919SOL     OW12440   6.269   1.722   1.872 -0.3181  0.3679  0.3565
 3919SOL    HW112441   6.311   1.721   1.786  0.8148  0.5819  0.8929
 3919SOL    HW212442   6.283   1.634   1.906 -2.4394 -0.3402 -0.4309
 3920SOL     OW12443   5.391   2.813   3.673  0.1755  0.1110  0.1485
 3920SOL    HW112444   5.344   2.879   3.623  0.6015 -0.1671 -0.6260
 3920SOL    HW212445   5.349   2.731   3.649  0.7385 -0.0840 -0.1760
 3921SOL     OW12446   0.431   6.345   5.856  0.1113 -0.0162  0.2059
 3921SOL    HW112447   0.521   6.370   5.878 -0.5747  1.6264  1.3601
 3921SOL    HW212448   0.412   6.392   5.775  0.5409 -1.0634 -0.5341
 3922SOL     OW12449   1.904   1.139   4.525 -0.7822 -0.5684  0.2122
 3922SOL    HW112450   1.835   1.163   4.463  0.6768  2.0167 -0.5870
 3922SOL    HW212451   1.862   1.144   4.611 -1.6954  0.6458 -0.2789
 3923SOL     OW12452   4.372   6.850   5.967 -0.4794  0.3773 -0.3513
 3923SOL    HW112453   4.368   6.945   5.958 -1.7982  0.5169  1.2021
 3923SOL    HW212454   4.435   6.835   6.037  0.5694  0.0094 -1.3376
 3924SOL     OW12455   2.313   4.105   3.968 -0.6654 -0.2975  0.3683
 3924SOL    HW112456   2.278   4.068   3.887 -0.5970  0.5494 -0.0574
 3924SOL    HW212457   2.408   4.100   3.958 -0.6560 -0.7469  0.6600
 3925SOL     OW12458   0.950   5.210   2.605 -0.2044 -0.2989 -0.3521
 3925SOL    HW112459   0.911   5.222   2.519 -0.3245  1.7586 -0.0540
 3925SOL    HW212460   0.924   5.121   2.631 -3.6394  0.4664 -0.7027
 3926SOL     OW12461   6.404   2.978   2.315 -0.4897 -0.3857 -0.8835
 3926SOL    HW112462   6.427   2.885   2.310  1.1777 -0.0430 -0.1288
 3926SOL    HW212463   6.455   3.012   2.388  0.0336  1.4412 -2.0243
 3927SOL     OW12464   4.361   5.552   5.204  0.2181  0.1079  0.2243
 3927SOL    HW112465   4.410   5.568   5.285 -0.6638 -0.6443  0.9361
 3927SOL    HW212466   4.328   5.639   5.179  0.8899  0.4232  0.4044
 3928SOL     OW12467   6.186   1.227   1.464 -0.3472 -0.5878 -0.1607
 3928SOL    HW112468   6.132   1.214   1.542 -0.2587 -0.7291 -0.1218
 3928SOL    HW212469   6.125   1.257   1.397 -0.2566  0.5789  0.2509
 3929SOL     OW12470   0.605   0.056   2.363 -0.0810  0.1206 -0.2101
 3929SOL    HW112471   0.563  -0.002   2.299 -0.0908 -0.7052  0.5240
 3929SOL    HW212472   0.676   0.098   2.315  0.4902 -1.1717 -0.5360
 3930SOL     OW12473   3.581   6.875   5.403 -0.0879 -0.2414 -0.2400
 3930SOL    HW112474   3.632   6.956   5.400  1.0612 -0.9328  0.1871
 3930SOL    HW212475   3.644   6.807   5.424 -1.0791 -1.2303 -0.3552
 3931SOL     OW12476   1.716   4.288   6.306  0.8846 -0.0136  0.0237
 3931SOL    HW112477   1.720   4.361   6.244  0.0573 -0.6848 -0.8577
 3931SOL    HW212478   1.682   4.327   6.387 -1.3593  0.3009 -0.9809
 3932SOL     OW12479   6.491   0.818   5.386 -0.2996 -0.4509 -0.6358
 3932SOL    HW112480   6.563   0.845   5.443 -1.8556  0.7499  0.8717
 3932SOL    HW212481   6.474   0.894   5.330 -0.8188 -0.4708 -0.5126
 3933SOL     OW12482   2.707   4.367   2.461  0.1505  0.1774 -0.1241
 3933SOL    HW112483   2.711   4.273   2.479 -0.5470  0.4292  1.4379
 3933SOL    HW212484   2.782   4.383   2.403 -1.1622 -1.7516 -2.5237
 3934SOL     OW12485   3.017   2.175   6.015 -0.3379 -0.7899  0.0114
 3934SOL    HW112486   2.993   2.095   5.969  1.4820 -1.9084  0.8980
 3934SOL    HW212487   3.096   2.206   5.970 -0.1738 -0.3256  0.6002
 3935SOL     OW12488   3.324   1.730   0.893 -0.3177  0.2558 -0.1569
 3935SOL    HW112489   3.359   1.648   0.928  1.2208  0.5949 -0.8098
 3935SOL    HW212490   3.371   1.798   0.941  0.2289  0.7312 -1.3505
 3936SOL     OW12491   2.977   1.234   4.957  0.0747  0.1432  0.3834
 3936SOL    HW112492   2.972   1.139   4.946 -0.1415 -0.1786  2.7192
 3936SOL    HW212493   2.897   1.257   5.004  0.0856  1.5059 -0.2300
 3937SOL     OW12494   1.031   4.833   5.326  0.3188 -0.7442 -0.1876
 3937SOL    HW112495   1.028   4.750   5.279  0.7949  0.2763 -2.1083
 3937SOL    HW212496   0.945   4.839   5.369  0.0978 -1.9834 -0.4094
 3938SOL     OW12497   2.751   3.861   4.205 -0.8113  0.6006  0.1919
 3938SOL    HW112498   2.730   3.927   4.270 -0.3383  2.5457 -1.5337
 3938SOL    HW212499   2.822   3.810   4.245 -1.2360  1.0524  1.5846
 3939SOL     OW12500   6.454   0.113   2.294  0.2149 -0.3158  0.6122
 3939SOL    HW112501   6.460   0.205   2.318 -0.0901 -0.1587  0.1006
 3939SOL    HW212502   6.369   0.085   2.328 -0.5537  0.1013 -0.8848
 3940SOL     OW12503   0.140   3.770   3.323  0.1051 -0.7432  0.2449
 3940SOL    HW112504   0.098   3.855   3.333  1.1467 -0.3254  1.3422
 3940SOL    HW212505   0.225   3.790   3.283 -0.6330 -1.5571 -1.8699
 3941SOL     OW12506   5.255   0.739   4.979  0.1226  0.0700  0.0456
 3941SOL    HW112507   5.319   0.803   5.010 -0.1365 -0.6007  2.1651
 3941SOL    HW212508   5.170   0.781   4.995 -0.0434 -0.6546  1.2640
 3942SOL     OW12509   2.308   4.424   5.882  0.2714 -0.5762  0.0257
 3942SOL    HW112510   2.338   4.514   5.894 -0.4965 -0.5745  2.5236
 3942SOL    HW212511   2.320   4.383   5.968  0.1560 -2.7341 -0.9227
 3943SOL     OW12512   5.103   5.296   6.714 -0.0644  0.4794 -0.4230
 3943SOL    HW112513   5.069   5.354   6.646 -1.8353  0.4704  0.3891
 3943SOL    HW212514   5.092   5.208   6.678 -1.2976  0.4552 -0.0567
 3944SOL     OW12515   2.035   5.079   1.801  0.2267 -0.3905  0.1107
 3944SOL    HW112516   2.073   4.996   1.772  0.7834 -0.6096  1.4230
 3944SOL    HW212517   1.944   5.075   1.770  1.3638  0.6378 -4.1223
 3945SOL     OW12518   5.423   6.752   1.080  0.6682  0.5078  0.6082
 3945SOL    HW112519   5.449   6.812   1.010  0.3188  0.7314  0.6676
 3945SOL    HW212520   5.374   6.683   1.036  0.7028  0.4912  0.5956
 3946SOL     OW12521   6.674   1.569   2.342 -0.1176  0.1588  0.7676
 3946SOL    HW112522   6.627   1.509   2.285 -0.1427  1.2497 -0.4159
 3946SOL    HW212523   6.767   1.549   2.327 -0.1102  0.7543 -0.0392
 3947SOL     OW12524   5.971   5.845   3.271  0.3643  0.2388  0.3395
 3947SOL    HW112525   5.982   5.820   3.363 -0.9194  2.2651  1.1196
 3947SOL    HW212526   5.916   5.923   3.274 -0.6836 -0.2895 -2.2383
 3948SOL     OW12527   6.653   5.584   3.113 -0.5385  0.2640  0.2304
 3948SOL    HW112528   6.604   5.541   3.183  0.1813 -0.8181  0.0978
 3948SOL    HW212529   6.724   5.629   3.159  1.0634 -1.9795  0.1463
 3949SOL     OW12530   0.569   3.613   1.080 -0.0982 -0.5392 -0.5311
 3949SOL    HW112531   0.516   3.640   1.006 -0.6287  1.3183  0.4615
 3949SOL    HW212532   0.657   3.647   1.061 -0.0640 -0.6726 -0.6150
 3950SOL     OW12533   0.591   4.438   6.346 -0.0661 -0.0280  0.3669
 3950SOL    HW112534   0.570   4.350   6.376  1.2222 -0.0698  1.2446
 3950SOL    HW212535   0.560   4.496   6.416 -0.3287  0.1647  0.0940
 3951SOL     OW12536   3.671   5.202   6.245 -0.3034 -0.1851  0.4937
 3951SOL    HW112537   3.594   5.252   6.218  0.1649  1.1675  1.5245
 3951SOL    HW212538   3.653   5.176   6.335  0.4625  0.2149  0.7722
 3952SOL     OW12539   6.177   6.221   6.624 -0.1076  0.3579 -0.0906
 3952SOL    HW112540   6.163   6.141   6.674  1.8992 -0.8503 -1.3337
 3952SOL    HW212541   6.267   6.247   6.644  0.5206  0.2135 -2.4914
 3953SOL     OW12542   1.642   3.486   6.173  0.5959 -0.0070 -0.0787
 3953SOL    HW112543   1.688   3.463   6.092  0.0494 -0.0318 -0.3903
 3953SOL    HW212544   1.549   3.483   6.149  0.3479 -1.5289  0.9448
 3954SOL     OW12545   3.060   4.263   1.629  0.3752  0.0552 -0.7583
 3954SOL    HW112546   3.040   4.335   1.569 -0.5656 -0.8520 -1.5747
 3954SOL    HW212547   2.975   4.240   1.668  0.3171 -1.7300 -1.8259
 3955SOL     OW12548   1.906   0.839   2.390 -0.0902 -0.2045 -0.4127
 3955SOL    HW112549   1.864   0.923   2.370  1.2881  0.7313  0.4832
 3955SOL    HW212550   1.867   0.812   2.474 -0.1508 -0.2108 -0.4425
 3956SOL     OW12551   5.366   0.350   1.450 -0.2401  0.4148 -0.6338
 3956SOL    HW112552   5.326   0.388   1.371 -0.0888  0.5102 -0.6639
 3956SOL    HW212553   5.306   0.279   1.474 -1.6656  1.9982  0.6680
 3957SOL     OW12554   0.791   3.296   2.205  0.7290 -0.0331 -0.4268
 3957SOL    HW112555   0.701   3.264   2.214  0.8549 -0.4304 -0.5902
 3957SOL    HW212556   0.785   3.363   2.136  0.7307 -0.7544 -1.1339
 3958SOL     OW12557   2.123   2.298   1.188 -0.7092 -0.1018 -0.2426
 3958SOL    HW112558   2.151   2.335   1.271 -2.0171 -0.1021  0.2281
 3958SOL    HW212559   2.193   2.318   1.127 -0.1735  0.7554  0.6348
 3959SOL     OW12560   4.513   3.705   3.912 -0.2538  0.5318 -0.1130
 3959SOL    HW112561   4.543   3.695   3.821 -1.1056 -0.0532 -0.3497
 3959SOL    HW212562   4.504   3.615   3.944 -0.4828  0.7229  0.3683
 3960SOL     OW12563   1.157   3.803   1.466  0.1368 -0.0072 -0.3778
 3960SOL    HW112564   1.120   3.725   1.507  1.3501  0.3146  1.4390
 3960SOL    HW212565   1.085   3.866   1.463  0.1275  0.1393  1.8231
 3961SOL     OW12566   5.674   5.876   5.888 -0.8230 -0.6397  0.0561
 3961SOL    HW112567   5.689   5.966   5.859 -1.2124 -0.5533  0.1190
 3961SOL    HW212568   5.751   5.828   5.859 -0.6654 -0.3073 -0.0767
 3962SOL     OW12569   1.193   4.639   3.190  0.3422 -0.7017  0.4977
 3962SOL    HW112570   1.148   4.555   3.181 -0.2959 -0.4026  0.7731
 3962SOL    HW212571   1.178   4.683   3.107  2.2865 -1.5914 -0.3831
 3963SOL     OW12572   0.368   4.600   1.247 -0.0047  0.0432 -0.4199
 3963SOL    HW112573   0.420   4.525   1.275 -0.1198 -0.6151 -1.8400
 3963SOL    HW212574   0.339   4.576   1.159 -2.0695  0.7260  0.0398
 3964SOL     OW12575   0.593   5.758   2.784  0.0051 -0.1910 -0.4068
 3964SOL    HW112576   0.620   5.791   2.698  0.3340  1.2237  0.2251
 3964SOL    HW212577   0.527   5.691   2.764  0.1209  0.0727 -1.7595
 3965SOL     OW12578   1.561   5.851   2.699 -0.3431  0.1392  0.0019
 3965SOL    HW112579   1.565   5.783   2.632 -0.4938  0.1194  0.0133
 3965SOL    HW212580   1.641   5.838   2.750 -0.6701 -0.4300  0.3897
 3966SOL     OW12581   0.664   4.273   4.431 -0.2139 -0.5214  0.0778
 3966SOL    HW112582   0.689   4.277   4.339 -0.3539 -2.6586 -0.1087
 3966SOL    HW212583   0.581   4.320   4.436  0.0271  0.0207 -0.7775
 3967SOL     OW12584   3.105   6.294   0.136 -0.0624  0.0672  0.7975
 3967SOL    HW112585   3.190   6.291   0.091  0.4749 -0.0020  1.8066
 3967SOL    HW212586   3.105   6.378   0.182  0.3935 -0.8394  2.5491
 3968SOL     OW12587   2.743   3.398   4.353 -0.0107  0.3129 -0.1523
 3968SOL    HW112588   2.674   3.333   4.343 -0.0127  0.2108  0.4927
 3968SOL    HW212589   2.781   3.407   4.265  0.5641 -1.1943 -0.0864
 3969SOL     OW12590   2.714   0.699   6.338 -0.0511  0.3849  0.2332
 3969SOL    HW112591   2.683   0.613   6.310  0.1608  0.3555  0.0861
 3969SOL    HW212592   2.778   0.681   6.406  0.0591  0.4210  0.1404
 3970SOL     OW12593   6.384   6.344   5.652  0.1071 -0.0443  0.0652
 3970SOL    HW112594   6.345   6.343   5.564 -1.8179  1.7654  0.7901
 3970SOL    HW212595   6.390   6.437   5.674 -0.5769 -0.4569  2.2846
 3971SOL     OW12596   1.116   3.922   1.073 -0.3319 -0.1289 -0.0408
 3971SOL    HW112597   1.173   3.883   1.139 -1.1245  0.2015  0.8623
 3971SOL    HW212598   1.083   3.848   1.022 -0.1374 -0.4411  0.2867
 3972SOL     OW12599   3.273   4.115   6.378  0.4658 -0.1590 -0.2977
 3972SOL    HW112600   3.199   4.100   6.318 -0.9473 -1.5560  1.6838
 3972SOL    HW212601   3.233   4.147   6.458  1.9666 -1.1709  0.9172
 3973SOL     OW12602   4.498   6.544   6.043 -0.2662  0.1431 -0.2573
 3973SOL    HW112603   4.534   6.633   6.049 -0.0697  0.1038 -0.7926
 3973SOL    HW212604   4.574   6.489   6.025 -0.3204 -0.1998  0.5215
 3974SOL     OW12605   5.707   5.641   0.483  0.7050  0.0313 -0.3974
 3974SOL    HW112606   5.629   5.696   0.482 -1.4785 -2.6726  1.8697
 3974SOL    HW212607   5.693   5.579   0.410  0.4529 -0.7297  0.2798
 3975SOL     OW12608   3.742   0.832   5.860  0.2321 -0.1042  0.0698
 3975SOL    HW112609   3.666   0.827   5.917  0.3911  1.0519  0.4140
 3975SOL    HW212610   3.726   0.767   5.791 -1.2799  0.4383 -0.1228
 3976SOL     OW12611   0.804   0.423   0.941  0.4310 -0.8108  0.7198
 3976SOL    HW112612   0.768   0.358   0.881  0.7948 -0.7898  0.4760
 3976SOL    HW212613   0.747   0.419   1.018 -0.1855 -0.6695  0.2824
 3977SOL     OW12614   2.276   3.669   5.204 -0.2918  0.0541 -0.3940
 3977SOL    HW112615   2.279   3.730   5.278  2.8441 -0.1453 -0.1963
 3977SOL    HW212616   2.310   3.587   5.239 -1.5159 -0.9161 -1.4023
 3978SOL     OW12617   5.124   5.570   4.810 -0.0169  0.1290  0.1218
 3978SOL    HW112618   5.036   5.590   4.841 -0.7335 -1.1116 -1.0470
 3978SOL    HW212619   5.166   5.528   4.886 -0.2653  1.1021  0.8218
 3979SOL     OW12620   5.880   6.455   3.729  0.9038 -0.3898 -0.2051
 3979SOL    HW112621   5.830   6.423   3.654  0.9472  1.0375 -0.8727
 3979SOL    HW212622   5.881   6.550   3.718  0.4388 -0.0903  1.9007
 3980SOL     OW12623   0.915   5.344   3.217 -0.5030 -0.1131  0.1155
 3980SOL    HW112624   0.959   5.414   3.167 -1.6577  0.0755 -0.6629
 3980SOL    HW212625   0.939   5.264   3.171  0.8120 -0.2640  1.0013
 3981SOL     OW12626   2.921   3.418   1.787  0.5679 -0.4550  0.3351
 3981SOL    HW112627   3.013   3.412   1.764  0.1058 -1.9289 -1.2935
 3981SOL    HW212628   2.879   3.456   1.710 -0.4160 -1.3688  0.4006
 3982SOL     OW12629   0.514   6.064   5.197  0.6395  0.4677 -0.5200
 3982SOL    HW112630   0.562   6.110   5.129  1.2914  1.4583  0.5811
 3982SOL    HW212631   0.553   5.976   5.199 -0.6166 -0.2069 -2.6240
 3983SOL     OW12632   5.599   5.020   6.417 -0.4371 -0.2849  0.1276
 3983SOL    HW112633   5.597   5.044   6.325 -1.3690 -1.0175 -0.0623
 3983SOL    HW212634   5.689   5.037   6.445 -0.0459 -0.4258 -1.0129
 3984SOL     OW12635   6.723   6.594   4.990  0.1804 -0.5531 -0.1562
 3984SOL    HW112636   6.729   6.611   5.084 -1.4384  0.2903 -0.1726
 3984SOL    HW212637   6.731   6.499   4.983 -1.8296 -0.8899  1.0966
 3985SOL     OW12638   3.385   0.034   2.219  0.4536 -0.2258 -0.1640
 3985SOL    HW112639   3.464  -0.009   2.253 -1.7298 -4.2149  0.4859
 3985SOL    HW212640   3.374   0.112   2.274  3.0472 -0.3971  0.7244
 3986SOL     OW12641   4.126   2.669   5.670  0.4337 -0.1465 -0.3302
 3986SOL    HW112642   4.091   2.757   5.660 -1.7116 -0.8685  0.3992
 3986SOL    HW212643   4.081   2.617   5.603  0.7390 -0.9379  0.0567
 3987SOL     OW12644   0.141   0.153   6.659 -0.3384  0.3507 -0.6805
 3987SOL    HW112645   0.059   0.202   6.661  0.5147  1.8587 -1.1956
 3987SOL    HW212646   0.208   0.217   6.682  0.8513 -0.5006 -1.6466
 3988SOL     OW12647   1.035   2.817   6.218  0.0406 -0.0559  0.1643
 3988SOL    HW112648   1.056   2.838   6.309  0.5673 -0.4997  0.1545
 3988SOL    HW212649   0.974   2.744   6.223  0.3425 -0.3115  0.1608
 3989SOL     OW12650   3.741   6.510   5.723  0.2682  0.0889 -0.4097
 3989SOL    HW112651   3.676   6.453   5.682  0.3710  0.1074 -0.5992
 3989SOL    HW212652   3.792   6.452   5.779  0.1045  0.0705 -0.2783
 3990SOL     OW12653   4.387   1.125   5.249 -0.0010 -0.0268 -0.0547
 3990SOL    HW112654   4.444   1.081   5.312 -1.8185 -1.6617  0.5388
 3990SOL    HW212655   4.369   1.059   5.182 -0.8617  0.5562 -0.4201
 3991SOL     OW12656   5.932   6.689   2.294 -0.2834 -0.4080 -0.2095
 3991SOL    HW112657   5.939   6.766   2.237  3.0326  0.3791  1.0119
 3991SOL    HW212658   5.996   6.627   2.258  1.9649  0.1304  2.4509
 3992SOL     OW12659   1.648   1.718   5.735  0.0599 -0.7018 -0.4580
 3992SOL    HW112660   1.633   1.807   5.767  1.0131 -0.5435 -0.4116
 3992SOL    HW212661   1.671   1.668   5.813  0.4726 -0.7601 -0.6132
 3993SOL     OW12662   5.977   6.351   3.257 -0.5141  0.1985  0.1078
 3993SOL    HW112663   6.061   6.307   3.270  0.0430  0.6922 -1.5860
 3993SOL    HW212664   5.919   6.313   3.323  0.2652 -2.1872 -0.5068
 3994SOL     OW12665   1.735   0.387   2.000  0.5724  0.1328  0.4482
 3994SOL    HW112666   1.708   0.450   2.066  1.8842  2.9717 -1.4973
 3994SOL    HW212667   1.675   0.402   1.927 -0.2917 -2.2941  0.5797
 3995SOL     OW12668   2.867   4.690   2.980 -0.0273 -0.4560 -0.2993
 3995SOL    HW112669   2.953   4.713   2.945  0.1711 -0.1080  0.3961
 3995SOL    HW212670   2.865   4.594   2.978  1.0393 -0.5437  1.1944
 3996SOL     OW12671   5.649   2.860   1.900  0.7257  0.2633  0.2171
 3996SOL    HW112672   5.622   2.942   1.942  1.3250  1.3694 -1.4157
 3996SOL    HW212673   5.740   2.849   1.925  0.5205 -0.1506  0.7906
 3997SOL     OW12674   3.456   0.453   3.612  0.2550 -0.0211  0.4822
 3997SOL    HW112675   3.377   0.501   3.587 -0.3513 -0.8491  0.7511
 3997SOL    HW212676   3.428   0.398   3.685  1.4690  0.7765  1.5721
 3998SOL     OW12677   2.739   3.267   5.025 -0.0123  0.5944 -0.0319
 3998SOL    HW112678   2.720   3.239   4.935  0.0773  0.6534 -0.0682
 3998SOL    HW212679   2.696   3.352   5.033  1.1759  1.2456 -0.4653
 3999SOL     OW12680   4.456   3.256   1.457 -0.1972 -0.3020 -0.5252
 3999SOL    HW112681   4.371   3.215   1.471 -0.3840  0.1909 -0.1725
 3999SOL    HW212682   4.507   3.191   1.409 -0.9998 -0.3297 -1.3650
 4000SOL     OW12683   3.789   0.222   5.257  0.4417  0.6922 -0.3535
 4000SOL    HW112684   3.860   0.285   5.249  1.3165 -0.2830 -0.4996
 4000SOL    HW212685   3.820   0.144   5.210 -0.0602 -0.3032  0.8901
 4001SOL     OW12686   5.935   3.551   1.299 -0.1003 -0.5587 -0.0258
 4001SOL    HW112687   5.996   3.485   1.332 -0.0271 -0.8454 -0.7003
 4001SOL    HW212688   5.892   3.586   1.377  2.2919  1.0492  0.6902
 4002SOL     OW12689   1.061   6.534   3.322 -0.0484 -0.2961  0.8398
 4002SOL    HW112690   1.121   6.516   3.394  1.6754  0.5982 -0.2981
 4002SOL    HW212691   1.094   6.616   3.283 -1.3182 -0.3934 -0.5392
 4003SOL     OW12692   4.866   0.551   6.015  0.3367  0.1778  0.8751
 4003SOL    HW112693   4.846   0.634   6.058  0.3349 -0.0813  1.3763
 4003SOL    HW212694   4.876   0.488   6.086  1.1645 -0.0836  0.5367
 4004SOL     OW12695   3.985   5.924   3.883  0.7283 -0.1708  0.1379
 4004SOL    HW112696   3.917   5.860   3.905  0.0465 -0.0444 -1.4217
 4004SOL    HW212697   4.047   5.876   3.828 -0.7141  0.7989 -2.5663
 4005SOL     OW12698   3.113   2.477   5.745 -0.1038  0.0101 -0.2814
 4005SOL    HW112699   3.092   2.507   5.656 -0.1817  0.5674 -0.0833
 4005SOL    HW212700   3.099   2.555   5.799 -0.2820 -0.3921  0.2496
 4006SOL     OW12701   1.203   2.709   1.328 -0.1237  0.7883 -0.6849
 4006SOL    HW112702   1.138   2.745   1.267 -1.6709  1.3418  1.1835
 4006SOL    HW212703   1.185   2.753   1.411  3.2402  1.5876 -0.2466
 4007SOL     OW12704   3.823   6.005   5.306  0.1397  0.0345 -0.2964
 4007SOL    HW112705   3.758   6.027   5.372  0.7947  1.4176 -0.0802
 4007SOL    HW212706   3.795   6.052   5.227 -1.2587 -2.4694 -1.4257
 4008SOL     OW12707   1.857   6.158   5.323 -0.4538  0.2814  0.8322
 4008SOL    HW112708   1.812   6.073   5.328 -0.8722  0.5111  1.0728
 4008SOL    HW212709   1.923   6.154   5.392 -0.5394  0.1861  0.9100
 4009SOL     OW12710   3.467   4.195   3.304 -0.1315  0.7755  0.4043
 4009SOL    HW112711   3.535   4.137   3.269 -0.9793 -0.1621  0.2736
 4009SOL    HW212712   3.501   4.283   3.289  0.1919  0.3772 -1.4945
 4010SOL     OW12713   2.095   4.086   0.382  0.7831 -0.4183 -0.0883
 4010SOL    HW112714   2.032   4.081   0.454  0.9942  0.1123  0.1363
 4010SOL    HW212715   2.143   4.003   0.386  0.0663 -0.8546 -0.2989
 4011SOL     OW12716   6.004   6.777   2.824  0.2822  0.3659  0.5849
 4011SOL    HW112717   6.048   6.837   2.884  0.0231 -0.1102  1.2651
 4011SOL    HW212718   6.041   6.798   2.738 -0.3429  2.0105  0.6763
 4012SOL     OW12719   6.859   6.258   0.125  0.4972  0.2696 -0.2232
 4012SOL    HW112720   6.952   6.243   0.110  0.7941  0.7134  1.0717
 4012SOL    HW212721   6.851   6.353   0.134  0.6184  0.0748  3.5622
 4013SOL     OW12722   3.538   5.224   3.148 -0.1591 -0.1885 -0.5904
 4013SOL    HW112723   3.467   5.162   3.131  0.3150 -1.2719  1.0448
 4013SOL    HW212724   3.618   5.171   3.142  0.2768  0.2758  0.5988
 4014SOL     OW12725   6.897   4.818   1.285  0.0500 -0.0181  0.5956
 4014SOL    HW112726   6.890   4.900   1.236  0.9213 -0.2822  0.0076
 4014SOL    HW212727   6.940   4.758   1.224 -1.8002 -1.3341  0.5176
 4015SOL     OW12728   1.299   3.951   3.285 -0.1487  0.1886  0.4012
 4015SOL    HW112729   1.330   3.966   3.196  0.6197  2.3203  0.9498
 4015SOL    HW212730   1.234   3.881   3.277  0.0389  0.1945 -1.7832
 4016SOL     OW12731   3.424   3.057   5.106  0.3246  0.0774 -0.4119
 4016SOL    HW112732   3.330   3.049   5.124  0.0361  0.7283 -1.5151
 4016SOL    HW212733   3.432   3.141   5.061  1.6708  0.8020  1.0827
 4017SOL     OW12734   3.352   6.015   4.638  0.0042  0.5620  0.1934
 4017SOL    HW112735   3.334   6.056   4.554  1.4645 -1.3101 -1.1087
 4017SOL    HW212736   3.309   5.930   4.633  0.5885  0.1966  1.0845
 4018SOL     OW12737   3.797   6.733   1.136 -0.1547 -0.4261  0.2403
 4018SOL    HW112738   3.738   6.749   1.063 -0.8623 -1.7438  0.4864
 4018SOL    HW212739   3.792   6.638   1.151  1.8798 -0.5613  0.3947
 4019SOL     OW12740   1.437   5.618   2.173  0.0019 -0.0612  0.4186
 4019SOL    HW112741   1.447   5.534   2.128 -0.5311  0.2136 -0.2207
 4019SOL    HW212742   1.513   5.669   2.145 -0.4437  0.1876 -0.3536
 4020SOL     OW12743   6.604   5.854   3.981  0.2514 -0.1051 -0.3761
 4020SOL    HW112744   6.515   5.890   3.977  0.3147  0.2012  0.6829
 4020SOL    HW212745   6.661   5.931   3.987  0.6585 -0.2681 -1.6331
 4021SOL     OW12746   0.908   5.620   6.353  0.1301 -0.0390 -0.2696
 4021SOL    HW112747   0.937   5.529   6.347 -0.0624 -0.2542  1.6319
 4021SOL    HW212748   0.875   5.641   6.265 -0.7454 -2.1115 -0.4788
 4022SOL     OW12749   6.446   0.487   0.509  0.1163 -0.2623 -0.5271
 4022SOL    HW112750   6.529   0.446   0.485 -0.4806 -0.8761 -1.5797
 4022SOL    HW212751   6.461   0.580   0.492  1.3379 -0.0177  1.4930
 4023SOL     OW12752   6.786   5.328   2.441  0.0260  0.1289 -0.1653
 4023SOL    HW112753   6.708   5.332   2.386 -1.0129 -0.2872  1.2151
 4023SOL    HW212754   6.822   5.241   2.426  1.4001  0.9825 -2.2748
 4024SOL     OW12755   1.099   3.343   6.592 -0.0739  0.1541 -0.3369
 4024SOL    HW112756   1.016   3.382   6.567 -0.0390 -0.2758 -1.1419
 4024SOL    HW212757   1.165   3.409   6.572  0.3840 -1.3358 -4.8213
 4025SOL     OW12758   1.270   3.568   2.883 -0.0610 -0.2640  0.6303
 4025SOL    HW112759   1.288   3.530   2.969 -0.2928 -1.7684  0.0341
 4025SOL    HW212760   1.342   3.537   2.828 -1.0056 -1.0475 -0.2100
 4026SOL     OW12761   4.258   1.810   5.796 -0.2138  0.3376  0.4628
 4026SOL    HW112762   4.235   1.818   5.889 -0.0624  1.2179  0.4379
 4026SOL    HW212763   4.353   1.821   5.794  0.1321 -2.1406  0.4450
 4027SOL     OW12764   0.106   3.406   3.775  0.2605 -0.0784 -0.2701
 4027SOL    HW112765   0.123   3.484   3.723  0.9853  0.3826  0.6259
 4027SOL    HW212766   0.184   3.352   3.764  1.0670  0.6529  1.3994
 4028SOL     OW12767   5.381   6.629   1.967  0.1965  0.5511  0.0054
 4028SOL    HW112768   5.382   6.597   1.877 -0.3133 -1.5482  0.6914
 4028SOL    HW212769   5.474   6.633   1.992  0.3221  0.8652 -0.4921
 4029SOL     OW12770   5.888   5.059   6.528  0.0228 -0.0020  0.2028
 4029SOL    HW112771   5.906   5.151   6.548 -0.1030 -0.2185  1.3704
 4029SOL    HW212772   5.886   5.015   6.613  1.0943 -1.2856 -0.3957
 4030SOL     OW12773   4.037   1.546   2.772 -0.4429  0.0068 -0.1436
 4030SOL    HW112774   3.972   1.541   2.842  0.6441  1.4266  1.0344
 4030SOL    HW212775   4.122   1.543   2.817  0.3674 -1.7039 -1.6305
 4031SOL     OW12776   2.477   3.741   3.111  0.0132  0.4549  0.2371
 4031SOL    HW112777   2.549   3.797   3.139  0.4371 -0.2311  0.5381
 4031SOL    HW212778   2.405   3.762   3.171  0.3193  0.3523  0.6419
 4032SOL     OW12779   3.988   0.048   2.579  0.4719 -0.0508 -0.3900
 4032SOL    HW112780   4.056   0.004   2.529  0.2497 -1.2211  0.2789
 4032SOL    HW212781   4.014   0.036   2.671 -2.0624 -3.2384  0.1044
 4033SOL     OW12782   5.188   0.416   6.842  0.3917  0.3913  0.1566
 4033SOL    HW112783   5.244   0.420   6.765  0.1456  2.0062  0.0248
 4033SOL    HW212784   5.224   0.482   6.902  0.5989 -0.8473  1.4663
 4034SOL     OW12785   6.235   6.073   0.777 -0.1241 -0.0018 -0.1307
 4034SOL    HW112786   6.186   6.095   0.856  1.7901 -1.7758  1.6848
 4034SOL    HW212787   6.231   5.978   0.772 -0.5739  0.0714 -2.4983
 4035SOL     OW12788   6.319   0.722   5.607 -0.2302  0.4088  0.1531
 4035SOL    HW112789   6.361   0.758   5.529  0.9097  0.9477  0.9879
 4035SOL    HW212790   6.334   0.628   5.600 -0.1030  0.4538 -0.2471
 4036SOL     OW12791   0.979   6.425   2.485 -1.1119  0.2684  0.2121
 4036SOL    HW112792   0.952   6.411   2.576  0.0553 -2.0150  0.2812
 4036SOL    HW212793   1.073   6.410   2.485 -1.3483 -1.6380 -1.6712
 4037SOL     OW12794   0.132   0.823   1.395 -0.2406 -0.3132 -0.0029
 4037SOL    HW112795   0.100   0.805   1.483 -0.2337  1.3907  0.3825
 4037SOL    HW212796   0.225   0.842   1.406  0.4842 -2.9440 -0.8145
 4038SOL     OW12797   6.266   0.114   3.609  0.5675  0.3864  0.1765
 4038SOL    HW112798   6.208   0.069   3.671  0.7113 -2.1391 -1.3551
 4038SOL    HW212799   6.308   0.183   3.660 -1.5924  0.4068  2.0660
 4039SOL     OW12800   3.495   5.043   3.825 -0.3071 -0.3678  0.0119
 4039SOL    HW112801   3.551   4.970   3.796  0.2653 -0.7018  1.8424
 4039SOL    HW212802   3.495   5.037   3.920 -1.7562  0.9417  0.1330
 4040SOL     OW12803   3.930   6.647   1.476 -0.0265 -0.6788 -0.1829
 4040SOL    HW112804   4.022   6.642   1.499 -0.2337  1.8075  1.5875
 4040SOL    HW212805   3.929   6.683   1.387  0.8033  2.3311  0.8924
 4041SOL     OW12806   4.627   1.033   2.900 -0.5010  0.2690  0.0980
 4041SOL    HW112807   4.610   1.034   2.806  0.0768  0.4871 -0.0076
 4041SOL    HW212808   4.650   1.124   2.921  1.3895 -0.1679  0.0673
 4042SOL     OW12809   1.715   6.733   1.130  0.1358  0.1281 -0.0881
 4042SOL    HW112810   1.721   6.776   1.044  1.9548 -0.3078 -0.2126
 4042SOL    HW212811   1.662   6.792   1.183  0.6141  1.3636 -0.9520
 4043SOL     OW12812   6.456   1.257   2.752 -0.3573 -0.2216  0.0331
 4043SOL    HW112813   6.530   1.316   2.765  2.2332 -2.1690 -3.7993
 4043SOL    HW212814   6.402   1.300   2.685 -1.7684  0.3091  1.4371
 4044SOL     OW12815   2.568   3.913   1.960 -0.1901  0.3571  0.3979
 4044SOL    HW112816   2.499   3.939   2.021 -0.1245  0.7023  0.3306
 4044SOL    HW212817   2.545   3.956   1.878 -0.8430 -0.9549 -0.1204
 4045SOL     OW12818   3.920   2.808   5.798  0.0368 -0.4360  0.2139
 4045SOL    HW112819   3.987   2.777   5.859  0.2940 -0.2373  0.0334
 4045SOL    HW212820   3.886   2.887   5.838  0.8058  0.1722 -0.3082
 4046SOL     OW12821   5.217   4.971   1.291  0.0105  0.2819  0.1153
 4046SOL    HW112822   5.181   4.890   1.256  0.5381  0.4181 -0.7569
 4046SOL    HW212823   5.178   4.978   1.378  0.7560 -1.4508  0.6438
 4047SOL     OW12824   0.051   2.961   3.876  0.2159 -0.3656  0.7257
 4047SOL    HW112825   0.019   3.019   3.946  0.9740 -0.0442  0.8187
 4047SOL    HW212826   0.139   2.936   3.905  0.9223  0.5249 -0.5591
 4048SOL     OW12827   0.132   6.466   4.803 -0.1918  0.2954  0.5694
 4048SOL    HW112828   0.116   6.412   4.881  0.8756  0.1835  0.7273
 4048SOL    HW212829   0.120   6.556   4.833  0.3586  0.2607  0.9111
 4049SOL     OW12830   5.958   2.261   6.835  0.3000  0.3198  0.3459
 4049SOL    HW112831   5.866   2.287   6.836 -0.0982 -0.8990 -0.9676
 4049SOL    HW212832   5.996   2.309   6.761 -0.1077 -1.6427 -1.2009
 4050SOL     OW12833   1.227   6.116   6.807  0.1133  0.0252 -0.3776
 4050SOL    HW112834   1.209   6.208   6.788 -2.1041 -0.2611  0.0946
 4050SOL    HW212835   1.193   6.103   6.896 -0.6072 -1.4858 -0.8442
 4051SOL     OW12836   0.866   5.975   4.773 -0.0993 -0.1227 -0.6370
 4051SOL    HW112837   0.900   5.892   4.804  0.7861  0.4356 -0.0904
 4051SOL    HW212838   0.774   5.956   4.751  0.1887 -1.3211 -0.8851
 4052SOL     OW12839   0.289   4.836   0.909  0.0737  0.4173  0.0905
 4052SOL    HW112840   0.270   4.915   0.858 -0.4191  0.0158 -0.3510
 4052SOL    HW212841   0.333   4.778   0.848 -1.9661 -0.7210 -0.4034
 4053SOL     OW12842   0.957   0.356   2.752 -0.7497 -0.1460 -0.0394
 4053SOL    HW112843   0.862   0.354   2.760 -0.9408 -1.1374 -2.0168
 4053SOL    HW212844   0.981   0.266   2.731  0.6940 -0.0098  0.8578
 4054SOL     OW12845   2.764   1.450   1.185  0.2791 -0.3919 -0.6542
 4054SOL    HW112846   2.790   1.359   1.201 -0.7167 -0.9604 -2.0695
 4054SOL    HW212847   2.748   1.486   1.273 -1.2195 -2.1775 -0.1118
 4055SOL     OW12848   2.147   1.909   0.671 -0.1073  0.4075 -0.0344
 4055SOL    HW112849   2.200   1.830   0.684 -0.8940 -0.2601 -0.7384
 4055SOL    HW212850   2.209   1.973   0.636  0.5356  0.0957  0.5073
 4056SOL     OW12851   0.605   1.521   5.767  0.1668 -0.1983  0.2035
 4056SOL    HW112852   0.624   1.609   5.736 -0.6224 -0.0720  0.0370
 4056SOL    HW212853   0.512   1.524   5.791  0.0402 -1.0733 -0.1309
 4057SOL     OW12854   2.211   0.148   6.229  0.9137 -0.4760 -0.0499
 4057SOL    HW112855   2.121   0.170   6.251  1.3279  0.9038  0.4267
 4057SOL    HW212856   2.212   0.141   6.134 -0.2276 -3.2490  0.0424
 4058SOL     OW12857   3.234   4.455   1.737 -0.1450 -0.7985 -0.3051
 4058SOL    HW112858   3.190   4.374   1.709  1.6820 -1.8618 -0.2370
 4058SOL    HW212859   3.317   4.426   1.775  0.7732  1.1387 -0.7041
 4059SOL     OW12860   1.412   6.069   1.488 -0.2925  0.1654  0.1395
 4059SOL    HW112861   1.443   5.979   1.489  0.3345  0.3672 -0.6536
 4059SOL    HW212862   1.377   6.082   1.400  0.7227  1.0471 -0.1529
 4060SOL     OW12863   5.199   2.095   5.482 -0.0385 -0.2067  0.6908
 4060SOL    HW112864   5.219   2.010   5.523  1.6736 -0.7553 -1.1196
 4060SOL    HW212865   5.162   2.072   5.397 -1.2975  0.8971  0.9256
 4061SOL     OW12866   5.691   2.287   5.260  0.9038 -0.1210  0.5833
 4061SOL    HW112867   5.647   2.363   5.297  0.8226 -1.0876  2.6024
 4061SOL    HW212868   5.657   2.281   5.171 -0.7314  0.9430  1.0835
 4062SOL     OW12869   5.297   3.867   2.571 -0.3998  0.4783 -0.2077
 4062SOL    HW112870   5.374   3.877   2.516 -0.6933  0.7126 -0.5845
 4062SOL    HW212871   5.225   3.901   2.517 -0.4447  2.4435  0.9961
 4063SOL     OW12872   5.332   3.065   1.861  0.2353 -0.5633  0.4102
 4063SOL    HW112873   5.261   3.025   1.810  0.3997 -1.5136  0.8955
 4063SOL    HW212874   5.309   3.048   1.952  1.4669 -1.6339  0.5689
 4064SOL     OW12875   3.368   4.537   6.409 -0.5990 -0.1944 -0.1443
 4064SOL    HW112876   3.431   4.465   6.409 -1.0447 -0.5916 -1.0675
 4064SOL    HW212877   3.309   4.516   6.481  0.9854  0.8206  1.5749
 4065SOL     OW12878   3.559   2.118   3.647  0.1000  0.1689 -0.2998
 4065SOL    HW112879   3.537   2.046   3.588  1.5145 -1.4728  1.0777
 4065SOL    HW212880   3.645   2.148   3.618  2.3614 -2.7567  2.5781
 4066SOL     OW12881   6.280   5.667   1.666  0.2006 -0.4027  0.2258
 4066SOL    HW112882   6.220   5.633   1.600 -1.4238 -2.1361  2.4334
 4066SOL    HW212883   6.280   5.762   1.652 -0.7672 -0.6386 -1.6809
 4067SOL     OW12884   3.946   4.733   5.408  0.3877 -0.4619 -0.4249
 4067SOL    HW112885   3.961   4.656   5.463 -1.3164 -1.2526 -0.9840
 4067SOL    HW212886   3.918   4.801   5.470 -0.4826 -1.0291 -0.1787
 4068SOL     OW12887   1.288   5.390   6.367 -0.0517  0.5577  0.2446
 4068SOL    HW112888   1.343   5.386   6.445  1.7811  1.9327 -0.8973
 4068SOL    HW212889   1.246   5.476   6.371 -1.1849  0.0083  0.4797
 4069SOL     OW12890   0.214   3.961   2.306 -0.0958 -0.6142  0.5340
 4069SOL    HW112891   0.185   3.997   2.390  0.9026 -2.0522  1.5459
 4069SOL    HW212892   0.309   3.951   2.315  0.3506  1.0317 -1.5298
 4070SOL     OW12893   3.098   5.005   6.664 -0.1050 -0.1425  0.2512
 4070SOL    HW112894   3.100   5.009   6.568 -0.4982  0.2685  0.2587
 4070SOL    HW212895   3.184   4.971   6.688 -0.0556 -0.3940 -0.2533
 4071SOL     OW12896   3.656   6.454   4.813  0.2946 -0.3218 -0.0890
 4071SOL    HW112897   3.721   6.384   4.810  2.1318  1.2614  0.3314
 4071SOL    HW212898   3.574   6.413   4.786  1.0535 -2.8426  1.1792
 4072SOL     OW12899   1.320   1.620   0.465 -0.0271  0.1626  0.8809
 4072SOL    HW112900   1.290   1.529   0.464 -0.1016  0.1840  1.1445
 4072SOL    HW212901   1.399   1.619   0.410  0.1227 -0.1168  1.0941
 4073SOL     OW12902   5.368   0.619   3.813  0.0409  0.3433 -0.1370
 4073SOL    HW112903   5.418   0.599   3.892  0.0944  0.6278 -0.0976
 4073SOL    HW212904   5.426   0.676   3.762 -1.1557  2.7345  1.0244
 4074SOL     OW12905   6.082   6.438   6.754 -0.0582  0.1053 -0.6109
 4074SOL    HW112906   5.987   6.447   6.755  0.0185  1.3748  1.3806
 4074SOL    HW212907   6.099   6.358   6.705 -2.1790 -0.4611 -0.4790
 4075SOL     OW12908   0.573   1.083   0.099 -0.1542 -0.4650 -0.1043
 4075SOL    HW112909   0.492   1.042   0.071 -0.4769  0.2420 -0.2168
 4075SOL    HW212910   0.548   1.139   0.173  0.1529  0.0881 -0.4116
 4076SOL     OW12911   6.726   5.584   3.444  0.0034 -0.1900 -0.2703
 4076SOL    HW112912   6.698   5.562   3.533 -1.0597 -0.5634 -0.6803
 4076SOL    HW212913   6.655   5.552   3.388 -1.1954  3.3772 -1.0116
 4077SOL     OW12914   5.519   4.500   5.974 -0.0495 -0.2048 -0.0713
 4077SOL    HW112915   5.598   4.554   5.976 -0.2315  0.0565 -0.0261
 4077SOL    HW212916   5.542   4.424   6.028 -0.5584  0.8722  1.7451
 4078SOL     OW12917   2.145   1.025   1.851 -0.3518 -0.2847  0.0592
 4078SOL    HW112918   2.052   1.017   1.871 -0.5448  2.5320  0.6174
 4078SOL    HW212919   2.189   0.969   1.916 -1.5315  0.4522  1.5335
 4079SOL     OW12920   2.297   1.774   2.508 -0.0329 -0.3042 -0.2669
 4079SOL    HW112921   2.244   1.756   2.431 -1.7467  2.4271  0.1246
 4079SOL    HW212922   2.327   1.688   2.537 -1.8692 -1.7056 -2.1829
 4080SOL     OW12923   6.511   0.282   0.795  0.0321 -0.4794  0.2521
 4080SOL    HW112924   6.489   0.278   0.702  3.6306 -1.0052 -0.7373
 4080SOL    HW212925   6.579   0.350   0.800 -0.1305 -0.4096  2.5400
 4081SOL     OW12926   2.146   0.585   2.307 -0.5864  0.0505  0.0746
 4081SOL    HW112927   2.157   0.663   2.360 -1.5199 -0.3251  0.8473
 4081SOL    HW212928   2.055   0.559   2.321  0.2063 -2.3047  1.4540
 4082SOL     OW12929   4.448   4.593   5.256  0.5205  0.5016  0.3644
 4082SOL    HW112930   4.438   4.555   5.343  0.6866  0.3726  0.3279
 4082SOL    HW212931   4.398   4.675   5.259 -1.5985 -0.7027 -0.1989
 4083SOL     OW12932   5.492   3.727   1.449 -0.1723 -0.3410 -0.8006
 4083SOL    HW112933   5.503   3.733   1.544 -1.1604 -0.8157 -0.6440
 4083SOL    HW212934   5.540   3.803   1.415 -1.0071  0.6549  0.1689
 4084SOL     OW12935   4.101   5.536   6.269  0.1438 -0.1649  0.6312
 4084SOL    HW112936   4.125   5.591   6.195  0.1036  1.2337  1.6104
 4084SOL    HW212937   4.030   5.480   6.236  0.5957 -0.0489 -0.5549
 4085SOL     OW12938   0.333   0.990   0.158  0.4535  0.1122 -0.6532
 4085SOL    HW112939   0.250   0.964   0.198 -0.4556  0.4830 -2.2034
 4085SOL    HW212940   0.316   1.078   0.123  1.2841 -0.0649 -1.5434
 4086SOL     OW12941   0.511   3.367   0.230 -0.2719  0.1488  0.3010
 4086SOL    HW112942   0.462   3.324   0.299 -2.1813 -1.2005 -1.7482
 4086SOL    HW212943   0.502   3.309   0.154 -0.3028  2.6285 -1.7563
 4087SOL     OW12944   5.858   1.599   4.307  0.3697  0.1441  0.1888
 4087SOL    HW112945   5.912   1.522   4.285 -0.0061 -0.5721  1.6573
 4087SOL    HW212946   5.897   1.670   4.256  0.9662 -0.9316 -0.9232
 4088SOL     OW12947   1.436   6.843   2.998 -0.3377  0.2704 -0.3194
 4088SOL    HW112948   1.455   6.923   2.949  0.9199  0.6384  0.7044
 4088SOL    HW212949   1.429   6.872   3.090  0.0550 -0.7767  0.0553
 4089SOL     OW12950   2.384   3.173   4.075 -0.0291 -0.1633 -0.0840
 4089SOL    HW112951   2.395   3.163   3.981  1.1042  1.2312 -0.1277
 4089SOL    HW212952   2.289   3.184   4.087 -0.0749  0.8281 -1.1880
 4090SOL     OW12953   3.767   4.674   5.217 -0.3721  0.1453 -0.3062
 4090SOL    HW112954   3.809   4.670   5.302 -1.6514 -0.2610  0.3284
 4090SOL    HW212955   3.838   4.661   5.154  0.4220 -0.6389  0.7299
 4091SOL     OW12956   3.610   4.783   4.756 -0.4688 -0.0977  0.4118
 4091SOL    HW112957   3.600   4.749   4.845  0.2043 -0.6178  0.3015
 4091SOL    HW212958   3.690   4.835   4.759 -0.8545  0.5083  0.2887
 4092SOL     OW12959   1.461   6.782   5.422 -0.5383 -0.1054 -0.1369
 4092SOL    HW112960   1.515   6.830   5.360 -0.4735 -1.1453 -0.9224
 4092SOL    HW212961   1.489   6.813   5.509 -0.1686  0.8856 -0.5997
 4093SOL     OW12962   3.102   4.909   2.690  0.1766  0.0074 -0.5950
 4093SOL    HW112963   3.041   4.979   2.668  0.2768  0.4657  0.5367
 4093SOL    HW212964   3.049   4.829   2.685 -0.0124  0.1800 -1.5689
 4094SOL     OW12965   2.230   1.220   2.938  0.2863 -0.1613 -0.2722
 4094SOL    HW112966   2.180   1.301   2.924  1.0189  0.0695 -1.8149
 4094SOL    HW212967   2.239   1.214   3.033  0.7531  1.9170 -0.1222
 4095SOL     OW12968   5.720   5.008   6.882 -0.4297  0.1015 -0.1489
 4095SOL    HW112969   5.717   4.964   6.967  2.6076  0.1224  0.0775
 4095SOL    HW212970   5.740   4.938   6.820  0.0604  0.4889 -0.4342
 4096SOL     OW12971   1.044   0.984   3.070 -0.1429 -0.3850  0.2305
 4096SOL    HW112972   1.076   0.987   3.161 -0.5225 -1.2788  0.4079
 4096SOL    HW212973   1.059   0.894   3.043 -1.0155 -0.3955 -0.2339
 4097SOL     OW12974   5.218   1.980   1.856  0.2819  0.2900 -0.0977
 4097SOL    HW112975   5.264   1.896   1.858 -2.7610 -1.5112  1.1400
 4097SOL    HW212976   5.148   1.968   1.792  0.4594  2.3305 -0.7471
 4098SOL     OW12977   5.283   6.080   5.709  0.1475 -0.5815  0.1420
 4098SOL    HW112978   5.351   6.102   5.772  0.4395 -0.6819 -0.1344
 4098SOL    HW212979   5.329   6.076   5.625 -0.5544  1.5812 -0.4344
 4099SOL     OW12980   6.057   1.998   2.216 -0.3187 -0.0729  0.1233
 4099SOL    HW112981   6.057   2.014   2.311 -0.5866 -0.7064  0.2396
 4099SOL    HW212982   6.015   1.912   2.207 -2.4986  1.0088 -0.7522
 4100SOL     OW12983   3.394   1.395   6.126 -0.1205 -0.5385  0.0483
 4100SOL    HW112984   3.316   1.359   6.167  0.4194 -1.0836  0.6282
 4100SOL    HW212985   3.398   1.486   6.156 -1.9115  0.3252 -2.0338
 4101SOL     OW12986   0.919   4.661   5.107  0.7188  0.2884  0.2513
 4101SOL    HW112987   0.850   4.712   5.064  0.5641 -0.1301 -0.0029
 4101SOL    HW212988   0.994   4.668   5.048  0.6733  0.1570  0.1781
 4102SOL     OW12989   4.769   2.278   6.570 -0.0362 -0.5150  0.1243
 4102SOL    HW112990   4.707   2.204   6.573 -0.7251  0.0917  1.9764
 4102SOL    HW212991   4.737   2.339   6.636  0.5833  1.4374 -1.2934
 4103SOL     OW12992   4.968   1.492   4.391 -0.2326  0.1851 -0.1107
 4103SOL    HW112993   4.941   1.497   4.483  1.0058  1.7246  0.2317
 4103SOL    HW212994   5.057   1.456   4.394  0.1241  0.9895 -0.6156
 4104SOL     OW12995   5.657   4.200   4.234  0.6006 -0.5449 -0.0396
 4104SOL    HW112996   5.677   4.118   4.189  2.4583  0.4207 -1.0796
 4104SOL    HW212997   5.606   4.250   4.171  0.5229 -0.4100  0.1289
 4105SOL     OW12998   1.895   0.462   5.850 -0.2026 -0.3871  0.7880
 4105SOL    HW112999   1.878   0.518   5.775 -0.5044 -0.8592  0.4968
 4105SOL    HW213000   1.938   0.519   5.914 -1.7243  0.5093  1.0472
 4106SOL     OW13001   2.945   4.414   4.082  0.4424  0.6948 -0.1012
 4106SOL    HW113002   3.028   4.427   4.035  0.0098 -0.1396 -1.1232
 4106SOL    HW213003   2.966   4.434   4.173  1.7426  0.6106 -0.3615
 4107SOL     OW13004   0.701   6.455   5.915 -0.0357 -0.0020  0.3656
 4107SOL    HW113005   0.711   6.447   6.010 -1.2706 -2.9058  0.3478
 4107SOL    HW213006   0.762   6.391   5.878 -0.7001 -0.0354 -0.7324
 4108SOL     OW13007   1.341   3.676   0.360  0.4913  0.3742 -0.4003
 4108SOL    HW113008   1.347   3.608   0.292  0.7183 -0.6647  0.6315
 4108SOL    HW213009   1.314   3.629   0.438  0.5828  1.5028  0.3254
 4109SOL     OW13010   5.177   1.217   3.763 -0.1075 -0.4564 -0.1464
 4109SOL    HW113011   5.248   1.154   3.775  0.7299  0.6322  0.9140
 4109SOL    HW213012   5.205   1.272   3.690  0.0810 -0.1429  0.1536
 4110SOL     OW13013   4.972   3.466   1.973 -0.1032 -0.1677 -0.5006
 4110SOL    HW113014   4.900   3.403   1.982 -0.7118  0.7430  2.0752
 4110SOL    HW213015   5.050   3.416   2.000 -0.6839  0.2099  2.2476
 4111SOL     OW13016   1.072   5.570   3.966 -0.3314 -0.3674 -0.3580
 4111SOL    HW113017   1.081   5.580   3.871  0.4542 -0.8235 -0.3355
 4111SOL    HW213018   1.021   5.647   3.993  1.2813  0.9341 -0.8619
 4112SOL     OW13019   1.791   0.217   5.600 -0.1354 -0.2267 -0.6702
 4112SOL    HW113020   1.787   0.219   5.695  2.0352  0.3920 -0.5384
 4112SOL    HW213021   1.806   0.126   5.578 -2.0762 -0.6201 -0.5574
 4113SOL     OW13022   2.274   0.289   3.241  0.0971 -0.4300 -0.2296
 4113SOL    HW113023   2.360   0.258   3.212  0.2551  1.1727 -1.6049
 4113SOL    HW213024   2.212   0.248   3.181 -0.0485 -0.9767  0.2819
 4114SOL     OW13025   3.453   1.327   4.835 -0.1987  0.3898 -0.2513
 4114SOL    HW113026   3.443   1.329   4.739  0.5787 -2.2121 -0.4752
 4114SOL    HW213027   3.545   1.352   4.850 -0.1184  0.1009 -0.2542
 4115SOL     OW13028   3.239   1.168   6.859  0.3973  0.3690 -0.0959
 4115SOL    HW113029   3.282   1.120   6.788  1.5778  1.1153  0.1028
 4115SOL    HW213030   3.240   1.259   6.831  1.1338  0.7167  0.9833
 4116SOL     OW13031   3.117   5.984   0.150 -0.1273  0.2211  0.3482
 4116SOL    HW113032   3.111   6.080   0.147  1.3993  0.3272 -0.1103
 4116SOL    HW213033   3.106   5.957   0.059  1.8765  0.1594  0.0935
 4117SOL     OW13034   2.700   2.577   3.511  0.0895 -0.0996 -0.6280
 4117SOL    HW113035   2.758   2.616   3.577  2.2391 -0.7900 -2.0107
 4117SOL    HW213036   2.611   2.596   3.543  1.0337  1.8675  1.0768
 4118SOL     OW13037   4.665   6.146   2.340  0.0555 -0.3244 -0.1957
 4118SOL    HW113038   4.620   6.182   2.264 -1.1787 -0.1828  0.5638
 4118SOL    HW213039   4.710   6.222   2.378 -0.3744 -0.1198 -0.0808
 4119SOL     OW13040   3.026   1.510   6.477 -0.2212  0.0896  0.1831
 4119SOL    HW113041   2.936   1.523   6.508 -0.1316  0.2426  0.3874
 4119SOL    HW213042   3.063   1.599   6.473  0.6070 -0.1019  2.2267
 4120SOL     OW13043   5.677   0.197   5.734  0.1667  0.2951 -0.4012
 4120SOL    HW113044   5.665   0.282   5.692 -0.8981 -0.4328 -1.6534
 4120SOL    HW213045   5.616   0.139   5.689 -1.0137 -0.5809  2.1439
 4121SOL     OW13046   2.337   4.710   5.059 -0.0589 -0.5547  0.0798
 4121SOL    HW113047   2.288   4.644   5.108 -0.1483 -0.1938  0.4813
 4121SOL    HW213048   2.424   4.672   5.048 -0.2850 -0.9959 -0.2238
 4122SOL     OW13049   1.936   1.159   2.747  0.0701 -0.9776  0.0271
 4122SOL    HW113050   1.980   1.125   2.825  1.4535  1.4801  0.4203
 4122SOL    HW213051   1.869   1.218   2.781 -0.1071 -0.7777 -0.6509
 4123SOL     OW13052   4.173   3.097   5.872  0.2194  0.1617 -0.8065
 4123SOL    HW113053   4.208   3.129   5.789 -0.3374  1.7277 -0.4673
 4123SOL    HW213054   4.230   3.024   5.895 -0.3676 -1.1142 -3.1577
 4124SOL     OW13055   3.372   4.963   6.510  0.5675 -0.4669  0.1362
 4124SOL    HW113056   3.336   4.890   6.559 -0.8671  0.3219  0.3207
 4124SOL    HW213057   3.334   4.954   6.422  0.7574 -0.2076  0.0251
 4125SOL     OW13058   2.899   4.687   3.286  0.0370  0.1982 -0.2783
 4125SOL    HW113059   2.875   4.721   3.200  0.1804  1.7609  0.2607
 4125SOL    HW213060   2.961   4.617   3.267  0.0210  0.4723 -1.4489
 4126SOL     OW13061   3.070   6.893   6.247 -0.0924 -0.0079  0.4585
 4126SOL    HW113062   2.995   6.953   6.249  0.0659  0.1927  0.4683
 4126SOL    HW213063   3.032   6.808   6.226 -0.1134  0.4407 -1.5806
 4127SOL     OW13064   0.746   1.369   5.100  0.2547 -0.3251  0.2022
 4127SOL    HW113065   0.731   1.292   5.156 -1.6811  0.0331  0.2614
 4127SOL    HW213066   0.821   1.413   5.139  1.5790 -2.2793  0.0271
 4128SOL     OW13067   1.547   3.287   6.451  0.0583 -0.0426  0.0691
 4128SOL    HW113068   1.570   3.361   6.395 -0.9823  0.4507  0.2606
 4128SOL    HW213069   1.481   3.239   6.401 -1.3260  0.7381  1.0908
 4129SOL     OW13070   4.862   5.625   6.064  0.6083  0.5736 -0.1834
 4129SOL    HW113071   4.919   5.549   6.051 -0.4447 -0.5191  1.2533
 4129SOL    HW213072   4.923   5.697   6.078  1.7482 -0.6820  2.0131
 4130SOL     OW13073   0.508   6.361   4.432  0.2892 -0.4765  0.2907
 4130SOL    HW113074   0.560   6.345   4.510  0.5753 -3.4720 -0.4253
 4130SOL    HW213075   0.418   6.339   4.458  0.1447 -0.0674  0.1535
 4131SOL     OW13076   5.478   5.349   3.066  0.1639  0.3780 -0.3773
 4131SOL    HW113077   5.491   5.281   3.000  1.7665  2.2184 -2.1307
 4131SOL    HW213078   5.539   5.327   3.136  0.2890 -0.2658 -0.6791
 4132SOL     OW13079   6.047   4.360   5.609 -0.2635  0.3790  0.2865
 4132SOL    HW113080   6.036   4.454   5.594  0.0325  0.1517 -1.6105
 4132SOL    HW213081   5.960   4.329   5.633 -0.8058  0.8316 -1.0307
 4133SOL     OW13082   1.330   3.039   1.075  0.1634 -0.0138  0.2978
 4133SOL    HW113083   1.425   3.038   1.068  0.2149 -0.5841  0.9298
 4133SOL    HW213084   1.301   2.967   1.019 -0.0232  1.2947 -1.3311
 4134SOL     OW13085   4.060   3.367   1.010 -0.2938  0.1649  1.1070
 4134SOL    HW113086   4.051   3.315   1.090  0.7704  0.6918  1.5895
 4134SOL    HW213087   4.149   3.350   0.980 -0.0824  1.3522  1.0213
 4135SOL     OW13088   5.178   0.904   0.698 -0.2579  0.2511  0.0934
 4135SOL    HW113089   5.139   0.822   0.668  1.5458 -0.6727  0.1398
 4135SOL    HW213090   5.147   0.914   0.788  0.5452 -1.1172  0.5523
 4136SOL     OW13091   2.738   4.222   0.886  0.4810 -0.2795  0.2470
 4136SOL    HW113092   2.712   4.313   0.902  0.1296  0.1146 -2.1485
 4136SOL    HW213093   2.656   4.174   0.879  0.6357 -0.5460  0.2419
 4137SOL     OW13094   1.733   1.489   3.254 -0.1856 -0.4688  0.2479
 4137SOL    HW113095   1.644   1.454   3.250 -0.1315 -0.5962  0.1378
 4137SOL    HW213096   1.737   1.534   3.338 -0.8191  0.8011 -0.3711
 4138SOL     OW13097   1.333   1.875   0.284  0.2345 -0.1113  0.2496
 4138SOL    HW113098   1.289   1.833   0.210  1.4763 -0.1606 -0.4910
 4138SOL    HW213099   1.295   1.833   0.361 -1.5683  0.4187 -0.3154
 4139SOL     OW13100   1.490   5.816   3.946  0.1014 -0.4707  0.9315
 4139SOL    HW113101   1.464   5.726   3.964 -2.4554  0.2247  1.0963
 4139SOL    HW213102   1.466   5.864   4.026 -1.1603  0.7772 -0.1448
 4140SOL     OW13103   4.070   5.875   2.151 -0.1753  0.5069  0.2102
 4140SOL    HW113104   4.020   5.902   2.228 -1.5696 -1.9882  0.2868
 4140SOL    HW213105   4.005   5.838   2.091  1.3595 -1.4747 -0.3440
 4141SOL     OW13106   3.043   3.936   0.526  0.1108  0.2566 -0.0896
 4141SOL    HW113107   3.086   3.992   0.461  1.4335 -1.9313 -1.1877
 4141SOL    HW213108   2.967   3.900   0.481  0.2604 -0.2036  0.0205
 4142SOL     OW13109   4.309   4.303   4.005 -0.2090  0.0577  0.2869
 4142SOL    HW113110   4.230   4.267   4.045 -0.7434  0.9932  0.1048
 4142SOL    HW213111   4.284   4.392   3.979  0.8686  0.3212  0.1170
 4143SOL     OW13112   1.698   4.895   0.212 -0.6091  0.1979 -0.0458
 4143SOL    HW113113   1.760   4.898   0.139 -0.3325  0.7637  0.2076
 4143SOL    HW213114   1.617   4.861   0.173  0.0698 -1.2851 -0.2057
 4144SOL     OW13115   6.225   5.867   2.671 -0.6797  0.2576  0.0276
 4144SOL    HW113116   6.321   5.865   2.674 -0.6215 -0.6557 -1.4533
 4144SOL    HW213117   6.202   5.815   2.594 -2.4188 -0.4679  0.9748
 4145SOL     OW13118   6.585   4.474   0.686  0.2961 -0.3427  0.2672
 4145SOL    HW113119   6.625   4.434   0.763 -0.4007 -2.0561 -0.1995
 4145SOL    HW213120   6.534   4.403   0.646 -1.6532  1.2332 -0.2107
 4146SOL     OW13121   5.067   3.567   1.527  0.3202  0.0190  0.0890
 4146SOL    HW113122   5.127   3.565   1.453 -0.0858 -1.1138 -0.2224
 4146SOL    HW213123   5.067   3.478   1.562 -2.2119 -0.4180 -0.7713
 4147SOL     OW13124   3.636   2.806   6.018 -0.4108  0.2703  0.0692
 4147SOL    HW113125   3.626   2.901   6.022 -0.3883  0.2863 -0.2308
 4147SOL    HW213126   3.554   2.775   5.979  0.2947  0.3226 -1.5204
 4148SOL     OW13127   5.668   3.703   4.723  0.4282 -0.3826 -0.4539
 4148SOL    HW113128   5.756   3.708   4.761  0.7916 -1.8756 -1.0181
 4148SOL    HW213129   5.624   3.635   4.774 -0.7894  1.0488  0.5036
 4149SOL     OW13130   2.143   3.664   0.547  0.2011  0.4474  0.0579
 4149SOL    HW113131   2.072   3.648   0.609  0.9853  0.4387  0.9712
 4149SOL    HW213132   2.204   3.721   0.594  1.4211 -0.5561 -0.2480
 4150SOL     OW13133   5.097   1.687   4.053 -0.1192 -0.5423 -0.0660
 4150SOL    HW113134   5.151   1.726   4.122  1.7606  1.4474 -2.4577
 4150SOL    HW213135   5.149   1.612   4.021 -0.8996 -1.3528  0.5273
 4151SOL     OW13136   6.350   1.124   2.955 -0.2522 -0.1577  0.1555
 4151SOL    HW113137   6.413   1.080   3.012  0.7140  0.5718 -0.2933
 4151SOL    HW213138   6.404   1.160   2.884 -0.9670  1.7217  0.4958
 4152SOL     OW13139   2.007   2.029   5.508 -0.3556 -0.0783  0.2388
 4152SOL    HW113140   1.951   1.955   5.531 -0.7118  0.0196 -0.2860
 4152SOL    HW213141   2.042   2.006   5.422  1.8598 -0.9719  1.2971
 4153SOL     OW13142   5.833   2.976   6.592 -0.3104 -0.0194  0.1381
 4153SOL    HW113143   5.902   2.935   6.541 -0.2455  0.1781  0.0648
 4153SOL    HW213144   5.879   3.017   6.666  0.2379  3.5540 -1.9361
 4154SOL     OW13145   0.846   1.176   3.157 -0.4688  0.3867  0.2936
 4154SOL    HW113146   0.875   1.267   3.169 -0.7028  0.5952 -0.6701
 4154SOL    HW213147   0.923   1.130   3.126 -0.3774  0.2767  0.6822
 4155SOL     OW13148   3.387   4.203   3.571  0.0982 -0.6050  0.1970
 4155SOL    HW113149   3.434   4.220   3.489  0.6916 -2.3332  0.1435
 4155SOL    HW213150   3.341   4.121   3.556 -1.3097  0.0019  0.9892
 4156SOL     OW13151   4.613   1.103   4.779  0.4857 -0.2772  0.1895
 4156SOL    HW113152   4.541   1.045   4.802 -0.1664  0.0874 -0.8609
 4156SOL    HW213153   4.645   1.070   4.695  0.5323  0.4806 -0.1015
 4157SOL     OW13154   4.212   6.195   3.926  0.1312 -0.0458  0.4551
 4157SOL    HW113155   4.141   6.171   3.985  0.6055 -1.4205  0.5170
 4157SOL    HW213156   4.169   6.215   3.843 -0.4821  1.2344  1.0703
 4158SOL     OW13157   5.825   1.093   1.969 -0.1794  0.0968  0.1786
 4158SOL    HW113158   5.871   1.050   2.040  0.1713  1.5864  0.8949
 4158SOL    HW213159   5.863   1.180   1.964 -2.4441  1.1908  0.3896
 4159SOL     OW13160   4.757   6.281   6.490 -0.3854 -0.0066  0.3934
 4159SOL    HW113161   4.835   6.225   6.486  0.0784  0.5455  1.3595
 4159SOL    HW213162   4.702   6.251   6.417  0.7737 -0.3312 -0.3776
 4160SOL     OW13163   6.128   0.229   5.061 -0.6445 -0.3288 -0.0072
 4160SOL    HW113164   6.172   0.302   5.016  0.0453 -0.8905 -0.2656
 4160SOL    HW213165   6.159   0.151   5.015 -0.7841 -0.8344  0.7491
 4161SOL     OW13166   2.403   4.683   5.767 -0.3835  0.1650  0.4127
 4161SOL    HW113167   2.377   4.716   5.853 -0.4530  0.8433  0.1346
 4161SOL    HW213168   2.322   4.686   5.715 -0.0872  0.8669 -0.0166
 4162SOL     OW13169   2.208   3.894   3.231 -0.6556  0.7760 -0.1109
 4162SOL    HW113170   2.220   3.972   3.286  3.8489 -0.5055  1.1326
 4162SOL    HW213171   2.239   3.921   3.145 -1.7719  1.0561 -0.4426
 4163SOL     OW13172   3.249   4.781   3.865  0.0362 -0.0149 -0.0758
 4163SOL    HW113173   3.206   4.857   3.904  1.2570  0.9544 -0.5354
 4163SOL    HW213174   3.340   4.788   3.894  0.3063 -0.9469 -0.6538
 4164SOL     OW13175   1.951   6.161   1.935  0.5677  0.5288 -0.2118
 4164SOL    HW113176   1.984   6.072   1.922 -1.5708 -0.1331 -1.5853
 4164SOL    HW213177   1.857   6.151   1.947  0.2812  2.6064 -0.2949
 4165SOL     OW13178   5.168   1.543   1.731  0.2606 -0.4153  0.2333
 4165SOL    HW113179   5.090   1.507   1.773 -0.1629  0.6775  0.4149
 4165SOL    HW213180   5.135   1.593   1.656  0.8628 -0.7437 -0.2556
 4166SOL     OW13181   2.281   2.334   0.958  0.3036 -0.0335  0.6738
 4166SOL    HW113182   2.243   2.366   0.876 -1.1216  0.3839  1.4732
 4166SOL    HW213183   2.319   2.249   0.935 -1.0470 -0.4338 -0.2001
 4167SOL     OW13184   1.908   1.429   4.931 -0.3391 -0.4731  0.3267
 4167SOL    HW113185   1.935   1.337   4.931  0.8927 -0.1299  0.7034
 4167SOL    HW213186   1.885   1.447   5.022  0.2358 -0.1916  0.4225
 4168SOL     OW13187   2.497   2.566   6.405 -0.3831 -0.4271 -0.2172
 4168SOL    HW113188   2.420   2.510   6.399  0.1381 -1.5561  2.1888
 4168SOL    HW213189   2.463   2.651   6.434 -0.7896 -0.7409  0.2376
 4169SOL     OW13190   2.448   4.129   0.673  0.1558 -0.5843  0.3611
 4169SOL    HW113191   2.442   4.218   0.637  1.5525 -0.9374 -0.8363
 4169SOL    HW213192   2.453   4.142   0.768  1.8219  0.7402  0.1386
 4170SOL     OW13193   6.165   6.381   3.600  0.0025 -0.0793 -0.1662
 4170SOL    HW113194   6.247   6.368   3.552  1.8215  3.0883  1.7531
 4170SOL    HW213195   6.158   6.305   3.658  1.1614 -0.7459 -0.8704
 4171SOL     OW13196   5.523   5.361   2.288  0.2984  0.2567 -0.0581
 4171SOL    HW113197   5.471   5.377   2.210 -0.5130  1.5508  0.7133
 4171SOL    HW213198   5.514   5.441   2.340 -0.9814 -1.3608  2.3904
 4172SOL     OW13199   1.584   1.952   5.827  0.1814 -0.1434  0.1396
 4172SOL    HW113200   1.595   1.985   5.916  1.1703 -0.0913  0.0032
 4172SOL    HW213201   1.600   2.028   5.771 -0.8344 -0.0805 -0.0795
 4173SOL     OW13202   1.901   0.967   1.935 -0.5532 -0.0188  0.1442
 4173SOL    HW113203   1.848   0.947   1.858 -1.5977  0.4719  0.7149
 4173SOL    HW213204   1.870   0.906   2.002  1.5907 -1.6954 -0.2865
 4174SOL     OW13205   3.084   2.577   5.492  0.4874  0.3255  0.4657
 4174SOL    HW113206   3.017   2.645   5.501  0.8792  0.6518  0.9778
 4174SOL    HW213207   3.167   2.623   5.506  0.6858 -0.5033  2.3484
 4175SOL     OW13208   3.250   0.873   1.127  0.3636  0.0300 -0.1039
 4175SOL    HW113209   3.324   0.924   1.095  0.3419  0.0596 -0.1072
 4175SOL    HW213210   3.192   0.865   1.052  0.2056  0.2933 -0.0106
 4176SOL     OW13211   1.095   2.217   2.609  0.0003 -0.5698  0.1807
 4176SOL    HW113212   1.142   2.296   2.582  0.5313 -0.9089  0.0836
 4176SOL    HW213213   1.153   2.145   2.584 -0.7356 -1.0216 -0.2631
 4177SOL     OW13214   0.471   4.479   0.077 -0.3208  0.8274  0.4920
 4177SOL    HW113215   0.389   4.443   0.045 -0.0280 -1.8349  2.3543
 4177SOL    HW213216   0.450   4.513   0.164  0.3011  1.3660  0.4411
 4178SOL     OW13217   4.164   2.952   5.340 -0.1976  0.0337 -0.6493
 4178SOL    HW113218   4.137   3.033   5.296  0.7465  1.0757  0.5984
 4178SOL    HW213219   4.107   2.946   5.416 -0.4341 -0.6300 -0.8750
 4179SOL     OW13220   4.056   5.590   2.001  0.5184  0.6178 -0.2862
 4179SOL    HW113221   4.024   5.502   1.979 -1.0675  1.5239 -1.8723
 4179SOL    HW213222   3.982   5.632   2.045  0.6949  1.6796 -0.9761
 4180SOL     OW13223   3.612   2.982   1.728 -0.5204  0.3677 -0.2792
 4180SOL    HW113224   3.538   2.951   1.780  0.9192  0.2458  1.8123
 4180SOL    HW213225   3.657   2.903   1.699  0.0796  0.4290  0.4455
 4181SOL     OW13226   5.733   5.477   4.679  0.0809  0.1440 -0.2940
 4181SOL    HW113227   5.735   5.385   4.653 -1.1814 -0.3912  1.3845
 4181SOL    HW213228   5.652   5.487   4.728  0.4635  2.0363  0.0368
 4182SOL     OW13229   5.458   2.899   2.297  0.0026  0.0537 -0.1106
 4182SOL    HW113230   5.491   2.978   2.256  0.2052  0.1851  0.3006
 4182SOL    HW213231   5.518   2.830   2.268 -0.4320 -0.0391 -0.8274
 4183SOL     OW13232   0.980   5.520   3.021  0.2188  0.0708  0.2085
 4183SOL    HW113233   1.028   5.527   2.938  0.3850  1.2900  0.3821
 4183SOL    HW213234   0.901   5.573   3.007  0.4910  0.7096  0.9808
 4184SOL     OW13235   0.453   0.950   4.967  0.0213 -0.4233  0.0709
 4184SOL    HW113236   0.450   0.862   5.004  1.3299 -0.5196 -0.0035
 4184SOL    HW213237   0.402   1.004   5.028  0.2116 -1.0132  0.7637
 4185SOL     OW13238   1.178   6.468   6.163  0.3260  0.2642  0.1598
 4185SOL    HW113239   1.158   6.375   6.155 -0.9578  0.5964 -0.7161
 4185SOL    HW213240   1.239   6.473   6.237  0.5122 -1.2749  0.1366
 4186SOL     OW13241   1.794   3.810   6.387 -0.2431  0.0707 -0.1550
 4186SOL    HW113242   1.821   3.853   6.468  0.8382 -1.6197  0.4372
 4186SOL    HW213243   1.864   3.828   6.325 -0.0457 -0.3528 -0.0634
 4187SOL     OW13244   5.187   0.882   6.221  0.2217 -0.1928 -0.5596
 4187SOL    HW113245   5.196   0.850   6.131 -0.6950  2.2951 -1.6344
 4187SOL    HW213246   5.273   0.917   6.243  0.2606 -0.1955 -0.7061
 4188SOL     OW13247   3.652   4.272   3.652 -0.6170 -0.2056 -0.7906
 4188SOL    HW113248   3.706   4.200   3.683 -1.2334  0.0476  0.9581
 4188SOL    HW213249   3.569   4.231   3.628 -1.4096 -0.0005  1.3610
 4189SOL     OW13250   2.959   1.278   5.490 -0.2190  0.3609  0.0303
 4189SOL    HW113251   2.958   1.205   5.427  0.1989  1.3101 -1.1170
 4189SOL    HW213252   2.891   1.255   5.554 -0.8271 -0.5323 -0.8942
 4190SOL     OW13253   3.632   4.492   3.978  0.0821 -0.1194  0.3314
 4190SOL    HW113254   3.616   4.398   3.981 -2.6189  0.2596  0.5207
 4190SOL    HW213255   3.701   4.503   3.912 -1.0533 -2.0615 -1.2914
 4191SOL     OW13256   4.695   2.904   6.712  0.5172  0.4441 -0.1003
 4191SOL    HW113257   4.659   2.969   6.773 -0.9150 -0.5117  0.1231
 4191SOL    HW213258   4.787   2.896   6.737 -0.1479 -0.3437  2.3689
 4192SOL     OW13259   3.442   2.426   6.417  0.6450  0.2679  0.2324
 4192SOL    HW113260   3.487   2.350   6.453  1.2079 -0.2297 -1.4796
 4192SOL    HW213261   3.489   2.501   6.453  0.7726 -0.1962  1.0552
 4193SOL     OW13262   0.608   4.745   2.464  0.0810  0.3568 -0.2538
 4193SOL    HW113263   0.675   4.751   2.533 -0.8397  0.5729  0.6374
 4193SOL    HW213264   0.527   4.725   2.510 -0.7341  1.3934 -1.1758
 4194SOL     OW13265   2.914   2.948   4.663 -0.2547  0.0756  0.0745
 4194SOL    HW113266   2.866   3.007   4.722  1.4366  0.3400  1.2667
 4194SOL    HW213267   2.852   2.929   4.593 -1.9854  0.6474  1.3599
 4195SOL     OW13268   1.664   2.062   6.106  0.1720 -0.1227  0.0572
 4195SOL    HW113269   1.684   1.991   6.167 -2.0677  0.4390  1.5978
 4195SOL    HW213270   1.568   2.064   6.102  0.2155  0.9456 -2.2559
 4196SOL     OW13271   5.312   4.851   3.433 -0.7589  0.3420  0.0244
 4196SOL    HW113272   5.321   4.920   3.367  2.2178 -0.5141 -0.6123
 4196SOL    HW213273   5.348   4.889   3.513 -1.5577  0.3812  0.3694
 4197SOL     OW13274   3.809   0.297   6.215  0.2963  0.5494  0.0771
 4197SOL    HW113275   3.864   0.225   6.185 -0.7490 -1.0957  1.8907
 4197SOL    HW213276   3.838   0.314   6.305 -0.0089  1.8619 -0.0532
 4198SOL     OW13277   0.735   0.233   0.755 -0.0887  0.2604 -0.5205
 4198SOL    HW113278   0.688   0.164   0.801  0.1652  0.5699  0.2161
 4198SOL    HW213279   0.685   0.247   0.674  0.4129 -1.4789 -1.1751
 4199SOL     OW13280   1.083   3.276   3.672  0.3213 -0.0956 -0.2577
 4199SOL    HW113281   1.100   3.182   3.670  2.3006  0.1859  0.8432
 4199SOL    HW213282   1.044   3.295   3.587  0.4497 -1.8103 -0.7374
 4200SOL     OW13283   0.860   1.855   2.163 -0.3097  0.1930 -0.2460
 4200SOL    HW113284   0.925   1.854   2.091 -1.0580 -0.5147 -0.9299
 4200SOL    HW213285   0.793   1.792   2.136 -0.4372 -0.3553  1.2540
 4201SOL     OW13286   1.655   2.533   4.822 -0.5973 -0.3225 -0.3030
 4201SOL    HW113287   1.705   2.552   4.902 -0.1726 -1.8676 -0.1624
 4201SOL    HW213288   1.568   2.510   4.853 -0.6702 -0.0983 -0.3448
 4202SOL     OW13289   5.540   1.146   3.729 -0.1096 -0.1088  0.6945
 4202SOL    HW113290   5.473   1.077   3.729 -0.8034  0.5484 -0.0759
 4202SOL    HW213291   5.617   1.104   3.690 -0.0069 -0.9108  1.7097
 4203SOL     OW13292   5.478   2.878   0.297 -0.2746  0.7535  0.4447
 4203SOL    HW113293   5.400   2.934   0.303 -0.1831  0.8220  0.9838
 4203SOL    HW213294   5.447   2.799   0.253 -0.3736  1.2852 -0.4679
 4204SOL     OW13295   2.780   5.505   0.536  0.8007  0.2272  0.0487
 4204SOL    HW113296   2.786   5.474   0.445  1.1428 -0.6767  0.3720
 4204SOL    HW213297   2.802   5.598   0.531  0.3337  0.2972 -0.8642
 4205SOL     OW13298   1.430   6.705   2.114  0.0043 -0.0637  0.0664
 4205SOL    HW113299   1.362   6.765   2.083 -0.5813 -0.9019 -0.3049
 4205SOL    HW213300   1.430   6.633   2.050  2.2009  0.5738 -0.7129
 4206SOL     OW13301   1.857   6.309   3.840 -0.5395  0.0122  0.6789
 4206SOL    HW113302   1.811   6.257   3.906  1.0969 -0.5011  1.4626
 4206SOL    HW213303   1.909   6.244   3.792 -1.2859  0.4521 -0.8007
 4207SOL     OW13304   4.565   5.834   3.931 -0.7782 -0.7316 -0.0344
 4207SOL    HW113305   4.520   5.914   3.904 -1.4643 -0.5853  1.4468
 4207SOL    HW213306   4.649   5.865   3.965  0.1304 -0.9255 -2.0075
 4208SOL     OW13307   2.729   1.982   6.169  0.2164  0.0775 -0.0137
 4208SOL    HW113308   2.718   2.044   6.241  2.0020  1.8425 -1.1319
 4208SOL    HW213309   2.716   2.035   6.090  0.4280 -1.2992 -1.0071
 4209SOL     OW13310   0.344   5.111   3.216  0.4008  0.0177 -0.1774
 4209SOL    HW113311   0.343   5.173   3.143  2.0494 -0.3539 -0.5362
 4209SOL    HW213312   0.412   5.048   3.193 -0.8809 -1.6555  0.4272
 4210SOL     OW13313   3.244   6.885   4.085 -0.3238  0.1985 -0.6719
 4210SOL    HW113314   3.151   6.903   4.071 -0.3032  2.2977  1.2476
 4210SOL    HW213315   3.247   6.794   4.113 -1.6450 -0.2482 -1.8961
 4211SOL     OW13316   2.906   5.940   0.332  0.4262 -0.5719  0.7018
 4211SOL    HW113317   2.928   5.873   0.397 -1.3221 -1.9074 -0.0103
 4211SOL    HW213318   2.987   5.952   0.281  1.1277 -1.1874  1.6318
 4212SOL     OW13319   1.001   3.026   4.451 -0.3595 -0.0527  0.3018
 4212SOL    HW113320   1.081   2.995   4.493  0.3978 -0.3140 -1.2737
 4212SOL    HW213321   0.949   3.062   4.523  1.2549  0.3284  1.3319
 4213SOL     OW13322   6.181   3.448   1.473 -0.4588 -0.1551 -0.1244
 4213SOL    HW113323   6.140   3.522   1.518 -0.7920 -2.0035  2.8951
 4213SOL    HW213324   6.273   3.453   1.497 -0.5689 -0.9514  0.4999
 4214SOL     OW13325   0.641   5.933   3.913  0.7214 -0.2877 -0.7692
 4214SOL    HW113326   0.700   5.977   3.974  0.2909 -0.2013 -0.4088
 4214SOL    HW213327   0.646   5.986   3.833  0.7811 -0.0187 -0.5884
 4215SOL     OW13328   2.790   5.731   6.819 -0.3577  0.3217 -0.2054
 4215SOL    HW113329   2.826   5.814   6.786 -1.8809  0.6022 -1.2853
 4215SOL    HW213330   2.706   5.756   6.858  0.1654 -0.4286  1.4679
 4216SOL     OW13331   0.730   5.665   3.851 -0.6369  0.6814  0.0948
 4216SOL    HW113332   0.802   5.687   3.792  1.4287 -2.0400  1.3730
 4216SOL    HW213333   0.704   5.749   3.890  1.2682  1.8619 -1.0135
 4217SOL     OW13334   3.598   2.882   5.220 -0.5858 -0.3256  0.2466
 4217SOL    HW113335   3.539   2.949   5.186 -0.4729  0.3017  1.2570
 4217SOL    HW213336   3.542   2.804   5.230 -0.3081 -1.0225 -2.7283
 4218SOL     OW13337   5.342   0.206   4.600 -0.4543 -0.3022  0.2576
 4218SOL    HW113338   5.421   0.182   4.553 -1.2799  1.6940 -2.3574
 4218SOL    HW213339   5.332   0.137   4.666  3.5854 -0.4427  0.9809
 4219SOL     OW13340   2.391   2.452   3.174 -0.7071 -0.2870 -0.5290
 4219SOL    HW113341   2.419   2.414   3.257  0.1934  0.4136 -0.5030
 4219SOL    HW213342   2.297   2.468   3.185 -0.1257  2.4712  1.4712
 4220SOL     OW13343   1.842   1.394   1.068  0.2450 -0.3727  0.2679
 4220SOL    HW113344   1.856   1.455   1.140  1.1614 -0.7070  0.3777
 4220SOL    HW213345   1.928   1.382   1.029  0.0007 -1.2606 -0.0242
 4221SOL     OW13346   5.858   3.537   0.048 -0.5329  0.5045  0.0704
 4221SOL    HW113347   5.907   3.580   0.118 -1.8071  0.2692  1.1524
 4221SOL    HW213348   5.767   3.560   0.066 -0.9501 -0.1342 -1.1263
 4222SOL     OW13349   2.345   5.749   6.518  0.2056  0.4706  0.6237
 4222SOL    HW113350   2.343   5.671   6.462  2.8958  0.1827  0.7851
 4222SOL    HW213351   2.264   5.744   6.569  0.9190 -3.0657  1.6599
 4223SOL     OW13352   4.931   5.322   5.368  0.0206  0.4062 -0.0977
 4223SOL    HW113353   4.919   5.364   5.454 -1.2834  0.9786 -0.5398
 4223SOL    HW213354   4.889   5.382   5.306 -0.1134 -0.5978 -0.9947
 4224SOL     OW13355   4.729   0.964   6.806 -0.3129 -0.4252 -0.1688
 4224SOL    HW113356   4.751   0.892   6.866  1.2013 -0.2675 -0.4901
 4224SOL    HW213357   4.697   1.034   6.864  1.8300  0.0000  0.6001
 4225SOL     OW13358   4.193   1.127   2.239 -0.8662 -0.0523 -0.6120
 4225SOL    HW113359   4.135   1.204   2.240  0.5760  1.0869  0.4453
 4225SOL    HW213360   4.170   1.078   2.318  0.7165  1.3591  0.8271
 4226SOL     OW13361   0.026   6.255   5.826 -0.3780  0.1897 -0.1486
 4226SOL    HW113362   0.067   6.170   5.843  0.4461  0.8930  1.6703
 4226SOL    HW213363  -0.061   6.248   5.865 -0.7001 -0.1399 -0.9085
 4227SOL     OW13364   1.331   4.358   3.124 -0.4234 -0.0271 -0.0709
 4227SOL    HW113365   1.246   4.349   3.168 -0.4774  1.7386  0.2609
 4227SOL    HW213366   1.319   4.432   3.065  0.4013 -0.8252 -1.2718
 4228SOL     OW13367   4.945   0.304   2.268 -0.7819 -0.0331  0.7976
 4228SOL    HW113368   4.917   0.235   2.327 -0.3694 -0.6912  0.2315
 4228SOL    HW213369   5.027   0.336   2.305 -0.1754 -0.9031  0.2255
 4229SOL     OW13370   4.248   1.222   3.797  0.2792  0.0630 -0.2225
 4229SOL    HW113371   4.305   1.299   3.802 -0.7596  0.8799 -0.4625
 4229SOL    HW213372   4.213   1.224   3.707  0.3524 -0.7805 -0.2817
 4230SOL     OW13373   5.645   1.353   2.394 -0.8550  0.2509  0.2068
 4230SOL    HW113374   5.584   1.361   2.468  1.0063 -2.2135  2.1901
 4230SOL    HW213375   5.607   1.284   2.339 -0.7324 -0.0860  0.5370
 4231SOL     OW13376   5.713   5.467   0.239 -0.2255 -0.0428 -0.0469
 4231SOL    HW113377   5.679   5.381   0.262  0.5189 -0.1748  0.5959
 4231SOL    HW213378   5.809   5.457   0.242 -0.0505  1.4084  2.5718
 4232SOL     OW13379   3.389   4.917   5.478 -0.1777 -0.2704 -0.8792
 4232SOL    HW113380   3.427   4.911   5.390 -1.5922 -1.5689 -1.4354
 4232SOL    HW213381   3.303   4.957   5.464 -0.3645 -0.3831 -0.0773
 4233SOL     OW13382   2.665   2.607   5.417  0.1588 -0.0206 -0.1375
 4233SOL    HW113383   2.670   2.647   5.504  1.5193  0.9961 -0.6518
 4233SOL    HW213384   2.635   2.677   5.360  2.3403  0.2898 -1.0130
 4234SOL     OW13385   4.637   3.135   6.869  0.7330  0.2221  0.1391
 4234SOL    HW113386   4.580   3.212   6.868  2.8117  1.8512  0.7848
 4234SOL    HW213387   4.717   3.163   6.825  1.8931 -1.2653  1.1995
 4235SOL     OW13388   0.897   0.914   2.452 -0.4026 -0.5459 -0.1729
 4235SOL    HW113389   0.897   0.985   2.387 -1.2308  0.1702  0.5803
 4235SOL    HW213390   0.812   0.871   2.441 -0.8368  0.0046  0.8562
 4236SOL     OW13391   0.546   1.836   2.718 -0.6736  0.3630  0.1655
 4236SOL    HW113392   0.591   1.831   2.802  0.9433  2.1162 -0.5286
 4236SOL    HW213393   0.599   1.784   2.659 -1.3399 -0.1745  0.0328
 4237SOL     OW13394   3.521   4.166   0.870  0.1982  0.9344  0.0708
 4237SOL    HW113395   3.526   4.072   0.891  0.1727  0.6808 -1.0023
 4237SOL    HW213396   3.591   4.205   0.923 -1.3661  0.7099  2.4375
 4238SOL     OW13397   6.049   3.187   6.570  0.6665 -0.2605 -0.2168
 4238SOL    HW113398   5.956   3.197   6.588  0.6421 -2.2899  1.2091
 4238SOL    HW213399   6.092   3.253   6.623  0.1393 -1.1170  1.3310
 4239SOL     OW13400   0.910   2.927   1.427  0.3551 -0.3875  0.2129
 4239SOL    HW113401   0.946   3.012   1.452  0.0970  0.5522 -2.3553
 4239SOL    HW213402   0.951   2.865   1.487  0.0993  1.5714  2.5530
 4240SOL     OW13403   1.585   2.540   4.096  0.1065  0.3704  0.3641
 4240SOL    HW113404   1.510   2.512   4.043 -0.4835 -1.0136  1.8509
 4240SOL    HW213405   1.650   2.568   4.032 -1.2293  0.4717 -1.0147
 4241SOL     OW13406   3.114   3.688   1.173  0.3665  0.4650 -0.6427
 4241SOL    HW113407   3.188   3.740   1.202 -0.2827  0.3894  1.2714
 4241SOL    HW213408   3.051   3.693   1.245 -1.0785 -0.2906 -1.7917
 4242SOL     OW13409   3.518   2.723   3.502  0.1315  0.2309 -0.0205
 4242SOL    HW113410   3.512   2.803   3.450 -0.0598  0.3891  0.2451
 4242SOL    HW213411   3.604   2.686   3.481 -0.1437  0.0337 -0.8367
 4243SOL     OW13412   4.977   1.302   5.002  0.0138  0.1394  0.4348
 4243SOL    HW113413   4.947   1.231   4.946  0.4512  0.8936 -0.8077
 4243SOL    HW213414   5.053   1.337   4.957  1.0001  0.1445  2.0300
 4244SOL     OW13415   3.279   3.730   0.490 -0.0587 -0.0749  0.1143
 4244SOL    HW113416   3.210   3.773   0.540 -0.4451  0.6558 -1.0074
 4244SOL    HW213417   3.276   3.638   0.518 -0.8513  0.1456  0.7626
 4245SOL     OW13418   6.701   4.893   6.523  0.1352 -0.6257 -0.3720
 4245SOL    HW113419   6.666   4.910   6.610  0.4023 -0.0461 -0.3710
 4245SOL    HW213420   6.666   4.963   6.468 -0.3705 -1.2267 -0.8294
 4246SOL     OW13421   5.776   2.997   3.667 -0.4541  0.6432  0.0538
 4246SOL    HW113422   5.867   3.020   3.652 -1.1657  1.5137 -4.2193
 4246SOL    HW213423   5.779   2.909   3.705  2.1052  0.9440  0.7052
 4247SOL     OW13424   3.869   5.487   0.780 -0.6529  0.0615  0.1371
 4247SOL    HW113425   3.788   5.448   0.814  0.9683 -4.5537 -0.5466
 4247SOL    HW213426   3.864   5.473   0.685  1.0538 -0.6757  0.1222
 4248SOL     OW13427   5.002   3.009   0.125  0.0257 -0.7270  0.4319
 4248SOL    HW113428   4.923   3.061   0.138 -0.1974 -0.3627 -1.9643
 4248SOL    HW213429   5.074   3.067   0.152 -0.3024  0.4387 -1.0734
 4249SOL     OW13430   1.750   6.129   4.007 -0.2221 -0.6504 -0.2753
 4249SOL    HW113431   1.787   6.094   4.088 -0.7848 -0.8717 -0.1094
 4249SOL    HW213432   1.718   6.052   3.960  1.3245 -0.6727 -1.3492
 4250SOL     OW13433   3.463   5.287   4.297  0.5616  0.0914  0.1039
 4250SOL    HW113434   3.493   5.213   4.243  0.9455  0.8109 -0.6861
 4250SOL    HW213435   3.469   5.254   4.387 -0.7338 -1.3622 -0.2911
 4251SOL     OW13436   1.027   4.009   2.742  0.5061 -0.1305 -0.0978
 4251SOL    HW113437   1.059   4.099   2.733 -0.5918  0.1908 -1.0497
 4251SOL    HW213438   0.991   3.988   2.656 -0.2441 -1.0935  0.4302
 4252SOL     OW13439   4.895   0.319   6.680  0.7809 -0.1534 -0.4843
 4252SOL    HW113440   4.975   0.342   6.633  0.3273 -0.1703 -1.2734
 4252SOL    HW213441   4.836   0.286   6.613 -0.1489  0.5171 -0.0183
 4253SOL     OW13442   3.761   2.997   5.420 -0.4654  0.2866  0.2224
 4253SOL    HW113443   3.707   2.952   5.355 -0.0965  0.6202 -0.3202
 4253SOL    HW213444   3.699   3.027   5.486 -1.0494  1.2309 -0.7210
 4254SOL     OW13445   0.243   6.121   2.830  0.0058 -0.0190 -0.3725
 4254SOL    HW113446   0.319   6.179   2.841  0.8277 -0.8645 -1.3405
 4254SOL    HW213447   0.168   6.178   2.845  0.7964  1.2146 -0.8616
 4255SOL     OW13448   1.696   2.247   0.725 -0.3185  0.4285 -0.2277
 4255SOL    HW113449   1.666   2.168   0.770 -0.6273 -0.6575 -2.2579
 4255SOL    HW213450   1.788   2.256   0.751  0.2468 -1.6386 -1.3560
 4256SOL     OW13451   3.900   5.588   2.959 -0.0486 -0.1659  0.2857
 4256SOL    HW113452   3.965   5.657   2.943  0.7042 -0.8515  0.2777
 4256SOL    HW213453   3.816   5.630   2.944  0.4720 -0.0846 -3.1071
 4257SOL     OW13454   4.505   1.260   6.122 -0.0558 -0.7248 -0.8451
 4257SOL    HW113455   4.480   1.340   6.167 -1.2693 -1.0810 -0.8539
 4257SOL    HW213456   4.601   1.258   6.127 -0.1388 -0.7048  1.6113
 4258SOL     OW13457   3.687   1.633   1.379  0.2901  0.1439  0.3724
 4258SOL    HW113458   3.714   1.706   1.322  1.0574  0.1965  0.7864
 4258SOL    HW213459   3.639   1.575   1.321 -0.9847  1.3257  0.1874
 4259SOL     OW13460   4.528   5.670   5.440 -0.2099 -0.4107  0.1162
 4259SOL    HW113461   4.620   5.676   5.415 -0.1862  1.1002  0.4427
 4259SOL    HW213462   4.526   5.606   5.511  0.9935  1.2799  1.7457
 4260SOL     OW13463   0.460   4.650   0.718 -0.3661  0.0303  0.2178
 4260SOL    HW113464   0.398   4.613   0.655  0.3581 -1.7590  0.4931
 4260SOL    HW213465   0.502   4.722   0.671 -1.3748  0.1261 -0.5747
 4261SOL     OW13466   1.165   2.802   6.605 -0.4186  0.5888  0.0138
 4261SOL    HW113467   1.071   2.810   6.591 -0.8921 -0.6305  2.0737
 4261SOL    HW213468   1.180   2.708   6.616  0.9797  0.8048  0.1137
 4262SOL     OW13469   1.540   4.318   2.817 -0.3986 -0.3753 -0.1439
 4262SOL    HW113470   1.514   4.409   2.830  0.4215 -0.0257 -0.8259
 4262SOL    HW213471   1.635   4.322   2.804 -0.2886 -1.3786  0.2796
 4263SOL     OW13472   1.235   1.750   0.076  0.2925  0.7309  0.2809
 4263SOL    HW113473   1.219   1.741  -0.018  1.3355 -0.3755  0.1849
 4263SOL    HW213474   1.147   1.754   0.114 -0.3504 -2.6340 -0.4424
 4264SOL     OW13475   2.395   4.582   1.812  1.1394 -0.2056 -0.4722
 4264SOL    HW113476   2.333   4.589   1.739  0.3468  1.4756  0.2912
 4264SOL    HW213477   2.372   4.655   1.870  3.4878  0.1387  0.1402
 4265SOL     OW13478   3.289   3.041   6.029 -0.1788  0.8759  0.3070
 4265SOL    HW113479   3.228   3.030   6.101  0.6383  1.0319  1.0432
 4265SOL    HW213480   3.262   2.976   5.964 -0.9898  0.8099  0.7059
 4266SOL     OW13481   2.219   3.194   0.380  0.0196 -0.3135  0.1200
 4266SOL    HW113482   2.294   3.241   0.417 -0.8350  2.1987 -1.0964
 4266SOL    HW213483   2.148   3.258   0.383 -0.8237 -0.9346 -3.1094
 4267SOL     OW13484   6.891   1.772   5.094  0.7200 -0.1971 -0.3206
 4267SOL    HW113485   6.948   1.849   5.101  1.6608 -0.8118 -0.9388
 4267SOL    HW213486   6.907   1.724   5.175  2.3566 -1.1890 -1.1898
 4268SOL     OW13487   2.016   0.845   0.041  0.5076 -0.0568 -0.0180
 4268SOL    HW113488   2.098   0.894   0.042  0.2449  0.3818  1.3872
 4268SOL    HW213489   2.033   0.771  -0.018  1.5795  0.5589 -0.5106
 4269SOL     OW13490   1.138   0.715   3.072  0.1993  0.4464  0.3265
 4269SOL    HW113491   1.097   0.638   3.032  1.3563 -0.5309  0.9558
 4269SOL    HW213492   1.221   0.683   3.108 -0.1590  1.5566  2.3200
 4270SOL     OW13493   0.427   1.955   4.169 -0.6596  0.5112 -0.4335
 4270SOL    HW113494   0.391   1.968   4.257 -1.4833 -0.6349 -0.5905
 4270SOL    HW213495   0.351   1.937   4.114 -0.2708  2.2141 -1.6138
 4271SOL     OW13496   3.701   6.622   5.403 -0.7020 -0.3577 -0.1092
 4271SOL    HW113497   3.760   6.579   5.466 -0.7755  0.2056  0.3537
 4271SOL    HW213498   3.658   6.550   5.358  1.3357 -0.8378 -1.4369
 4272SOL     OW13499   0.987   2.183   2.882 -0.0500 -0.3997  0.6262
 4272SOL    HW113500   1.042   2.203   2.807 -1.6265  0.2833 -0.4024
 4272SOL    HW213501   1.020   2.239   2.952  1.1233 -0.6797  0.3111
 4273SOL     OW13502   5.222   5.381   5.316  0.4582  0.0233 -0.1086
 4273SOL    HW113503   5.233   5.459   5.371  0.5196  0.0894 -0.2148
 4273SOL    HW213504   5.127   5.371   5.307  0.4525  0.1769 -0.2250
 4274SOL     OW13505   6.082   6.535   4.931 -0.1547 -0.2383  0.1033
 4274SOL    HW113506   6.122   6.545   5.017 -0.8563 -1.2319  0.5690
 4274SOL    HW213507   6.006   6.479   4.946 -1.7855  1.6269 -0.7432
 4275SOL     OW13508   6.132   6.483   1.551 -0.1473  0.2027 -0.1113
 4275SOL    HW113509   6.185   6.487   1.472 -1.0759 -1.3239 -0.8537
 4275SOL    HW213510   6.050   6.526   1.527 -0.0110  0.7860  0.4190
 4276SOL     OW13511   5.009   2.392   1.734  0.0196 -0.4124  0.1972
 4276SOL    HW113512   5.079   2.382   1.670 -1.0141 -0.9606 -0.9076
 4276SOL    HW213513   5.032   2.470   1.784 -0.1431  1.3435 -2.2462
 4277SOL     OW13514   3.830   5.711   2.103 -0.3238  0.1812  0.2887
 4277SOL    HW113515   3.809   5.643   2.168  0.8641  1.0387  1.6410
 4277SOL    HW213516   3.777   5.786   2.129 -1.0202  0.0524 -0.7099
 4278SOL     OW13517   2.736   6.051   1.115  0.2403  0.0631 -0.2150
 4278SOL    HW113518   2.710   6.118   1.053  1.1534  0.3342 -0.3254
 4278SOL    HW213519   2.779   6.099   1.186  1.2127 -0.4210 -0.4644
 4279SOL     OW13520   0.866   1.589   2.338 -0.2349 -0.4464 -0.3891
 4279SOL    HW113521   0.890   1.590   2.431 -0.5479  1.0568 -0.2886
 4279SOL    HW213522   0.891   1.676   2.306  2.0776 -1.7327 -2.3275
 4280SOL     OW13523   1.510   2.161   2.652  0.0564 -0.2159  0.6037
 4280SOL    HW113524   1.559   2.170   2.570  0.0544  0.8764  0.7118
 4280SOL    HW213525   1.578   2.150   2.719  0.0565 -1.1552  0.4648
 4281SOL     OW13526   6.644   5.011   3.135  0.2809 -0.0851  0.3284
 4281SOL    HW113527   6.706   5.082   3.119 -0.7675  0.9227  0.5907
 4281SOL    HW213528   6.602   4.996   3.050  2.5852 -2.5371 -0.5290
 4282SOL     OW13529   5.760   6.106   5.774  0.3851  0.9310 -0.6672
 4282SOL    HW113530   5.849   6.141   5.774  1.8778 -2.5391 -0.4658
 4282SOL    HW213531   5.756   6.048   5.698 -0.9522 -0.6437  0.5302
 4283SOL     OW13532   6.408   4.047   4.270  0.2144  0.1483  0.0227
 4283SOL    HW113533   6.388   4.051   4.177  0.5046 -0.3892 -0.0660
 4283SOL    HW213534   6.378   3.960   4.297  0.4238  0.1796  0.3643
 4284SOL     OW13535   3.764   3.018   0.443  0.4191  0.0393  0.2975
 4284SOL    HW113536   3.828   2.999   0.375 -0.3622  1.6880 -0.9965
 4284SOL    HW213537   3.710   2.939   0.448  1.5700 -0.7656  0.2864
 4285SOL     OW13538   3.064   4.865   5.782  0.1584  0.2439  0.4541
 4285SOL    HW113539   3.064   4.912   5.865  1.7223 -1.2193  1.3364
 4285SOL    HW213540   3.153   4.832   5.773 -0.9478 -3.1166  0.2650
 4286SOL     OW13541   4.560   2.289   0.361 -0.4491 -0.8355  0.3207
 4286SOL    HW113542   4.579   2.302   0.268 -0.5725 -1.7702  0.1640
 4286SOL    HW213543   4.465   2.299   0.368 -0.4918 -1.2104  0.2738
 4287SOL     OW13544   2.619   3.278   6.530 -0.1586 -0.3224  0.7094
 4287SOL    HW113545   2.566   3.229   6.467  2.2047 -1.1779 -0.7708
 4287SOL    HW213546   2.684   3.215   6.560  1.1789  1.1288  1.0061
 4288SOL     OW13547   1.432   0.308   6.802 -0.3762  0.5568  0.1412
 4288SOL    HW113548   1.466   0.298   6.891  0.4360  0.9478 -0.1106
 4288SOL    HW213549   1.507   0.288   6.746 -0.8089  0.5870 -0.4501
 4289SOL     OW13550   0.036   1.508   6.884  0.0694 -0.1927  0.5592
 4289SOL    HW113551  -0.002   1.499   6.971 -0.7391  0.0155  0.2397
 4289SOL    HW213552   0.017   1.425   6.840 -1.9858  0.6702 -0.3280
 4290SOL     OW13553   0.048   5.645   6.284 -0.1684  0.1739 -0.2049
 4290SOL    HW113554   0.089   5.694   6.213  0.6882 -0.0761  0.1013
 4290SOL    HW213555  -0.044   5.641   6.260  0.2646 -0.8814 -1.8870
 4291SOL     OW13556   1.795   2.590   5.720  0.4133  0.3744 -0.2704
 4291SOL    HW113557   1.819   2.679   5.747  0.5987  1.0067 -2.3348
 4291SOL    HW213558   1.699   2.593   5.712  0.2135 -0.2127  1.5295
 4292SOL     OW13559   0.516   0.346   4.699 -0.0255  0.4017 -0.1124
 4292SOL    HW113560   0.590   0.401   4.724  0.4930  1.3485 -3.3001
 4292SOL    HW213561   0.521   0.271   4.758  2.1612  1.4518  1.1702
 4293SOL     OW13562   5.308   2.118   3.337  0.1789  0.0852  0.2077
 4293SOL    HW113563   5.385   2.096   3.388 -0.6636 -0.8425  1.1225
 4293SOL    HW213564   5.235   2.110   3.399 -0.6974  0.5366 -0.7333
 4294SOL     OW13565   0.365   1.308   3.555  0.0109  0.1523 -0.1492
 4294SOL    HW113566   0.414   1.281   3.477  0.4439 -1.9237  0.7694
 4294SOL    HW213567   0.388   1.400   3.567 -0.1433  0.5517 -2.5027
 4295SOL     OW13568   3.580   6.501   6.373  0.2371  0.8064 -0.1070
 4295SOL    HW113569   3.639   6.557   6.423  0.0096  0.9954 -0.0481
 4295SOL    HW213570   3.493   6.517   6.410  0.3003 -0.3587  0.6099
 4296SOL     OW13571   4.534   0.652   4.029 -0.1600  0.4880 -0.4618
 4296SOL    HW113572   4.466   0.699   3.980  0.3036  1.6077 -0.0605
 4296SOL    HW213573   4.606   0.714   4.036  0.8149 -0.5957 -0.6507
 4297SOL     OW13574   6.838   5.177   4.493 -0.8652 -0.0469  0.5079
 4297SOL    HW113575   6.852   5.084   4.474 -1.0163  0.2534 -1.3229
 4297SOL    HW213576   6.914   5.203   4.544  0.1111 -0.7928 -0.4994
 4298SOL     OW13577   2.747   2.935   0.088  0.2510  0.4206 -0.5772
 4298SOL    HW113578   2.707   2.951   0.003  0.6710 -0.9107 -1.0581
 4298SOL    HW213579   2.732   2.841   0.104 -0.4918  0.7887  1.1678
 4299SOL     OW13580   4.114   3.013   4.532  0.4301  0.1299  0.2899
 4299SOL    HW113581   4.068   2.944   4.579  0.6894  1.4819  2.6798
 4299SOL    HW213582   4.186   3.038   4.590  1.4984  1.0951 -1.3781
 4300SOL     OW13583   4.152   2.000   4.843 -0.8979  0.4342  0.0598
 4300SOL    HW113584   4.124   1.913   4.871 -1.5621 -0.0652 -2.0202
 4300SOL    HW213585   4.099   2.019   4.766  0.9109  1.6597 -0.9537
 4301SOL     OW13586   3.046   0.976   0.956 -0.1245 -0.4504 -0.0443
 4301SOL    HW113587   3.007   1.063   0.953 -0.6520 -0.6141  1.3330
 4301SOL    HW213588   2.987   0.921   0.906  0.4427  0.0479 -1.2972
 4302SOL     OW13589   5.965   1.176   3.676  0.1989 -0.0459  0.0031
 4302SOL    HW113590   5.936   1.263   3.704  1.0619 -0.2252  1.5882
 4302SOL    HW213591   6.050   1.192   3.634 -0.2586  0.0101 -0.9246
 4303SOL     OW13592   0.257   0.665   5.501 -0.3616  0.0842 -0.5021
 4303SOL    HW113593   0.288   0.703   5.419  0.0101 -0.0203 -0.4131
 4303SOL    HW213594   0.164   0.689   5.506  0.0564  1.7399 -0.0201
 4304SOL     OW13595   3.769   2.978   4.664  0.0993 -0.2033 -0.5814
 4304SOL    HW113596   3.735   3.055   4.617  0.1316  0.3534  0.2763
 4304SOL    HW213597   3.786   3.010   4.753  1.7847 -0.7655 -0.6672
 4305SOL     OW13598   2.624   5.427   6.588 -0.4682  0.1548  0.2138
 4305SOL    HW113599   2.621   5.520   6.566  0.5866  0.0983 -0.1825
 4305SOL    HW213600   2.677   5.423   6.668  0.2243 -0.1927 -0.2598
 4306SOL     OW13601   3.582   5.610   2.456  0.2167  0.1204  0.0244
 4306SOL    HW113602   3.503   5.585   2.505 -0.0275  0.8670  0.0317
 4306SOL    HW213603   3.653   5.604   2.520 -0.0422  0.7039  0.3832
 4307SOL     OW13604   5.979   5.446   4.037  0.1106 -0.7017 -0.3392
 4307SOL    HW113605   5.987   5.381   3.967 -1.1777 -1.9271  0.5988
 4307SOL    HW213606   6.041   5.417   4.103  0.1025 -0.5115 -0.2477
 4308SOL     OW13607   1.538   5.802   1.819 -0.2306 -0.1886  0.5336
 4308SOL    HW113608   1.591   5.750   1.879  1.2528 -0.5289 -0.9704
 4308SOL    HW213609   1.448   5.784   1.843  0.2657 -2.3940  0.9455
 4309SOL     OW13610   6.009   4.304   0.027  0.3353  0.2350 -0.0502
 4309SOL    HW113611   6.035   4.231   0.083 -0.9523  0.7632  1.3203
 4309SOL    HW213612   5.972   4.263  -0.051  0.9392 -0.5455  0.0634
 4310SOL     OW13613   0.882   3.775   6.724 -0.0077 -0.2083 -0.6970
 4310SOL    HW113614   0.976   3.778   6.706 -0.1318  1.4055 -1.1893
 4310SOL    HW213615   0.875   3.802   6.816  0.0010 -0.0587 -0.7392
 4311SOL     OW13616   4.099   2.535   1.436 -0.2753  0.2494  0.8249
 4311SOL    HW113617   4.150   2.517   1.515  1.9202  1.4152 -0.2591
 4311SOL    HW213618   4.082   2.629   1.439 -0.8324  0.1715  0.2667
 4312SOL     OW13619   3.637   2.402   4.346 -0.2887  0.0090 -0.1976
 4312SOL    HW113620   3.543   2.404   4.328 -0.1708  0.0311 -0.8150
 4312SOL    HW213621   3.677   2.445   4.271  0.2646 -0.6195 -0.2650
 4313SOL     OW13622   3.103   3.276   0.875  0.1184  0.3072 -0.1542
 4313SOL    HW113623   3.102   3.370   0.856 -3.1883  0.4425  0.0263
 4313SOL    HW213624   3.101   3.271   0.971  0.0194  0.0640 -0.1684
 4314SOL     OW13625   2.779   3.154   2.531  0.1180  0.2853  0.2454
 4314SOL    HW113626   2.836   3.230   2.542 -0.1728  0.6678 -0.8194
 4314SOL    HW213627   2.690   3.189   2.539 -0.0172  0.0623 -0.2377
 4315SOL     OW13628   4.843   4.428   5.145  0.6326  0.2851 -0.5772
 4315SOL    HW113629   4.787   4.496   5.184 -0.3943 -1.0322  0.3300
 4315SOL    HW213630   4.797   4.404   5.065  1.1405  0.8273 -1.0416
 4316SOL     OW13631   5.701   6.552   5.003  0.3619 -0.2622 -0.0057
 4316SOL    HW113632   5.660   6.535   5.088  0.1791 -0.6976 -0.1787
 4316SOL    HW213633   5.680   6.643   4.984  0.9654  0.0390  0.7211
 4317SOL     OW13634   1.841   6.207   0.352  0.4652 -0.0689  0.4288
 4317SOL    HW113635   1.914   6.189   0.293 -0.1813 -2.2213  0.2135
 4317SOL    HW213636   1.766   6.163   0.312 -0.5728  0.6313  1.5342
 4318SOL     OW13637   1.374   5.359   4.351  0.3643  0.0873 -0.2666
 4318SOL    HW113638   1.292   5.377   4.306  0.7597  0.2721 -0.9331
 4318SOL    HW213639   1.433   5.429   4.323  0.3817  0.7066  1.2188
 4319SOL     OW13640   0.299   6.879   3.915 -0.2923 -0.2661  0.1540
 4319SOL    HW113641   0.297   6.902   4.008 -0.3759  0.3800 -0.0015
 4319SOL    HW213642   0.323   6.960   3.871  0.6246 -0.7898 -0.3267
 4320SOL     OW13643   4.877   4.369   0.592  0.2743 -0.0283  0.5255
 4320SOL    HW113644   4.910   4.359   0.681  0.2496 -1.8949  0.3666
 4320SOL    HW213645   4.880   4.280   0.555 -1.3204  0.3964 -0.7593
 4321SOL     OW13646   6.261   4.658   6.603 -0.1143 -0.0132 -0.0971
 4321SOL    HW113647   6.244   4.726   6.668 -1.2707 -1.3194  1.0487
 4321SOL    HW213648   6.246   4.700   6.518  1.6415  1.7913  0.4161
 4322SOL     OW13649   5.052   1.272   2.107 -0.4047 -0.0301  0.4898
 4322SOL    HW113650   5.040   1.366   2.093 -1.7591 -0.4365 -1.3940
 4322SOL    HW213651   5.010   1.256   2.192 -0.5724  0.9742  0.6169
 4323SOL     OW13652   1.848   5.417   1.674 -0.1734  0.3944  0.1562
 4323SOL    HW113653   1.855   5.372   1.590 -1.2321  1.5881 -0.6028
 4323SOL    HW213654   1.763   5.461   1.671 -0.9690 -0.8594  2.5434
 4324SOL     OW13655   1.031   3.461   4.521  0.5042 -0.2971 -0.2354
 4324SOL    HW113656   1.060   3.535   4.468 -0.3595  0.1028 -0.1720
 4324SOL    HW213657   0.939   3.480   4.540  0.3784 -1.1995  0.1057
 4325SOL     OW13658   6.359   0.296   2.912 -0.1294  0.4053  0.4852
 4325SOL    HW113659   6.349   0.350   2.990  1.4836 -1.2309  1.9349
 4325SOL    HW213660   6.415   0.346   2.854  3.0857 -0.3785  2.6665
 4326SOL     OW13661   2.254   0.411   6.230 -0.5313  0.1582  0.2222
 4326SOL    HW113662   2.247   0.319   6.208  0.7821  0.3632 -1.2268
 4326SOL    HW213663   2.294   0.412   6.317  1.6756 -0.6513 -0.7302
 4327SOL     OW13664   6.601   5.155   3.364 -0.2987 -0.0796 -0.2044
 4327SOL    HW113665   6.610   5.113   3.278 -1.1361  0.0626 -0.3693
 4327SOL    HW213666   6.629   5.088   3.426  0.1974 -0.2267 -0.5813
 4328SOL     OW13667   4.544   3.338   0.870  0.2342 -0.1467 -0.8009
 4328SOL    HW113668   4.633   3.315   0.894 -0.2598 -0.6270  0.6779
 4328SOL    HW213669   4.528   3.422   0.913 -0.0194 -0.0342 -1.1037
 4329SOL     OW13670   0.650   5.348   5.990  0.3680 -0.5347 -0.6094
 4329SOL    HW113671   0.592   5.410   5.947  0.0943 -1.4320 -1.5901
 4329SOL    HW213672   0.634   5.360   6.084 -0.4993  0.0676 -0.8312
 4330SOL     OW13673   3.637   5.763   5.782  0.3729 -0.1079  0.5455
 4330SOL    HW113674   3.708   5.745   5.844  1.0873 -1.5262 -0.6059
 4330SOL    HW213675   3.681   5.797   5.704 -0.3693  0.4268  0.3492
 4331SOL     OW13676   1.514   3.723   4.358  0.1466 -0.1560  0.4480
 4331SOL    HW113677   1.471   3.796   4.402 -0.8525 -0.2241 -0.3831
 4331SOL    HW213678   1.442   3.666   4.330  0.7355 -0.0739 -1.3370
 4332SOL     OW13679   1.022   1.531   0.315 -0.1683  0.2756 -0.0249
 4332SOL    HW113680   1.085   1.485   0.371  1.4590  1.5223 -0.7589
 4332SOL    HW213681   0.958   1.568   0.376  1.1236  0.9435  0.9540
 4333SOL     OW13682   2.595   5.391   0.048  0.4392 -0.2034 -0.1057
 4333SOL    HW113683   2.669   5.420  -0.005  0.1959 -1.9576 -1.4766
 4333SOL    HW213684   2.631   5.381   0.136  1.3415  0.7963 -0.3357
 4334SOL     OW13685   1.009   5.230   5.505 -0.4660  0.0832 -0.0159
 4334SOL    HW113686   1.102   5.215   5.522 -0.1545  1.6641 -0.1281
 4334SOL    HW213687   0.994   5.194   5.417  0.4627  1.2794 -0.7003
 4335SOL     OW13688   3.411   5.893   5.547 -0.1970  0.3214 -0.1671
 4335SOL    HW113689   3.322   5.914   5.519 -0.5786  0.3374  1.0029
 4335SOL    HW213690   3.429   5.955   5.617 -0.5122 -1.7015  1.8368
 4336SOL     OW13691   6.105   5.386   6.788  0.3254  0.0474  0.0143
 4336SOL    HW113692   6.091   5.299   6.826  2.7486 -0.8660 -0.9993
 4336SOL    HW213693   6.116   5.443   6.863  0.7148 -0.9168  0.7179
 4337SOL     OW13694   6.655   2.556   1.604 -0.3620  0.0946 -0.7037
 4337SOL    HW113695   6.738   2.581   1.564 -0.7504 -0.0558 -1.6111
 4337SOL    HW213696   6.615   2.640   1.629 -0.0485  0.1797 -0.4798
 4338SOL     OW13697   6.831   0.934   6.047  0.1290 -0.2437  0.1378
 4338SOL    HW113698   6.834   0.840   6.028 -1.7507  0.1144 -2.3935
 4338SOL    HW213699   6.765   0.941   6.117 -0.2591 -0.7492 -0.1699
 4339SOL     OW13700   3.639   4.898   2.551 -0.3542 -0.1499 -0.0675
 4339SOL    HW113701   3.658   4.936   2.465  0.9189  2.5198  1.2837
 4339SOL    HW213702   3.545   4.912   2.563 -0.7213 -1.3151 -1.3146
 4340SOL     OW13703   3.716   1.328   3.333 -0.0136 -0.1213 -0.2115
 4340SOL    HW113704   3.762   1.384   3.396  1.3240 -0.4597 -0.8579
 4340SOL    HW213705   3.639   1.380   3.307  1.4367  1.6967 -1.1684
 4341SOL     OW13706   3.422   2.737   4.763  0.2145  0.6181 -0.4361
 4341SOL    HW113707   3.353   2.802   4.775  0.2586  0.4066  1.2232
 4341SOL    HW213708   3.490   2.762   4.826  0.1767 -1.0816  0.3436
 4342SOL     OW13709   3.072   3.006   2.882  0.0753 -0.3071 -0.3227
 4342SOL    HW113710   3.139   3.071   2.860 -0.3859  0.4357  0.4290
 4342SOL    HW213711   3.122   2.930   2.912  0.6257  0.9298  2.1774
 4343SOL     OW13712   1.653   5.672   3.514  0.6658  0.3749 -0.2617
 4343SOL    HW113713   1.608   5.620   3.448 -3.3443  2.5428  0.4454
 4343SOL    HW213714   1.689   5.747   3.466 -1.6633  1.6002 -0.2414
 4344SOL     OW13715   1.233   4.892   0.408 -0.1896  0.1666  0.1330
 4344SOL    HW113716   1.245   4.845   0.490 -0.7062 -1.9192 -0.9168
 4344SOL    HW213717   1.145   4.866   0.379  0.5105 -0.2300 -1.7327
 4345SOL     OW13718   0.968   1.293   4.255  0.1075  0.9054  0.0385
 4345SOL    HW113719   0.981   1.267   4.346  0.3443  1.3845  0.1465
 4345SOL    HW213720   0.873   1.285   4.241 -0.1769  2.3763  0.8267
 4346SOL     OW13721   3.114   5.913   0.587  0.1802  0.0839 -0.5051
 4346SOL    HW113722   3.082   5.996   0.552 -0.2997 -0.0879 -0.4843
 4346SOL    HW213723   3.141   5.934   0.677  0.0176  0.2102 -0.4844
 4347SOL     OW13724   3.964   5.977   6.745  0.0140  0.2581  0.0151
 4347SOL    HW113725   3.930   5.888   6.752  2.1027 -0.6902 -0.9671
 4347SOL    HW213726   4.018   5.976   6.666  0.1189  2.3865  0.0162
 4348SOL     OW13727   0.470   0.581   0.973  0.1094  0.1734  0.1643
 4348SOL    HW113728   0.416   0.587   1.052  0.0567  0.6759  0.0963
 4348SOL    HW213729   0.558   0.561   1.005 -0.1212 -0.6744  0.2727
 4349SOL     OW13730   3.165   3.319   1.758 -0.3955 -0.1531  0.0988
 4349SOL    HW113731   3.258   3.297   1.761  0.0544  1.2906 -1.5667
 4349SOL    HW213732   3.136   3.288   1.672 -1.6520 -1.2380  0.8847
 4350SOL     OW13733   0.480   4.203   6.442  0.2749  0.7004  0.0270
 4350SOL    HW113734   0.521   4.120   6.467  2.4883  1.7550  0.1700
 4350SOL    HW213735   0.428   4.182   6.365 -0.4152 -1.0847  0.9176
 4351SOL     OW13736   1.198   0.223   4.430 -0.4750  0.0511  0.7994
 4351SOL    HW113737   1.173   0.254   4.343  1.3470 -1.4844 -0.3547
 4351SOL    HW213738   1.118   0.183   4.465 -0.9853 -0.2410 -0.6243
 4352SOL     OW13739   0.983   4.582   3.992  0.2731  0.3090  0.2639
 4352SOL    HW113740   1.057   4.522   3.981 -1.3583 -1.9240  0.5389
 4352SOL    HW213741   0.999   4.626   4.075  0.7834 -0.9999  0.8928
 4353SOL     OW13742   5.661   3.050   2.151  0.3360  0.3968 -0.3714
 4353SOL    HW113743   5.627   3.133   2.118 -2.3005  0.2504  1.6191
 4353SOL    HW213744   5.740   3.074   2.199 -0.2106  1.7148 -0.0869
 4354SOL     OW13745   1.215   1.834   0.572  0.3511 -0.2219  0.2446
 4354SOL    HW113746   1.121   1.819   0.586  0.7019 -1.0768  1.9490
 4354SOL    HW213747   1.249   1.749   0.545  0.4289  0.4334 -1.8658
 4355SOL     OW13748   3.445   3.276   2.050 -0.1067  0.0613  0.5707
 4355SOL    HW113749   3.473   3.235   1.968 -0.0002  0.6106  0.3297
 4355SOL    HW213750   3.352   3.296   2.037 -0.1541 -0.0770  0.6829
 4356SOL     OW13751   3.684   2.584   0.991 -0.8334 -0.1304  0.0898
 4356SOL    HW113752   3.616   2.649   0.971 -1.0104 -0.7214 -1.3720
 4356SOL    HW213753   3.643   2.499   0.973  0.3513 -0.4920 -1.1252
 4357SOL     OW13754   6.600   6.495   3.591  0.1023  0.9402  0.2050
 4357SOL    HW113755   6.637   6.549   3.521  0.0938  1.9068  0.9254
 4357SOL    HW213756   6.675   6.447   3.626  0.2991  1.2595  0.2317
 4358SOL     OW13757   3.007   2.587   3.756 -0.5930  0.5047  0.3097
 4358SOL    HW113758   3.024   2.650   3.686 -1.3766 -0.4749 -0.7911
 4358SOL    HW213759   3.035   2.632   3.836 -0.2978  1.8957 -0.5480
 4359SOL     OW13760   6.847   2.787   3.559 -0.1016 -0.0553 -0.5594
 4359SOL    HW113761   6.893   2.868   3.539 -1.2310  0.4528 -1.1735
 4359SOL    HW213762   6.915   2.728   3.590  1.0073  0.6058 -1.6329
 4360SOL     OW13763   1.274   2.558   0.148  0.1265  0.1137  0.0140
 4360SOL    HW113764   1.259   2.652   0.151  0.2940  0.1097  2.2777
 4360SOL    HW213765   1.197   2.520   0.190  0.9780 -0.6223  0.9555
 4361SOL     OW13766   3.535   0.353   2.546 -0.6451  0.5774 -0.3137
 4361SOL    HW113767   3.527   0.330   2.638 -1.7727 -3.3269 -1.2376
 4361SOL    HW213768   3.622   0.322   2.520  0.3898  3.1821 -0.3189
 4362SOL     OW13769   5.216   1.382   6.025  0.2955 -0.1936  0.5528
 4362SOL    HW113770   5.197   1.289   6.020  0.5032 -0.1738 -0.7813
 4362SOL    HW213771   5.140   1.424   5.985 -0.0419  0.2546  1.6205
 4363SOL     OW13772   6.428   1.386   1.835 -0.2956 -0.0599 -0.5925
 4363SOL    HW113773   6.369   1.345   1.897  0.4575 -1.0317 -0.5009
 4363SOL    HW213774   6.373   1.447   1.785 -1.3152 -0.7938 -0.3734
 4364SOL     OW13775   6.611   1.030   4.293  0.1009  0.0391 -0.0877
 4364SOL    HW113776   6.521   1.044   4.323 -0.1358 -1.4623 -0.0460
 4364SOL    HW213777   6.647   0.964   4.352  0.8373 -0.2621 -0.8487
 4365SOL     OW13778   0.075   2.029   5.133 -0.5605  0.7027 -0.0675
 4365SOL    HW113779   0.035   2.113   5.109 -2.6514  0.2227  1.5112
 4365SOL    HW213780   0.099   2.039   5.225  0.8303  0.1281 -0.3304
 4366SOL     OW13781   0.422   0.601   3.955  0.2254 -0.0265  0.1190
 4366SOL    HW113782   0.465   0.594   4.040  0.0693  0.4842  0.2460
 4366SOL    HW213783   0.353   0.666   3.968 -1.6481 -1.9524  0.3462
 4367SOL     OW13784   0.064   3.666   0.693 -0.1938  0.5113  0.3916
 4367SOL    HW113785   0.156   3.658   0.718  0.0335  0.5800 -0.4120
 4367SOL    HW213786   0.049   3.761   0.689 -0.7038  0.5307  1.9382
 4368SOL     OW13787   2.113   0.153   0.914  0.3612  0.2507  0.3855
 4368SOL    HW113788   2.055   0.184   0.845  2.2189  2.1767 -0.4163
 4368SOL    HW213789   2.054   0.128   0.985 -1.8025 -3.6870 -2.3904
 4369SOL     OW13790   2.569   3.352   2.079 -0.4021 -0.5206 -0.1019
 4369SOL    HW113791   2.497   3.360   2.140 -0.8767 -0.4894 -0.6539
 4369SOL    HW213792   2.563   3.431   2.025 -0.2217 -0.7266 -0.4268
 4370SOL     OW13793   4.293   4.999   0.183  0.2838  0.3337 -0.1752
 4370SOL    HW113794   4.198   5.009   0.182  0.1208 -1.0515 -1.3358
 4370SOL    HW213795   4.326   5.069   0.126 -0.0498  0.6615  0.0333
 4371SOL     OW13796   5.673   0.470   5.642  0.1857 -0.0626 -0.2146
 4371SOL    HW113797   5.735   0.543   5.630 -0.0995  0.2828  0.3677
 4371SOL    HW213798   5.614   0.476   5.566 -0.4438  0.9396  0.3254
 4372SOL     OW13799   4.644   6.001   6.167 -0.6842  0.3018  0.2051
 4372SOL    HW113800   4.639   5.908   6.189 -1.1811  0.5386  1.1527
 4372SOL    HW213801   4.600   6.007   6.082 -0.2487 -0.3919 -0.0771
 4373SOL     OW13802   5.076   4.670   2.562  0.3927  0.2444 -0.3920
 4373SOL    HW113803   5.013   4.710   2.622 -0.1543 -0.1174 -0.7119
 4373SOL    HW213804   5.129   4.613   2.618 -1.1453 -1.3327 -0.4461
 4374SOL     OW13805   6.445   6.162   1.298 -0.0473 -0.0548 -0.3610
 4374SOL    HW113806   6.423   6.083   1.249  0.2750 -0.1676 -0.3286
 4374SOL    HW213807   6.537   6.150   1.323  0.0973  0.4743 -0.6344
 4375SOL     OW13808   0.002   5.096   2.388  0.4657 -0.2955  0.0648
 4375SOL    HW113809  -0.037   5.021   2.344  0.5725 -2.8716  3.8156
 4375SOL    HW213810   0.095   5.092   2.365  0.1350  0.0802 -1.4405
 4376SOL     OW13811   0.473   5.692   1.280 -0.5736  0.3659 -0.2496
 4376SOL    HW113812   0.503   5.768   1.230  0.4769  1.1310  1.4711
 4376SOL    HW213813   0.395   5.722   1.326 -1.5329 -0.3360 -1.3550
 4377SOL     OW13814   5.657   3.844   2.737 -0.6801  0.1539  0.5025
 4377SOL    HW113815   5.650   3.876   2.647 -0.4542 -0.5153  0.2422
 4377SOL    HW213816   5.590   3.777   2.744 -0.1337 -0.3949  0.5656
 4378SOL     OW13817   3.335   1.737   2.167 -0.2468 -0.4422 -0.1538
 4378SOL    HW113818   3.421   1.758   2.131 -0.2894  0.0919  0.0493
 4378SOL    HW213819   3.310   1.656   2.123  0.9457 -1.3489  0.7602
 4379SOL     OW13820   5.677   0.139   4.922  0.4337 -0.1900  0.2234
 4379SOL    HW113821   5.641   0.051   4.926 -1.2412  0.4675  0.5621
 4379SOL    HW213822   5.604   0.196   4.945  1.7797  1.2320  1.2284
 4380SOL     OW13823   3.495   5.717   4.258 -0.3222  0.3666 -0.2451
 4380SOL    HW113824   3.565   5.684   4.313  1.0322  1.7289 -1.0860
 4380SOL    HW213825   3.478   5.646   4.195 -0.3731 -0.3314  0.5480
 4381SOL     OW13826   6.426   0.591   3.957 -0.1317  0.0897  0.9330
 4381SOL    HW113827   6.480   0.653   4.006 -0.0382  0.4839  0.3503
 4381SOL    HW213828   6.402   0.524   4.021  1.1399 -0.1595  1.1720
 4382SOL     OW13829   5.632   6.568   6.586  0.9666  0.0314 -0.6360
 4382SOL    HW113830   5.554   6.619   6.608  2.4044  2.0203  0.0384
 4382SOL    HW213831   5.597   6.488   6.545 -1.4871  0.0267  1.2350
 4383SOL     OW13832   0.975   1.203   2.065 -0.2704 -0.1635 -0.0664
 4383SOL    HW113833   1.015   1.175   1.983 -0.1332 -0.8410  0.2291
 4383SOL    HW213834   1.046   1.240   2.117 -0.4280  0.6386 -0.4032
 4384SOL     OW13835   6.193   6.678   6.302  0.5164 -0.6500 -0.3420
 4384SOL    HW113836   6.168   6.670   6.210 -1.9105 -0.6463  0.2528
 4384SOL    HW213837   6.272   6.624   6.311  0.3983 -1.1958 -2.2682
 4385SOL     OW13838   2.538   1.836   0.885  0.0558 -0.3943 -0.4579
 4385SOL    HW113839   2.501   1.798   0.805 -2.6025 -1.2370  1.0644
 4385SOL    HW213840   2.535   1.765   0.949  1.8666  0.3458  0.5251
 4386SOL     OW13841   3.233   6.487   6.375 -0.4975  0.1153 -0.2323
 4386SOL    HW113842   3.231   6.574   6.415 -0.1588  0.1521 -0.2900
 4386SOL    HW213843   3.144   6.473   6.343 -0.6730  0.2473  0.1868
 4387SOL     OW13844   0.648   4.643   5.433  0.1267  0.0819 -0.5484
 4387SOL    HW113845   0.717   4.576   5.426  0.9902  0.5801  2.0058
 4387SOL    HW213846   0.650   4.689   5.349  3.9420  0.9870 -0.1501
 4388SOL     OW13847   2.732   5.025   0.471 -0.2593  0.3562  0.1235
 4388SOL    HW113848   2.673   5.100   0.455 -0.3633  0.9560  2.8994
 4388SOL    HW213849   2.744   5.023   0.566  0.5619 -2.5832  0.0584
 4389SOL     OW13850   1.966   1.134   5.792 -0.0524 -0.4059 -0.0327
 4389SOL    HW113851   1.964   1.199   5.862 -1.1873  0.8926 -1.2049
 4389SOL    HW213852   1.875   1.107   5.782 -0.4950  1.7437 -2.9932
 4390SOL     OW13853   2.435   0.344   1.516 -0.7171 -0.0163  0.3601
 4390SOL    HW113854   2.472   0.381   1.437 -0.8322  2.2417  1.2868
 4390SOL    HW213855   2.410   0.255   1.491  0.8806  0.0086 -1.5963
 4391SOL     OW13856   0.142   4.278   3.248  0.0756 -0.2384  0.0413
 4391SOL    HW113857   0.075   4.319   3.303  0.3317  0.7841 -0.3916
 4391SOL    HW213858   0.211   4.252   3.310 -0.2307 -0.3157  0.3573
 4392SOL     OW13859   6.763   5.705   1.098  0.3799  0.2827 -0.2614
 4392SOL    HW113860   6.730   5.795   1.105 -1.7183 -0.5093  0.9990
 4392SOL    HW213861   6.798   5.700   1.009  3.7820  3.2823  0.6689
 4393SOL     OW13862   5.123   6.800   0.685 -0.1599  0.3948  1.0294
 4393SOL    HW113863   5.037   6.840   0.677 -0.8776 -1.2448  0.1647
 4393SOL    HW213864   5.143   6.802   0.779 -1.9093 -0.7131  1.4672
 4394SOL     OW13865   4.910   3.598   5.011  0.8381  0.2771  0.4172
 4394SOL    HW113866   4.972   3.603   4.938  1.7905 -2.4691  0.9202
 4394SOL    HW213867   4.824   3.585   4.969  1.5316 -2.5995 -0.3325
 4395SOL     OW13868   2.356   0.401   6.482 -0.4980 -0.5233  0.2495
 4395SOL    HW113869   2.312   0.341   6.541  1.3563  0.3705  2.7117
 4395SOL    HW213870   2.335   0.488   6.516  0.8481  0.0081 -0.1937
 4396SOL     OW13871   5.526   4.949   5.268  0.3127  0.0195 -0.2626
 4396SOL    HW113872   5.460   4.882   5.282 -0.7502  1.1814  0.4720
 4396SOL    HW213873   5.478   5.032   5.270  1.7742  0.8975  0.2176
 4397SOL     OW13874   0.492   1.305   1.680  0.1230  0.1625  0.5713
 4397SOL    HW113875   0.396   1.306   1.691 -0.3686  1.0912 -2.7295
 4397SOL    HW213876   0.517   1.397   1.679  0.9597 -0.0568  0.6895
 4398SOL     OW13877   0.636   5.760   0.533  0.2005  0.0189 -0.3689
 4398SOL    HW113878   0.619   5.798   0.447  1.9304  1.0104 -0.3115
 4398SOL    HW213879   0.666   5.833   0.586 -0.6616 -0.6213  1.0407
 4399SOL     OW13880   0.853   4.730   6.467  0.3831  0.1734  0.2355
 4399SOL    HW113881   0.888   4.817   6.485  2.2385 -0.6172  0.6031
 4399SOL    HW213882   0.770   4.727   6.514  1.2042  1.0825  1.7958
 4400SOL     OW13883   0.353   2.794   3.791  0.8744 -0.1945 -0.0975
 4400SOL    HW113884   0.435   2.744   3.803  0.8892 -0.3375 -0.7401
 4400SOL    HW213885   0.344   2.844   3.872  1.4137 -0.4475  0.1309
 4401SOL     OW13886   6.439   0.891   0.147 -0.3875  0.1068  0.4180
 4401SOL    HW113887   6.425   0.985   0.141  0.1791  0.1190 -2.3392
 4401SOL    HW213888   6.356   0.852   0.119  0.4249 -0.0563 -2.0507
 4402SOL     OW13889   5.085   2.594   4.568  0.4391  0.3899  0.2744
 4402SOL    HW113890   5.044   2.632   4.491  0.0686 -0.7007 -0.0774
 4402SOL    HW213891   5.163   2.647   4.583  0.2356  0.9204 -0.5427
 4403SOL     OW13892   2.374   6.415   1.290 -0.2773 -0.3308 -0.1636
 4403SOL    HW113893   2.437   6.487   1.278 -1.6234  1.0390  0.6452
 4403SOL    HW213894   2.289   6.458   1.292 -1.0046 -1.6929  2.4010
 4404SOL     OW13895   5.639   5.336   3.281  0.2109 -0.0332  0.3816
 4404SOL    HW113896   5.689   5.417   3.267 -0.9882  0.6523 -0.1192
 4404SOL    HW213897   5.704   5.266   3.274  1.2941  0.8801  0.9175
 4405SOL     OW13898   2.986   0.980   4.812  0.1752 -0.1706  0.3999
 4405SOL    HW113899   3.046   0.919   4.855  0.4682  0.2824  0.6448
 4405SOL    HW213900   3.035   1.014   4.737  0.3622  0.4673  0.8039
 4406SOL     OW13901   0.163   1.292   2.125  0.2169  0.3117 -0.2085
 4406SOL    HW113902   0.083   1.249   2.095  0.6932 -0.6495 -0.1259
 4406SOL    HW213903   0.233   1.232   2.100  0.7678  0.3259  1.2436
 4407SOL     OW13904   6.853   4.935   2.899  0.5708  1.1148 -0.5249
 4407SOL    HW113905   6.803   5.011   2.867  0.9569  1.0666 -1.2605
 4407SOL    HW213906   6.944   4.960   2.888  0.7334 -0.0074 -2.2259
 4408SOL     OW13907   0.796   4.569   1.265 -0.3722  0.0390 -0.2119
 4408SOL    HW113908   0.769   4.658   1.242 -0.5876 -0.4950 -2.1322
 4408SOL    HW213909   0.877   4.581   1.314  0.2484  1.2438 -1.4830
 4409SOL     OW13910   5.615   4.840   2.519 -0.5949 -0.7190  0.4708
 4409SOL    HW113911   5.661   4.757   2.506  0.3496  0.0140 -1.0915
 4409SOL    HW213912   5.607   4.847   2.614  0.7286 -1.8423  0.7067
 4410SOL     OW13913   5.730   3.722   2.224 -0.1489  0.1345  0.9683
 4410SOL    HW113914   5.672   3.784   2.267 -0.2318 -0.8402  2.3391
 4410SOL    HW213915   5.807   3.719   2.280  0.7128  0.4868 -0.1701
 4411SOL     OW13916   5.426   5.177   6.531  0.3790 -0.0650 -0.7028
 4411SOL    HW113917   5.456   5.196   6.620  2.0113  0.5028 -1.3366
 4411SOL    HW213918   5.486   5.110   6.499 -0.3516 -0.4480 -1.3034
 4412SOL     OW13919   4.019   5.057   3.922  0.0725  0.7167  0.2278
 4412SOL    HW113920   4.114   5.063   3.931  0.3096  1.0025 -1.9176
 4412SOL    HW213921   3.984   5.103   3.999  1.7109  2.9837 -0.2686
 4413SOL     OW13922   4.109   6.831   2.797 -0.4679  0.1537  0.1863
 4413SOL    HW113923   4.120   6.762   2.863 -0.3096 -1.3602 -1.3351
 4413SOL    HW213924   4.197   6.867   2.787 -0.0965 -0.8890 -0.4861
 4414SOL     OW13925   2.276   2.245   5.519 -0.6349 -0.0289  0.5234
 4414SOL    HW113926   2.292   2.153   5.536  0.7652  0.2397  0.7552
 4414SOL    HW213927   2.346   2.272   5.459 -1.7399  0.5969 -0.5418
 4415SOL     OW13928   3.139   3.051   5.120  0.0453  0.4417  0.7286
 4415SOL    HW113929   3.145   3.036   5.025  0.1131 -1.0260  0.9418
 4415SOL    HW213930   3.074   3.121   5.129 -0.0784  0.4923 -0.3919
 4416SOL     OW13931   1.556   3.986   1.647 -0.2826 -0.1241 -0.3484
 4416SOL    HW113932   1.648   4.013   1.652 -0.3408  0.2185 -1.0017
 4416SOL    HW213933   1.523   4.030   1.569 -1.3151  0.6626  0.5117
 4417SOL     OW13934   1.593   2.679   5.385 -0.2182  0.1996  0.0971
 4417SOL    HW113935   1.524   2.670   5.450 -1.5226 -1.6973 -1.4357
 4417SOL    HW213936   1.668   2.632   5.422 -0.2776  0.8555  1.0640
 4418SOL     OW13937   5.405   1.295   0.030  0.3270  0.1340  0.0733
 4418SOL    HW113938   5.379   1.205   0.050  0.8358 -0.1773 -0.6132
 4418SOL    HW213939   5.347   1.350   0.084 -0.8477 -0.5704 -0.4337
 4419SOL     OW13940   1.870   5.245   3.096  0.0806  0.2571 -0.4493
 4419SOL    HW113941   1.921   5.306   3.149  0.3336 -0.1237 -0.2504
 4419SOL    HW213942   1.934   5.186   3.058 -0.1368  0.2995 -0.8842
 4420SOL     OW13943   3.692   1.438   4.861  0.4361  0.6654 -0.1648
 4420SOL    HW113944   3.685   1.476   4.949 -1.5987 -0.8556  0.4149
 4420SOL    HW213945   3.784   1.414   4.853  0.7722  1.2947  1.3413
 4421SOL     OW13946   5.438   4.968   1.158  0.3979 -0.3909  0.4206
 4421SOL    HW113947   5.454   5.061   1.141  1.4776 -0.6762 -0.2112
 4421SOL    HW213948   5.349   4.965   1.194  0.8596  1.0415  1.8002
 4422SOL     OW13949   4.260   6.219   6.208  0.2953 -0.4915  0.2438
 4422SOL    HW113950   4.280   6.129   6.184  0.6146 -0.1632 -0.7725
 4422SOL    HW213951   4.167   6.217   6.233  0.6647 -1.3562  1.6046
 4423SOL     OW13952   0.906   3.865   5.690  0.3306 -0.3512 -0.0635
 4423SOL    HW113953   0.821   3.844   5.650 -0.3173  1.2356  0.3998
 4423SOL    HW213954   0.968   3.807   5.647 -0.6175  0.1105 -2.1761
 4424SOL     OW13955   0.856   1.562   5.885  0.1332 -0.7949  0.1296
 4424SOL    HW113956   0.844   1.557   5.979  0.6311 -1.4449  0.1643
 4424SOL    HW213957   0.778   1.519   5.849  0.0316 -0.7098  0.2478
 4425SOL     OW13958   0.292   1.509   0.854 -0.3475 -0.7190 -0.1437
 4425SOL    HW113959   0.336   1.496   0.938 -0.4807 -0.2939 -0.0072
 4425SOL    HW213960   0.225   1.440   0.852 -0.1124 -0.9537 -0.0613
 4426SOL     OW13961   0.749   6.721   3.824  0.7254  0.5548 -0.5369
 4426SOL    HW113962   0.717   6.741   3.736  2.6517  2.5425 -0.8891
 4426SOL    HW213963   0.678   6.749   3.882  0.6270  2.1757 -1.3821
 4427SOL     OW13964   5.069   5.107   3.742 -0.4114  0.1595  0.7461
 4427SOL    HW113965   4.983   5.113   3.784 -0.3167 -0.3368  1.0218
 4427SOL    HW213966   5.082   5.192   3.700 -0.9959  0.2683  0.7823
 4428SOL     OW13967   5.431   0.533   6.785 -0.0045 -0.3732  0.2585
 4428SOL    HW113968   5.502   0.593   6.808  1.6978 -1.6828 -1.2721
 4428SOL    HW213969   5.471   0.472   6.723 -1.5999 -3.2132  1.8566
 4429SOL     OW13970   3.671   1.955   0.334 -0.0294  0.1019 -1.0095
 4429SOL    HW113971   3.615   2.020   0.292  1.0302  1.2717 -0.6910
 4429SOL    HW213972   3.681   1.987   0.424  2.3310  0.7669 -1.4473
 4430SOL     OW13973   0.205   3.773   2.951 -0.1993 -0.2003  0.4684
 4430SOL    HW113974   0.288   3.744   2.991 -0.1688  0.0343  0.5777
 4430SOL    HW213975   0.224   3.778   2.858  0.8547  2.8457  0.7399
 4431SOL     OW13976   0.562   0.834   5.601  1.0370  0.1011 -0.5383
 4431SOL    HW113977   0.543   0.918   5.642  0.5920 -0.7703  1.1420
 4431SOL    HW213978   0.497   0.774   5.638  1.6246 -1.0709 -1.3492
 4432SOL     OW13979   1.252   2.020   5.029 -0.0984 -0.2206  0.0068
 4432SOL    HW113980   1.253   1.952   4.962 -0.0241 -0.3660  0.1538
 4432SOL    HW213981   1.248   1.972   5.112  1.1631 -0.0680  0.1651
 4433SOL     OW13982   2.906   0.061   1.785  0.2053  0.2319 -0.6352
 4433SOL    HW113983   2.868  -0.020   1.820  0.3691 -0.1434 -1.3178
 4433SOL    HW213984   2.875   0.065   1.695  1.5490  0.0610 -1.1267
 4434SOL     OW13985   4.041   1.143   0.239 -0.9804 -0.2688  0.2029
 4434SOL    HW113986   4.065   1.057   0.205 -0.4849 -0.8472  1.9469
 4434SOL    HW213987   4.111   1.166   0.299 -1.4647  1.0555  0.2957
 4435SOL     OW13988   2.073   6.324   0.703 -0.8984 -0.1121 -0.0795
 4435SOL    HW113989   2.110   6.366   0.626 -1.2892  1.9762  0.8051
 4435SOL    HW213990   1.979   6.318   0.685 -0.8226 -0.8190 -0.2760
 4436SOL     OW13991   5.174   4.078   5.903 -0.1108 -0.5514 -0.3245
 4436SOL    HW113992   5.189   4.079   5.998  0.0551 -0.3194 -0.3509
 4436SOL    HW213993   5.215   4.159   5.872 -1.0196 -0.1347 -0.4669
 4437SOL     OW13994   6.355   4.721   3.009 -0.3068  0.2144 -0.2715
 4437SOL    HW113995   6.272   4.756   2.978 -0.2204  0.2865 -0.4249
 4437SOL    HW213996   6.381   4.779   3.080  0.8661  1.7795 -1.8588
 4438SOL     OW13997   4.457   4.559   5.803  0.2656 -0.3577 -0.1171
 4438SOL    HW113998   4.531   4.510   5.839  0.1626 -0.4939 -0.0897
 4438SOL    HW213999   4.471   4.559   5.709  0.5526  0.0260 -0.0797
 4439SOL     OW14000   3.180   0.891   1.721  0.0290  0.0162 -0.1500
 4439SOL    HW114001   3.185   0.952   1.795 -0.0351 -1.2172  0.9062
 4439SOL    HW214002   3.189   0.946   1.643  0.7860  1.2717  0.7947
 4440SOL     OW14003   4.298   6.315   3.492 -0.0785 -0.1105  0.1675
 4440SOL    HW114004   4.212   6.344   3.523 -0.2368  0.9650 -1.2066
 4440SOL    HW214005   4.355   6.322   3.569 -0.6463  1.6311  0.4594
 4441SOL     OW14006   6.673   2.332   3.776 -0.3785 -0.4099 -0.2408
 4441SOL    HW114007   6.735   2.398   3.807  0.6842 -1.9037  0.8945
 4441SOL    HW214008   6.671   2.345   3.681 -0.0303  1.0911 -0.0759
 4442SOL     OW14009   0.336   4.214   5.531 -0.2260 -0.3708  0.3299
 4442SOL    HW114010   0.343   4.174   5.618  1.1604 -0.2011  0.3143
 4442SOL    HW214011   0.424   4.247   5.513 -0.9926  1.4592 -0.2500
 4443SOL     OW14012   2.227   3.612   6.505 -0.3296 -0.1993 -0.3866
 4443SOL    HW114013   2.187   3.663   6.576 -1.0928  0.0949 -1.0041
 4443SOL    HW214014   2.305   3.574   6.544 -1.6430 -1.4857  1.1278
 4444SOL     OW14015   0.175   6.727   1.700 -0.4395 -0.6071 -0.6810
 4444SOL    HW114016   0.254   6.759   1.743 -0.3949 -1.0506 -0.4327
 4444SOL    HW214017   0.168   6.780   1.621  0.2570 -0.7514 -0.8429
 4445SOL     OW14018   3.010   3.609   0.226 -1.0962  0.3368 -0.6681
 4445SOL    HW114019   2.924   3.630   0.262 -0.2887  2.0329  0.4274
 4445SOL    HW214020   3.030   3.522   0.261 -1.1190  1.1666  1.6402
 4446SOL     OW14021   1.218   6.478   1.352 -0.1430 -0.1809 -0.0726
 4446SOL    HW114022   1.203   6.564   1.311  2.8958  0.1457 -0.7009
 4446SOL    HW214023   1.217   6.497   1.446 -0.5042  0.3415 -0.1734
 4447SOL     OW14024   0.006   3.641   0.325 -0.4119 -0.1202 -0.0599
 4447SOL    HW114025  -0.014   3.571   0.387  1.3363 -0.7298 -0.1087
 4447SOL    HW214026  -0.022   3.721   0.369  0.6696 -0.5565  1.4945
 4448SOL     OW14027   3.553   5.509   2.974 -0.4207  0.4548  0.0835
 4448SOL    HW114028   3.602   5.517   3.056 -0.3304  0.4795  0.0274
 4448SOL    HW214029   3.468   5.548   2.993  0.1842  2.0991 -0.3324
 4449SOL     OW14030   4.033   0.720   0.661 -0.2249  0.2714 -0.0863
 4449SOL    HW114031   4.036   0.774   0.582 -1.4042 -1.3306 -1.2770
 4449SOL    HW214032   3.964   0.759   0.715  0.8051  1.5684  0.3693
 4450SOL     OW14033   0.456   2.230   3.947 -0.4382  1.3583  0.5781
 4450SOL    HW114034   0.427   2.279   4.024  0.3697 -0.8137  2.3672
 4450SOL    HW214035   0.551   2.223   3.957 -0.2992  1.0741 -0.6920
 4451SOL     OW14036   0.071   4.912   6.026  0.1647 -0.1706 -0.1045
 4451SOL    HW114037   0.006   4.949   5.966 -0.6095  0.7569  1.2434
 4451SOL    HW214038   0.074   4.974   6.099  3.4949  0.4792 -0.6510
 4452SOL     OW14039   4.192   6.762   5.611 -0.4931  0.1949 -0.3539
 4452SOL    HW114040   4.272   6.814   5.612 -0.9817  1.0385 -1.7828
 4452SOL    HW214041   4.181   6.739   5.518 -0.5111 -2.1464  0.1559
 4453SOL     OW14042   6.366   5.219   4.561  0.5384 -0.1350  0.1133
 4453SOL    HW114043   6.436   5.160   4.590 -0.7875 -1.2271  1.2168
 4453SOL    HW214044   6.344   5.189   4.473  0.3811 -0.8267  0.3819
 4454SOL     OW14045   0.247   5.770   1.497 -0.2143 -0.2640  0.2544
 4454SOL    HW114046   0.187   5.757   1.424 -0.2650 -0.0033  0.2460
 4454SOL    HW214047   0.198   5.824   1.559  0.1143  0.2075  0.1118
 4455SOL     OW14048   3.395   0.212   0.024  0.4174 -0.1414 -0.3260
 4455SOL    HW114049   3.374   0.147  -0.043 -0.6974 -0.5552  0.4043
 4455SOL    HW214050   3.347   0.291  -0.003  0.3756 -0.1551 -0.2927
 4456SOL     OW14051   2.037   4.558   1.998 -0.1080 -0.1789  0.1289
 4456SOL    HW114052   2.082   4.484   2.040 -0.0834 -0.5159 -0.4809
 4456SOL    HW214053   2.048   4.631   2.060  0.3663 -0.5347  0.4725
 4457SOL     OW14054   5.932   4.410   5.248  0.0749  0.8125  0.3712
 4457SOL    HW114055   5.956   4.337   5.304  0.8485  0.5304 -0.3167
 4457SOL    HW214056   6.009   4.467   5.249  0.2049  0.6542 -0.6492
 4458SOL     OW14057   3.569   5.749   4.860 -0.2046 -0.1388  0.0825
 4458SOL    HW114058   3.639   5.725   4.799 -1.0512 -1.2173 -0.5079
 4458SOL    HW214059   3.567   5.845   4.858  1.3099 -0.0891  0.1999
 4459SOL     OW14060   3.852   3.588   6.121 -0.6450  0.2085 -0.1979
 4459SOL    HW114061   3.767   3.597   6.165 -0.1815  0.4104  0.6707
 4459SOL    HW214062   3.834   3.613   6.030 -1.4927  0.3528 -0.0025
 4460SOL     OW14063   4.408   4.759   1.391  0.4821 -0.5837 -0.2586
 4460SOL    HW114064   4.400   4.680   1.445  2.4455 -1.0891 -0.6259
 4460SOL    HW214065   4.333   4.756   1.332  0.0245 -1.6915  0.3568
 4461SOL     OW14066   4.700   0.141   5.276 -0.1813 -0.2384 -0.3633
 4461SOL    HW114067   4.708   0.071   5.212 -0.6101 -0.0302 -0.6527
 4461SOL    HW214068   4.789   0.156   5.307 -0.1087 -1.0323 -0.1593
 4462SOL     OW14069   5.145   6.260   5.383  0.2717 -0.2529  0.2985
 4462SOL    HW114070   5.214   6.282   5.321 -2.5560  1.7841 -2.4217
 4462SOL    HW214071   5.170   6.305   5.464  1.0487  2.4774 -1.3221
 4463SOL     OW14072   4.465   3.921   4.817 -0.2527 -0.2529 -0.5681
 4463SOL    HW114073   4.445   3.870   4.738 -3.7166  0.8800 -0.5677
 4463SOL    HW214074   4.399   3.894   4.880 -0.5183  2.2660  0.3126
 4464SOL     OW14075   4.406   0.636   1.419 -0.5896 -0.3668 -0.2998
 4464SOL    HW114076   4.315   0.610   1.412 -0.7636 -0.2778  1.2678
 4464SOL    HW214077   4.420   0.650   1.512  0.7792  0.5277 -0.6076
 4465SOL     OW14078   1.681   6.798   2.190  0.4632  0.3030 -0.2108
 4465SOL    HW114079   1.589   6.783   2.169  0.4012 -1.2294  1.0061
 4465SOL    HW214080   1.727   6.783   2.107 -0.1130 -1.9906 -0.1794
 4466SOL     OW14081   0.816   0.036   6.010  0.3500 -0.1811  0.4909
 4466SOL    HW114082   0.783   0.118   6.046  0.7289  0.0519  0.3141
 4466SOL    HW214083   0.909   0.033   6.035  0.2395 -0.7664  0.8690
 4467SOL     OW14084   2.517   2.183   0.698 -0.2530 -0.2555 -0.2129
 4467SOL    HW114085   2.556   2.129   0.630 -0.5969 -1.4527  0.5231
 4467SOL    HW214086   2.424   2.188   0.675 -0.6060 -1.6631  0.7795
 4468SOL     OW14087   5.642   6.479   2.646 -0.1804 -0.3464  0.2248
 4468SOL    HW114088   5.671   6.511   2.731  0.2044 -1.7051  0.6247
 4468SOL    HW214089   5.723   6.467   2.596 -0.1110 -2.5843  0.7833
 4469SOL     OW14090   3.512   1.854   1.093 -0.4166 -0.3154  0.2942
 4469SOL    HW114091   3.469   1.889   1.171  0.1307 -1.5686  1.1786
 4469SOL    HW214092   3.510   1.927   1.030  0.3619  1.2018  1.9351
 4470SOL     OW14093   6.381   3.332   2.502 -0.5569  0.0307  0.2527
 4470SOL    HW114094   6.321   3.286   2.560  0.4618 -1.3020  0.2964
 4470SOL    HW214095   6.460   3.346   2.556  0.5228 -1.5092 -0.8583
 4471SOL     OW14096   2.684   4.294   4.586  0.2133  0.0144  0.6211
 4471SOL    HW114097   2.758   4.234   4.579  1.0141  0.9957  0.3583
 4471SOL    HW214098   2.610   4.239   4.613  0.8375 -1.1234  0.0699
 4472SOL     OW14099   5.646   0.406   1.235 -1.1054 -0.2167  0.4498
 4472SOL    HW114100   5.660   0.403   1.330 -0.8005 -0.0103  0.4124
 4472SOL    HW214101   5.551   0.394   1.225 -1.1706 -0.0225  0.7956
 4473SOL     OW14102   0.369   5.423   3.929  0.3075  0.1534 -0.7786
 4473SOL    HW114103   0.384   5.517   3.919 -1.5519  0.4354 -1.2896
 4473SOL    HW214104   0.274   5.413   3.919  0.5884 -1.9188 -1.9516
 4474SOL     OW14105   1.195   0.921   0.667  0.1007 -0.3717 -0.0012
 4474SOL    HW114106   1.169   0.906   0.758 -1.0057 -0.1331 -0.2576
 4474SOL    HW214107   1.270   0.863   0.654 -0.0313 -0.7744  0.9210
 4475SOL     OW14108   5.202   4.474   6.893  0.2650  0.1277 -0.2876
 4475SOL    HW114109   5.160   4.436   6.971 -1.0996 -0.8301 -1.4200
 4475SOL    HW214110   5.226   4.398   6.840 -1.5956  0.7215 -2.1447
 4476SOL     OW14111   6.289   2.390   1.796 -0.1227 -0.8346  0.6422
 4476SOL    HW114112   6.330   2.321   1.743 -0.8007 -0.0584 -0.9260
 4476SOL    HW214113   6.284   2.465   1.738  0.1019  0.3990  2.1652
 4477SOL     OW14114   5.015   1.867   0.783  0.4723  0.2725 -0.3352
 4477SOL    HW114115   4.934   1.857   0.733  0.8023 -2.0478 -0.5222
 4477SOL    HW214116   5.063   1.937   0.738 -0.8632  0.8061 -0.9812
 4478SOL     OW14117   1.837   5.639   4.007 -0.0753 -0.1723  0.5204
 4478SOL    HW114118   1.798   5.564   3.961 -2.8534  1.1015  0.5914
 4478SOL    HW214119   1.898   5.677   3.945 -2.7710  0.7384 -1.7827
 4479SOL     OW14120   3.912   5.793   0.762 -0.3092 -0.1664 -0.1687
 4479SOL    HW114121   4.006   5.807   0.747 -0.0511 -0.9033  0.6877
 4479SOL    HW214122   3.898   5.701   0.742 -1.1049  0.1904 -1.4113
 4480SOL     OW14123   5.393   5.671   4.732  0.6260  0.1907  0.0299
 4480SOL    HW114124   5.302   5.643   4.744  0.9117 -0.9693 -0.3835
 4480SOL    HW214125   5.414   5.720   4.811 -0.1992  0.0280  0.3549
 4481SOL     OW14126   1.072   2.386   0.243 -0.2734 -0.7494  0.6192
 4481SOL    HW114127   0.982   2.356   0.241  0.1514 -2.0761 -0.5852
 4481SOL    HW214128   1.092   2.397   0.336 -1.4170 -1.2595  0.9399
 4482SOL     OW14129   2.730   2.341   5.363  0.5720 -0.2186 -0.7648
 4482SOL    HW114130   2.645   2.297   5.369  0.7357 -0.6750 -1.6616
 4482SOL    HW214131   2.709   2.434   5.365  0.0697 -0.3278 -0.7730
 4483SOL     OW14132   0.747   3.785   0.979 -0.5770 -0.3042  0.1325
 4483SOL    HW114133   0.769   3.806   0.888 -0.6049 -2.8701 -0.5691
 4483SOL    HW214134   0.677   3.846   1.002 -0.0131  0.9284 -1.2948
 4484SOL     OW14135   5.945   3.982   1.189 -0.1282  0.4268  0.0714
 4484SOL    HW114136   5.917   4.019   1.272 -0.9122 -1.1348  0.5429
 4484SOL    HW214137   6.034   4.017   1.175 -0.5465  1.8546  0.8070
 4485SOL     OW14138   2.332   3.208   5.445  0.1269 -0.4772 -0.1441
 4485SOL    HW114139   2.249   3.188   5.402 -0.1164 -1.5093  0.7575
 4485SOL    HW214140   2.319   3.180   5.536  0.9770  0.6885  0.3640
 4486SOL     OW14141   6.269   1.991   6.696 -0.7205  0.3048 -0.6666
 4486SOL    HW114142   6.327   2.065   6.714 -0.0824 -0.4280  0.4358
 4486SOL    HW214143   6.194   2.029   6.651 -0.4041  1.6161 -0.1298
 4487SOL     OW14144   6.771   4.896   4.399 -0.1090 -0.1696 -0.1234
 4487SOL    HW114145   6.806   4.867   4.315 -2.2039 -0.2648 -1.0159
 4487SOL    HW214146   6.814   4.840   4.463 -1.0088 -2.5177 -1.4521
 4488SOL     OW14147   1.747   3.535   1.730  0.3134 -0.1374 -0.0334
 4488SOL    HW114148   1.678   3.599   1.714  1.9703  1.5847 -0.7815
 4488SOL    HW214149   1.747   3.479   1.653 -0.8268 -0.7408  0.3946
 4489SOL     OW14150   4.754   3.829   2.544  0.5964 -0.7280  0.3943
 4489SOL    HW114151   4.790   3.878   2.470  1.2814 -1.8625 -0.0513
 4489SOL    HW214152   4.660   3.827   2.528  0.6406 -0.1746  0.0435
 4490SOL     OW14153   1.564   4.376   6.505  0.4323  0.9981  0.4003
 4490SOL    HW114154   1.574   4.382   6.600  1.6460  0.8226  0.3073
 4490SOL    HW214155   1.472   4.394   6.489 -0.0325 -0.1120  1.7009
 4491SOL     OW14156   0.890   0.945   3.806  0.3499 -0.0044  0.2978
 4491SOL    HW114157   0.821   0.940   3.872  0.1489 -2.3228 -0.0148
 4491SOL    HW214158   0.847   0.928   3.723  0.7481  2.0778 -0.3942
 4492SOL     OW14159   6.149   2.320   1.167 -0.3918  0.0102 -0.0184
 4492SOL    HW114160   6.124   2.309   1.075  0.0802 -0.5570 -0.0899
 4492SOL    HW214161   6.233   2.273   1.174 -1.8494 -2.5949  1.3570
 4493SOL     OW14162   2.357   2.250   4.236  0.4551 -0.2176  0.3014
 4493SOL    HW114163   2.423   2.248   4.167  0.6559 -4.1732  0.3618
 4493SOL    HW214164   2.281   2.292   4.195  1.5190  0.2301 -1.3156
 4494SOL     OW14165   4.638   6.783   2.216  0.2415 -0.0953 -0.2019
 4494SOL    HW114166   4.686   6.865   2.205 -0.1680  0.4608  1.7314
 4494SOL    HW214167   4.675   6.744   2.295 -1.7168 -0.1630  0.7389
 4495SOL     OW14168   4.922   2.057   2.643 -0.5360  0.5381 -0.0633
 4495SOL    HW114169   4.976   2.031   2.718 -1.3393  1.0828  0.7338
 4495SOL    HW214170   4.971   2.127   2.601 -1.3065  2.2113  1.6432
 4496SOL     OW14171   3.028   5.485   1.031  0.0368  0.0356  0.1665
 4496SOL    HW114172   3.118   5.516   1.017  0.0984 -0.4363 -0.5280
 4496SOL    HW214173   3.010   5.429   0.956 -0.0865 -1.5718  1.3319
 4497SOL     OW14174   3.234   5.742   3.925 -0.0734 -0.1999 -0.1414
 4497SOL    HW114175   3.219   5.824   3.878 -2.9027 -1.5398 -1.8612
 4497SOL    HW214176   3.163   5.738   3.989  0.6838 -0.8322  0.6810
 4498SOL     OW14177   0.463   1.896   0.701 -0.7199  0.4916 -0.4000
 4498SOL    HW114178   0.470   1.949   0.621  1.3921 -1.4258 -1.6165
 4498SOL    HW214179   0.552   1.896   0.736 -1.5663  1.1054  1.9078
 4499SOL     OW14180   5.521   0.121   0.593  0.6306  0.3352 -0.4576
 4499SOL    HW114181   5.589   0.163   0.540  1.1442 -0.9207 -0.8354
 4499SOL    HW214182   5.439   0.160   0.563  0.9837  0.1795 -1.6531
 4500SOL     OW14183   5.231   3.092   6.728 -0.1546 -0.4862  0.4153
 4500SOL    HW114184   5.191   3.175   6.756 -0.0194  0.7520 -2.6784
 4500SOL    HW214185   5.325   3.106   6.737 -0.0677  0.2589 -1.3703
 4501SOL     OW14186   6.094   6.026   1.771 -0.4592  0.6886 -0.2876
 4501SOL    HW114187   6.104   6.080   1.849 -0.3019  0.4910 -0.1687
 4501SOL    HW214188   6.030   6.072   1.718  0.6735  1.7058 -0.8152
 4502SOL     OW14189   1.606   1.191   0.263  0.5932  0.0713  0.4172
 4502SOL    HW114190   1.556   1.137   0.325  1.2313 -2.6993 -1.3234
 4502SOL    HW214191   1.696   1.158   0.270  1.2498  1.7291  0.0881
 4503SOL     OW14192   4.317   6.259   3.228 -0.0724  0.4886  0.0495
 4503SOL    HW114193   4.323   6.278   3.322  0.7296  1.5622 -0.1970
 4503SOL    HW214194   4.394   6.303   3.190 -0.0293 -0.4714 -1.0263
 4504SOL     OW14195   1.295   1.375   1.141 -0.1822 -0.0755 -0.1692
 4504SOL    HW114196   1.372   1.355   1.089  0.1831  1.1025 -0.1127
 4504SOL    HW214197   1.273   1.465   1.119  0.0627  0.5258  1.7912
 4505SOL     OW14198   3.378   6.630   2.629  0.0839 -0.3145 -0.5973
 4505SOL    HW114199   3.346   6.544   2.603  0.5978 -0.0164 -2.3428
 4505SOL    HW214200   3.301   6.687   2.625 -0.2957 -0.7165  0.7525
 4506SOL     OW14201   4.468   6.713   6.774 -0.4385  0.3721 -0.0603
 4506SOL    HW114202   4.521   6.792   6.768 -0.7620  0.6260  0.3820
 4506SOL    HW214203   4.419   6.710   6.691 -1.2698  1.2523  0.3780
 4507SOL     OW14204   2.305   4.667   0.121  0.1203 -0.6120  0.4821
 4507SOL    HW114205   2.291   4.586   0.073 -0.4165 -0.3024  0.0971
 4507SOL    HW214206   2.223   4.680   0.171  0.3046 -0.4435  0.7453
 4508SOL     OW14207   6.729   1.849   4.326 -0.2223 -0.8100 -0.0421
 4508SOL    HW114208   6.654   1.905   4.307  0.5623  0.0431 -0.7373
 4508SOL    HW214209   6.716   1.772   4.272 -1.9042 -1.8762  1.7699
 4509SOL     OW14210   2.368   5.409   4.798  0.6568  0.3574 -0.2382
 4509SOL    HW114211   2.332   5.380   4.881  2.0214  1.5921  0.8471
 4509SOL    HW214212   2.310   5.371   4.731 -1.7115  0.9952  1.3198
 4510SOL     OW14213   5.833   3.595   1.555 -0.3270  0.4394 -0.2253
 4510SOL    HW114214   5.739   3.591   1.573 -0.8746  2.0451 -2.3346
 4510SOL    HW214215   5.867   3.651   1.625 -0.4968 -1.8088  1.7860
 4511SOL     OW14216   1.310   5.613   5.639 -0.1396 -0.0306 -0.2859
 4511SOL    HW114217   1.255   5.651   5.571 -0.4247  1.0539  0.5176
 4511SOL    HW214218   1.400   5.624   5.607 -0.2615  0.6399 -0.4059
 4512SOL     OW14219   2.762   4.914   4.307 -0.3117  0.0983 -0.0304
 4512SOL    HW114220   2.719   4.926   4.222  1.0359  2.2143 -0.5019
 4512SOL    HW214221   2.848   4.954   4.296  0.1507 -0.1616  2.1627
 4513SOL     OW14222   5.628   6.871   4.267  0.1180 -0.1016  0.3678
 4513SOL    HW114223   5.649   6.783   4.238  1.2406  0.0496  0.6621
 4513SOL    HW214224   5.698   6.926   4.230  0.0094  0.5043  1.0223
 4514SOL     OW14225   6.071   1.119   5.198  0.0547 -0.4933  0.3828
 4514SOL    HW114226   6.102   1.033   5.170 -0.1444 -0.0489 -1.3193
 4514SOL    HW214227   6.095   1.178   5.126  0.3457  0.9151  1.5918
 4515SOL     OW14228   3.545   0.220   4.891 -0.4187  0.1111 -0.3440
 4515SOL    HW114229   3.540   0.206   4.985 -0.7257 -1.5684 -0.5787
 4515SOL    HW214230   3.497   0.147   4.853 -1.8093  1.6818 -1.7819
 4516SOL     OW14231   3.363   4.962   2.551  0.1952  0.9407 -0.6454
 4516SOL    HW114232   3.313   5.021   2.608  1.2188  0.7718  0.4719
 4516SOL    HW214233   3.298   4.922   2.494 -1.1073  0.0909  1.3152
 4517SOL     OW14234   3.216   1.378   1.148 -0.2183  0.8388  0.2076
 4517SOL    HW114235   3.170   1.406   1.227 -0.3593  0.9410  0.0928
 4517SOL    HW214236   3.290   1.438   1.141  0.0018  0.5905  0.4634
 4518SOL     OW14237   2.968   4.203   6.416 -0.1153 -0.1449  0.1897
 4518SOL    HW114238   2.992   4.267   6.349 -0.3892 -1.2894 -1.0615
 4518SOL    HW214239   2.874   4.215   6.428 -0.1096 -0.0980  0.1887
 4519SOL     OW14240   1.458   6.055   1.934 -0.8055  0.5013 -0.4211
 4519SOL    HW114241   1.373   6.021   1.964 -2.2605  2.1748 -2.3690
 4519SOL    HW214242   1.508   5.977   1.912 -3.0463 -0.5592 -2.2319
 4520SOL     OW14243   4.047   2.009   5.524 -0.1746 -0.2680 -0.0886
 4520SOL    HW114244   3.965   2.059   5.523 -0.4601 -0.7294 -0.1913
 4520SOL    HW214245   4.021   1.922   5.553  0.1943 -0.5631 -0.6379
 4521SOL     OW14246   4.508   5.894   5.320 -0.5415  0.1280  0.5432
 4521SOL    HW114247   4.505   5.822   5.382  0.0680 -0.2409  0.1491
 4521SOL    HW214248   4.599   5.925   5.324  0.1540 -1.4161 -1.8717
 4522SOL     OW14249   4.216   1.013   2.852 -0.3168  0.4999 -0.0247
 4522SOL    HW114250   4.243   1.055   2.934 -0.3981 -0.6921  0.6430
 4522SOL    HW214251   4.187   0.926   2.879 -0.2678  0.0593 -1.3391
 4523SOL     OW14252   4.778   0.445   4.375  0.1332 -0.7367  0.2569
 4523SOL    HW114253   4.822   0.371   4.332 -0.1985 -1.6720  1.4445
 4523SOL    HW214254   4.799   0.521   4.321 -0.5096 -1.8806 -1.6912
 4524SOL     OW14255   2.402   0.212   5.743  0.5410 -0.9706  0.4090
 4524SOL    HW114256   2.360   0.202   5.658  0.8508 -0.4603  0.1931
 4524SOL    HW214257   2.467   0.142   5.746 -0.0214 -1.4988  0.5685
 4525SOL     OW14258   6.511   0.012   1.178 -0.7941 -0.0560  0.3068
 4525SOL    HW114259   6.517  -0.072   1.223 -2.4978 -0.0617  0.5622
 4525SOL    HW214260   6.442  -0.000   1.113 -0.3583  0.8478 -0.3437
 4526SOL     OW14261   3.538   2.070   5.716 -0.3362  0.1071  0.5589
 4526SOL    HW114262   3.608   2.004   5.719 -1.8149 -1.5207  0.7379
 4526SOL    HW214263   3.510   2.071   5.625  0.3849  1.3235  0.3227
 4527SOL     OW14264   2.759   5.326   6.358  0.3863 -0.2565 -0.2068
 4527SOL    HW114265   2.702   5.367   6.423  1.4656  0.3473  0.3910
 4527SOL    HW214266   2.736   5.233   6.361  0.1648 -0.1828  0.7662
 4528SOL     OW14267   1.258   3.962   2.993 -0.1000 -0.8604  0.2663
 4528SOL    HW114268   1.197   3.902   2.951 -2.0363  0.3414  1.2620
 4528SOL    HW214269   1.326   3.977   2.927 -1.5074 -1.2893 -1.3382
 4529SOL     OW14270   5.174   5.273   3.329 -0.6224  0.1510  0.5150
 4529SOL    HW114271   5.114   5.347   3.337  0.2876  0.8402  1.0968
 4529SOL    HW214272   5.199   5.252   3.419 -1.4608 -1.3831  0.4325
 4530SOL     OW14273   3.255   3.947   3.839 -0.2450  0.5738  0.1622
 4530SOL    HW114274   3.186   3.881   3.851  1.4089 -1.1495  0.7299
 4530SOL    HW214275   3.235   3.987   3.755 -2.0038  0.2057  0.3703
 4531SOL     OW14276   3.930   6.436   2.820  0.2670  0.0188  0.0388
 4531SOL    HW114277   3.957   6.455   2.730 -0.3644 -0.3618 -0.2355
 4531SOL    HW214278   3.859   6.498   2.837 -2.4616 -2.5125 -1.1858
 4532SOL     OW14279   1.297   0.177   3.728 -0.1286 -0.9009 -0.1501
 4532SOL    HW114280   1.289   0.258   3.777  0.1527 -0.3017 -1.0651
 4532SOL    HW214281   1.387   0.178   3.695 -0.2379 -1.4107 -0.4742
 4533SOL     OW14282   1.603   6.373   4.089  0.2059  0.4284  0.3540
 4533SOL    HW114283   1.673   6.309   4.083  0.0616  0.2889  0.1467
 4533SOL    HW214284   1.523   6.321   4.088  0.0370  0.6738 -1.1383
 4534SOL     OW14285   5.246   6.385   1.846 -0.3043  0.1900 -0.1475
 4534SOL    HW114286   5.215   6.354   1.761  0.4678 -0.2413 -0.2891
 4534SOL    HW214287   5.167   6.396   1.898 -0.7315 -0.3099 -0.6721
 4535SOL     OW14288   1.764   3.640   4.264 -0.2919 -0.3114  0.2752
 4535SOL    HW114289   1.677   3.674   4.285  0.0548  0.9069 -0.1273
 4535SOL    HW214290   1.751   3.589   4.184 -0.4403  1.0545 -0.6180
 4536SOL     OW14291   0.061   3.996   3.160 -0.3243 -0.4477 -0.6783
 4536SOL    HW114292   0.153   3.991   3.133 -0.1175  0.1756 -0.1315
 4536SOL    HW214293   0.043   4.090   3.167 -0.6752 -0.5747  0.2598
 4537SOL     OW14294   2.046   0.425   2.624 -0.0447  0.2361 -0.6921
 4537SOL    HW114295   1.959   0.452   2.596  0.0004  0.1420 -0.9218
 4537SOL    HW214296   2.040   0.330   2.635 -0.0868  0.2826 -0.2966
 4538SOL     OW14297   3.843   5.759   4.252  0.2163 -0.1719  0.0467
 4538SOL    HW114298   3.759   5.735   4.290 -0.4408  1.3371 -0.3944
 4538SOL    HW214299   3.870   5.836   4.301  2.2849 -1.6626  1.4505
 4539SOL     OW14300   2.334   0.051   2.878  0.0600  0.7661 -0.5666
 4539SOL    HW114301   2.301   0.079   2.792  0.0699 -1.9450 -1.5435
 4539SOL    HW214302   2.429   0.053   2.869  0.0621  0.5715 -0.5929
 4540SOL     OW14303   5.938   2.584   0.656 -0.4590 -0.3395 -0.0480
 4540SOL    HW114304   5.853   2.613   0.690  0.6164  3.1704  0.0900
 4540SOL    HW214305   5.937   2.610   0.564  0.9671  1.2478  0.3340
 4541SOL     OW14306   5.221   2.224   4.707  0.2959  0.3313 -0.0746
 4541SOL    HW114307   5.201   2.131   4.698 -0.2891  0.4798 -0.3864
 4541SOL    HW214308   5.245   2.235   4.799 -1.1672  0.1468  0.3600
 4542SOL     OW14309   1.687   4.468   2.485 -0.2825 -0.9794 -0.0192
 4542SOL    HW114310   1.594   4.457   2.504 -0.7131  0.0075 -1.3352
 4542SOL    HW214311   1.691   4.473   2.389  0.9310  0.3981  0.0589
 4543SOL     OW14312   1.120   4.051   5.412  0.2345 -0.5754  0.1758
 4543SOL    HW114313   1.147   4.119   5.351 -0.2098  0.6249  1.2790
 4543SOL    HW214314   1.133   4.089   5.498 -3.0011 -0.6260  0.8249
 4544SOL     OW14315   1.761   2.685   0.713 -0.2600 -0.0278  0.1026
 4544SOL    HW114316   1.685   2.668   0.768  1.0523 -1.3260  1.6127
 4544SOL    HW214317   1.740   2.644   0.629 -2.1671  1.7083 -0.3360
 4545SOL     OW14318   2.404   4.870   1.699 -0.0885 -0.2260  0.5236
 4545SOL    HW114319   2.337   4.907   1.757  0.4497 -0.4779  1.3313
 4545SOL    HW214320   2.487   4.891   1.742  0.2417 -2.8479  1.3888
 4546SOL     OW14321   0.088   5.726   3.857 -0.3827  0.3526  0.4166
 4546SOL    HW114322   0.148   5.760   3.924 -0.4208  1.5093 -0.1224
 4546SOL    HW214323   0.109   5.774   3.778 -0.3155 -1.0294 -0.4513
 4547SOL     OW14324   0.522   2.055   0.474 -0.1271  0.4431  0.1637
 4547SOL    HW114325   0.587   2.105   0.425  0.7697 -1.1760 -0.3725
 4547SOL    HW214326   0.511   1.975   0.423 -1.6347  0.1535  0.9109
 4548SOL     OW14327   3.578   1.778   3.787 -0.3821 -0.5605 -0.3056
 4548SOL    HW114328   3.524   1.816   3.719 -0.5190  0.6845  0.4716
 4548SOL    HW214329   3.574   1.841   3.859  0.5820 -1.3506  0.4689
 4549SOL     OW14330   1.372   1.651   1.769  0.1933 -0.2656  0.1054
 4549SOL    HW114331   1.360   1.559   1.747  0.1370 -0.3947  0.6638
 4549SOL    HW214332   1.324   1.663   1.851 -2.8612  1.1103 -1.7383
 4550SOL     OW14333   5.978   5.123   2.823  0.1415 -0.0089  0.4369
 4550SOL    HW114334   5.975   5.071   2.903 -1.0424 -0.8962 -0.1545
 4550SOL    HW214335   5.898   5.100   2.776  0.3504  1.1997 -0.5739
 4551SOL     OW14336   2.885   5.260   3.919  0.3194 -0.4195 -0.8167
 4551SOL    HW114337   2.980   5.250   3.911  0.7837  0.1520  2.5527
 4551SOL    HW214338   2.873   5.347   3.957 -1.4496 -0.9226 -0.1191
 4552SOL     OW14339   1.413   4.862   4.737  0.4193  0.1332 -0.2256
 4552SOL    HW114340   1.449   4.881   4.824  1.8721  0.4784 -0.8750
 4552SOL    HW214341   1.402   4.767   4.736 -0.9491  0.2456  0.8133
 4553SOL     OW14342   6.823   4.226   0.198 -0.0523  0.1123 -0.3802
 4553SOL    HW114343   6.801   4.209   0.290  0.5723  0.5095 -0.1495
 4553SOL    HW214344   6.808   4.320   0.187 -1.4218 -0.1560 -1.0639
 4554SOL     OW14345   3.000   3.136   3.290  0.3317 -0.2479 -0.2501
 4554SOL    HW114346   2.912   3.104   3.270 -0.4719 -0.1908  2.7385
 4554SOL    HW214347   3.055   3.058   3.287 -0.5535 -0.9875  1.3823
 4555SOL     OW14348   6.364   6.084   4.890  0.1022  0.4237  0.1034
 4555SOL    HW114349   6.395   6.171   4.915  2.6128 -0.4807  0.4521
 4555SOL    HW214350   6.438   6.026   4.911  0.0373 -1.2838 -3.6594
 4556SOL     OW14351   0.999   6.737   2.169 -0.8089  0.0140 -0.6471
 4556SOL    HW114352   1.065   6.798   2.201 -0.7019  0.8905 -2.3888
 4556SOL    HW214353   0.942   6.719   2.245  1.2663 -0.6184  0.8375
 4557SOL     OW14354   5.953   5.310   2.358  0.3012 -0.3695  0.4267
 4557SOL    HW114355   5.876   5.256   2.371 -0.6157  1.3148  2.5711
 4557SOL    HW214356   5.951   5.332   2.265 -0.7440 -1.8534  0.0672
 4558SOL     OW14357   3.982   2.052   3.429 -0.5869  0.6066  0.6179
 4558SOL    HW114358   3.922   2.056   3.354 -0.8622 -1.7256  0.6278
 4558SOL    HW214359   4.068   2.073   3.392 -0.7149 -0.5419 -0.4036
 4559SOL     OW14360   6.861   0.742   3.665 -0.0104  0.0748  0.5466
 4559SOL    HW114361   6.841   0.690   3.587  1.0403  0.0680  0.2614
 4559SOL    HW214362   6.954   0.763   3.656  0.5292 -1.1532  2.4818
 4560SOL     OW14363   3.511   4.993   4.167 -0.3318  0.3469 -0.0902
 4560SOL    HW114364   3.607   4.990   4.163 -0.3842 -0.0694 -2.0070
 4560SOL    HW214365   3.488   4.936   4.240  0.9049  1.0839  0.9009
 4561SOL     OW14366   1.651   1.206   4.374 -0.1498 -0.1674 -0.4320
 4561SOL    HW114367   1.583   1.189   4.308 -0.2578 -1.7230  0.0460
 4561SOL    HW214368   1.616   1.279   4.425 -0.1151  1.0011 -2.0068
 4562SOL     OW14369   6.711   1.106   2.870 -0.3824 -0.0235 -0.1890
 4562SOL    HW114370   6.687   1.109   2.777  0.0802  2.9181 -0.3069
 4562SOL    HW214371   6.736   1.196   2.891  2.2313 -1.1453  2.1142
 4563SOL     OW14372   6.001   2.027   1.472  0.3520  0.1150  0.1701
 4563SOL    HW114373   6.043   1.941   1.475 -0.9369 -0.5501 -0.1153
 4563SOL    HW214374   6.049   2.080   1.535 -0.1164 -1.4172  1.9071
 4564SOL     OW14375   1.694   2.271   4.730 -0.1536  0.3993  0.0839
 4564SOL    HW114376   1.610   2.258   4.686  0.0617 -0.0418 -0.2081
 4564SOL    HW214377   1.687   2.358   4.770  0.0557  1.3293 -1.7865
 4565SOL     OW14378   0.286   2.291   2.098  0.6281  0.0973  0.5105
 4565SOL    HW114379   0.278   2.289   2.193 -0.3477 -0.1848  0.4302
 4565SOL    HW214380   0.228   2.362   2.070  0.7012 -0.0012  0.0989
 4566SOL     OW14381   3.497   6.479   6.689 -0.2699 -0.1446  0.7063
 4566SOL    HW114382   3.553   6.549   6.653 -0.2930  0.4833  1.8611
 4566SOL    HW214383   3.431   6.524   6.740 -1.2408 -0.9478  0.1946
 4567SOL     OW14384   0.121   5.082   0.819 -0.2210  0.4881  0.2094
 4567SOL    HW114385   0.066   5.157   0.797  1.3443  2.0635  1.3416
 4567SOL    HW214386   0.208   5.105   0.785  0.2154 -1.0355  0.1890
 4568SOL     OW14387   6.115   0.667   0.768 -0.2541 -0.1712 -0.7365
 4568SOL    HW114388   6.136   0.680   0.860 -1.4315 -1.7267 -0.2138
 4568SOL    HW214389   6.118   0.755   0.730 -1.0563  0.6728  1.0660
 4569SOL     OW14390   1.870   0.527   6.695 -0.3226  0.0246  0.3000
 4569SOL    HW114391   1.941   0.493   6.641  1.5912  1.3767  1.8299
 4569SOL    HW214392   1.856   0.616   6.664 -0.8245  0.0276  0.5219
 4570SOL     OW14393   4.057   0.177   1.734  0.0328  0.0087 -0.8061
 4570SOL    HW114394   4.022   0.266   1.739  0.2784  0.0815 -0.3050
 4570SOL    HW214395   3.980   0.121   1.731 -0.1493  0.2804 -2.4052
 4571SOL     OW14396   4.873   3.418   3.044 -0.5330 -0.4389 -0.1109
 4571SOL    HW114397   4.957   3.374   3.060  0.1446  0.9150  0.1448
 4571SOL    HW214398   4.811   3.372   3.101  0.5904  0.2888  1.7867
 4572SOL     OW14399   4.403   3.360   3.182  0.1644 -0.0467 -0.3725
 4572SOL    HW114400   4.347   3.375   3.106 -0.6385  0.6445  0.3351
 4572SOL    HW214401   4.344   3.325   3.249  1.0059 -1.3894 -0.2841
 4573SOL     OW14402   1.389   6.599   2.709  0.6201  0.2907  0.9147
 4573SOL    HW114403   1.463   6.655   2.688  0.3269  0.1659 -0.5754
 4573SOL    HW214404   1.428   6.515   2.733  0.9785  0.2948  0.3661
 4574SOL     OW14405   2.934   0.724   1.280 -0.1200  0.0525 -0.4745
 4574SOL    HW114406   2.865   0.670   1.241 -0.0185  0.8991 -1.8624
 4574SOL    HW214407   2.888   0.802   1.312 -0.0012 -0.0044 -0.1610
 4575SOL     OW14408   5.894   2.073   2.872 -0.1974  0.2007 -0.5588
 4575SOL    HW114409   5.835   2.024   2.929  0.2824 -0.7582 -0.8595
 4575SOL    HW214410   5.945   2.127   2.931 -0.3421 -0.0975 -0.1572
 4576SOL     OW14411   3.866   2.213   4.004 -0.4687 -0.6187  0.2838
 4576SOL    HW114412   3.808   2.243   4.073  0.0717 -1.2125  1.0125
 4576SOL    HW214413   3.816   2.147   3.957 -1.2110  0.5008 -0.5597
 4577SOL     OW14414   4.971   3.960   5.486 -0.3761 -0.7988 -0.3611
 4577SOL    HW114415   4.883   3.987   5.461  0.0644  1.0784  0.0078
 4577SOL    HW214416   5.016   3.943   5.403 -0.9472 -1.4128 -0.5588
 4578SOL     OW14417   4.926   0.747   2.817 -0.5532 -0.5089 -0.3144
 4578SOL    HW114418   4.872   0.762   2.894  0.4506 -2.6243  0.8919
 4578SOL    HW214419   4.998   0.808   2.826  0.4741 -1.8811  1.4282
 4579SOL     OW14420   6.881   5.801   3.538 -0.4893 -0.2111  0.4914
 4579SOL    HW114421   6.973   5.775   3.545 -1.0920 -2.4508  0.8582
 4579SOL    HW214422   6.836   5.723   3.506 -2.2957  0.7881  0.4442
 4580SOL     OW14423   4.773   3.190   4.176 -0.4339  0.3070  0.7316
 4580SOL    HW114424   4.688   3.155   4.151 -0.3925 -0.5895  1.7590
 4580SOL    HW214425   4.767   3.202   4.271  0.7443 -0.2921  0.9088
 4581SOL     OW14426   4.254   1.536   4.419  0.4252  0.2883 -0.2986
 4581SOL    HW114427   4.249   1.463   4.482  0.2086  1.4275  1.0507
 4581SOL    HW214428   4.222   1.498   4.337  0.2538 -1.1291  0.3831
 4582SOL     OW14429   5.570   1.296   6.673  0.1044 -0.7753  0.0167
 4582SOL    HW114430   5.619   1.274   6.752 -0.3767 -0.0842  0.5250
 4582SOL    HW214431   5.496   1.347   6.704  0.8740  1.0935 -1.0116
 4583SOL     OW14432   3.047   5.680   5.495 -0.5187 -0.5251 -0.2281
 4583SOL    HW114433   3.092   5.727   5.566 -0.8780 -0.3982 -0.0848
 4583SOL    HW214434   3.031   5.593   5.532 -1.9257 -0.0506  0.3592
 4584SOL     OW14435   3.764   4.394   5.147 -0.3409  0.2318 -0.4070
 4584SOL    HW114436   3.803   4.481   5.151 -1.5207  0.7568 -0.0050
 4584SOL    HW214437   3.799   4.348   5.223 -1.3912  1.0884  0.6228
 4585SOL     OW14438   0.665   0.138   3.873  0.0056  1.0081 -0.5192
 4585SOL    HW114439   0.760   0.141   3.863  0.0461  4.1429 -0.2665
 4585SOL    HW214440   0.631   0.167   3.788 -0.8124 -0.9314 -0.9006
 4586SOL     OW14441   0.319   6.201   6.163 -0.0500 -0.7913  0.1701
 4586SOL    HW114442   0.351   6.254   6.090  0.4814  1.8281  2.1562
 4586SOL    HW214443   0.387   6.211   6.230 -2.1498 -0.0596  2.3167
 4587SOL     OW14444   3.722   0.910   6.375 -0.3817 -0.1212 -0.6608
 4587SOL    HW114445   3.638   0.872   6.402  0.0410 -0.4903  0.1554
 4587SOL    HW214446   3.697   0.982   6.316 -1.2703 -0.2613 -0.4784
 4588SOL     OW14447   0.581   5.383   6.257 -0.4392  0.4242 -0.1954
 4588SOL    HW114448   0.494   5.422   6.271  0.2904  1.1885  3.1361
 4588SOL    HW214449   0.587   5.315   6.325  1.1716 -0.4078 -1.1200
 4589SOL     OW14450   5.995   4.854   1.665 -0.0601  0.6377  0.5388
 4589SOL    HW114451   6.065   4.794   1.690 -0.1118  0.7391  0.9381
 4589SOL    HW214452   6.040   4.935   1.643 -0.0992  0.9737  1.6244
 4590SOL     OW14453   2.456   0.612   0.909  0.0260 -0.0821  0.1391
 4590SOL    HW114454   2.545   0.599   0.877  0.0817 -1.5309  0.7954
 4590SOL    HW214455   2.420   0.680   0.853  1.4275  0.2768 -0.3622
 4591SOL     OW14456   6.430   3.882   1.039  0.5124  0.0239  0.6574
 4591SOL    HW114457   6.387   3.890   0.954 -0.6242  0.1594  1.2311
 4591SOL    HW214458   6.519   3.854   1.018 -0.2063 -1.5512 -0.4942
 4592SOL     OW14459   0.594   6.159   6.265 -0.2117  0.4349 -0.0264
 4592SOL    HW114460   0.683   6.124   6.260 -0.6773 -0.6457 -2.7557
 4592SOL    HW214461   0.606   6.254   6.274  1.1793  0.2023  0.7812
 4593SOL     OW14462   6.454   1.619   6.854 -0.2340 -0.0828  0.0598
 4593SOL    HW114463   6.495   1.532   6.850 -0.7673 -0.3440  0.2015
 4593SOL    HW214464   6.498   1.663   6.926 -0.5800 -0.5654  0.5773
 4594SOL     OW14465   6.773   6.807   6.488  0.6309 -0.3038 -0.2199
 4594SOL    HW114466   6.772   6.782   6.580 -0.8428  1.2449  0.2471
 4594SOL    HW214467   6.688   6.778   6.455  2.4534 -4.1697 -2.1737
 4595SOL     OW14468   6.372   4.965   5.114 -0.6275 -0.0292  0.3976
 4595SOL    HW114469   6.321   4.980   5.034  1.3524 -0.5356 -1.0207
 4595SOL    HW214470   6.462   4.989   5.091  0.2749 -1.5799  2.0274
 4596SOL     OW14471   4.490   3.089   4.126 -0.0979 -0.0358 -0.6350
 4596SOL    HW114472   4.435   3.165   4.110 -1.4492 -0.5130  1.4377
 4596SOL    HW214473   4.432   3.024   4.165  0.9225 -2.3124 -2.5906
 4597SOL     OW14474   5.460   1.766   2.548  0.4493 -0.4865 -0.2966
 4597SOL    HW114475   5.399   1.806   2.609  0.6674 -0.2325 -0.2443
 4597SOL    HW214476   5.430   1.794   2.462  0.7635  0.0121 -0.2439
 4598SOL     OW14477   4.629   0.672   0.054  0.1873 -0.8766  0.1316
 4598SOL    HW114478   4.583   0.612   0.112 -0.9896 -0.5341 -0.4300
 4598SOL    HW214479   4.649   0.620  -0.024 -1.1633 -0.4821 -0.5129
 4599SOL     OW14480   5.462   6.057   2.559 -0.1832 -0.2220 -0.0395
 4599SOL    HW114481   5.520   5.981   2.561 -1.0762 -0.9117  0.4160
 4599SOL    HW214482   5.478   6.101   2.642 -1.6499 -1.4847  0.9840
 4600SOL     OW14483   0.764   6.806   2.652  0.0945 -0.1788 -0.3276
 4600SOL    HW114484   0.714   6.725   2.663 -1.6059  0.8458 -0.2430
 4600SOL    HW214485   0.796   6.802   2.562  0.1565 -1.0042 -0.2796
 4601SOL     OW14486   3.461   4.951   4.564 -0.5251 -0.1400  0.9222
 4601SOL    HW114487   3.475   4.893   4.638 -1.6364 -0.4019  0.9407
 4601SOL    HW214488   3.482   4.898   4.487  0.5956  0.1225  1.0203
 4602SOL     OW14489   1.386   6.126   5.507  0.5591 -0.3079  0.2906
 4602SOL    HW114490   1.354   6.198   5.563 -0.6046 -0.7476  0.2148
 4602SOL    HW214491   1.450   6.081   5.562 -0.9805 -1.0833  1.5366
 4603SOL     OW14492   5.151   6.116   0.767  0.1967 -0.6713 -0.3865
 4603SOL    HW114493   5.121   6.191   0.715 -2.1911 -0.5125  1.0480
 4603SOL    HW214494   5.070   6.067   0.785  1.1751 -1.5668  1.8138
 4604SOL     OW14495   3.622   6.553   0.714 -0.1870  0.1998  0.5410
 4604SOL    HW114496   3.558   6.492   0.751 -2.0301  3.0962  2.5355
 4604SOL    HW214497   3.579   6.586   0.634 -1.6807  2.5755  2.1784
 4605SOL     OW14498   4.494   4.310   1.480  0.3195  0.6587 -0.2080
 4605SOL    HW114499   4.445   4.234   1.447 -0.6710  1.7495 -1.3331
 4605SOL    HW214500   4.567   4.320   1.419 -0.8324  1.9401 -1.4600
 4606SOL     OW14501   1.268   5.845   4.464  0.1293 -0.1441 -0.0810
 4606SOL    HW114502   1.333   5.869   4.397  1.4447 -0.1004  1.1642
 4606SOL    HW214503   1.309   5.774   4.513 -0.8851 -0.2889  0.5913
 4607SOL     OW14504   5.554   5.084   6.156 -0.6251 -0.7666 -0.3105
 4607SOL    HW114505   5.505   5.014   6.113  0.3182 -2.2543  0.9314
 4607SOL    HW214506   5.645   5.069   6.131  0.2337 -2.6671  3.2218
 4608SOL     OW14507   4.486   3.461   4.027 -0.4141 -0.1226 -0.3299
 4608SOL    HW114508   4.403   3.413   4.034 -0.7814  0.4704 -0.6131
 4608SOL    HW214509   4.495   3.505   4.111 -0.8383  0.5457 -0.6355
 4609SOL     OW14510   1.404   2.424   5.680 -0.3906 -0.6586  0.1020
 4609SOL    HW114511   1.389   2.421   5.585  0.6344  3.0565 -0.3542
 4609SOL    HW214512   1.349   2.496   5.710  1.7017  0.3969  1.6920
 4610SOL     OW14513   1.506   0.485   5.322 -0.8314  0.1311 -0.0664
 4610SOL    HW114514   1.576   0.549   5.307  1.7801 -2.8597 -2.0991
 4610SOL    HW214515   1.457   0.520   5.396  3.2858  2.1453  2.0688
 4611SOL     OW14516   1.943   3.922   3.343 -0.0165  0.0546  0.3431
 4611SOL    HW114517   1.910   3.998   3.294 -0.3170 -1.2422 -1.5853
 4611SOL    HW214518   2.024   3.898   3.297 -0.8747 -1.8687 -0.2307
 4612SOL     OW14519   1.544   6.887   6.761 -0.4404 -0.3123 -0.4138
 4612SOL    HW114520   1.601   6.826   6.713 -0.5361 -2.0375  1.5202
 4612SOL    HW214521   1.576   6.883   6.851 -3.9038 -1.8576  0.9230
 4613SOL     OW14522   1.266   6.863   1.880  0.1492  0.4946 -0.2064
 4613SOL    HW114523   1.307   6.883   1.797  1.7709  0.2240  0.4911
 4613SOL    HW214524   1.176   6.839   1.858  0.8823 -0.7653 -2.0075
 4614SOL     OW14525   5.787   2.333   4.269  0.4070 -0.2034  0.4077
 4614SOL    HW114526   5.706   2.283   4.282  2.3931 -3.3245  2.1043
 4614SOL    HW214527   5.814   2.314   4.180 -0.0534 -0.2448  0.2766
 4615SOL     OW14528   6.195   4.066   2.223 -0.4023  0.1995 -0.2016
 4615SOL    HW114529   6.273   4.014   2.243  0.2884  0.5858 -1.7123
 4615SOL    HW214530   6.220   4.118   2.147 -1.5351  1.7258  0.4149
 4616SOL     OW14531   6.022   4.491   4.078 -0.8283  0.4720 -0.7821
 4616SOL    HW114532   5.947   4.449   4.037 -1.6177  1.3433 -0.2714
 4616SOL    HW214533   6.010   4.476   4.171 -0.1683  0.3163 -0.7158
 4617SOL     OW14534   6.505   6.271   6.315  0.2730  0.0954  0.1914
 4617SOL    HW114535   6.597   6.260   6.292  2.0483  1.5593  5.2795
 4617SOL    HW214536   6.486   6.362   6.293  0.3234  0.0732  0.0530
 4618SOL     OW14537   0.597   5.988   2.116  0.0023  0.1923 -0.4823
 4618SOL    HW114538   0.631   5.903   2.143 -0.2283  0.3403  0.2897
 4618SOL    HW214539   0.502   5.978   2.118 -0.0356  0.6604  0.2503
 4619SOL     OW14540   0.753   2.277   0.535  0.3728  0.3881  0.2848
 4619SOL    HW114541   0.790   2.211   0.477  0.8937  1.9703 -1.2677
 4619SOL    HW214542   0.820   2.346   0.539  0.6026  0.1172  3.2533
 4620SOL     OW14543   2.594   2.493   0.357 -0.3247 -0.2482  0.1984
 4620SOL    HW114544   2.661   2.534   0.301 -0.8645 -0.5356 -0.6703
 4620SOL    HW214545   2.540   2.443   0.297 -1.0609 -0.3819  0.9574
 4621SOL     OW14546   0.009   0.379   0.749 -0.0284  0.5256  0.3820
 4621SOL    HW114547   0.065   0.453   0.772 -0.4283  0.6655  0.9075
 4621SOL    HW214548  -0.079   0.415   0.744 -0.1593  0.1831  0.1574
 4622SOL     OW14549   6.610   5.938   2.701 -0.2360  0.0970 -0.2054
 4622SOL    HW114550   6.570   5.887   2.631  1.3564 -1.2539 -0.1782
 4622SOL    HW214551   6.650   6.013   2.656 -2.3107  1.2505 -0.2774
 4623SOL     OW14552   2.381   2.120   1.821 -0.3823 -0.3388  0.0212
 4623SOL    HW114553   2.412   2.038   1.782 -0.4746 -0.5990  0.4826
 4623SOL    HW214554   2.287   2.104   1.838  0.0433 -0.9826  2.1579
 4624SOL     OW14555   3.538   2.308   0.640 -0.9578 -0.0796 -0.2354
 4624SOL    HW114556   3.562   2.330   0.730  0.5147  1.3412 -0.9146
 4624SOL    HW214557   3.444   2.324   0.635 -1.0662 -0.2319  1.0614
 4625SOL     OW14558   6.824   4.095   2.469 -0.1867  0.1519 -0.0349
 4625SOL    HW114559   6.864   4.182   2.467  0.4701 -0.1430 -1.9270
 4625SOL    HW214560   6.734   4.109   2.440 -0.6712  0.4182  1.4839
 4626SOL     OW14561   3.909   0.006   4.635  0.2580 -0.7449 -0.3488
 4626SOL    HW114562   3.831   0.042   4.677  0.2535  0.0865 -1.0389
 4626SOL    HW214563   3.920  -0.081   4.674 -2.2144 -1.7601 -1.7281
 4627SOL     OW14564   3.556   2.701   1.488  0.0501  0.6533  0.0259
 4627SOL    HW114565   3.586   2.611   1.478 -0.7504  0.6070 -2.5563
 4627SOL    HW214566   3.462   2.698   1.468 -0.0735  1.9956  0.2845
 4628SOL     OW14567   0.145   0.249   1.780 -0.1751 -0.2573  0.2036
 4628SOL    HW114568   0.230   0.212   1.759 -1.0993 -1.3021 -1.9905
 4628SOL    HW214569   0.110   0.191   1.848  0.9324  0.3816  1.3762
 4629SOL     OW14570   6.270   2.658   4.805 -0.5311  0.1785 -0.1297
 4629SOL    HW114571   6.215   2.665   4.727  0.0266  0.8556 -0.4765
 4629SOL    HW214572   6.292   2.748   4.827 -0.8923  0.0064  0.9739
 4630SOL     OW14573   3.314   3.788   5.606 -0.3465  0.4447 -0.0493
 4630SOL    HW114574   3.230   3.766   5.644 -1.2035  0.2143 -1.9402
 4630SOL    HW214575   3.354   3.703   5.585 -0.7775  0.5388 -1.3951
 4631SOL     OW14576   0.305   2.843   3.063  0.0211 -0.1348  0.5336
 4631SOL    HW114577   0.266   2.911   3.009 -0.1703 -0.8955 -0.3076
 4631SOL    HW214578   0.309   2.881   3.151 -1.7123  0.3312  0.4431
 4632SOL     OW14579   6.122   0.959   0.781  0.3136 -0.0167 -0.5418
 4632SOL    HW114580   6.103   1.023   0.849  0.7946 -0.5223  0.0909
 4632SOL    HW214581   6.142   1.011   0.703 -2.5085  0.5535 -0.9673
 4633SOL     OW14582   3.892   6.586   2.361  0.0597 -0.4734 -0.7050
 4633SOL    HW114583   3.877   6.569   2.454 -1.2725 -1.1820 -1.0236
 4633SOL    HW214584   3.837   6.522   2.315  0.3126  0.1802 -1.9786
 4634SOL     OW14585   2.603   5.980   6.273  0.2998  0.2035  0.5139
 4634SOL    HW114586   2.656   5.901   6.262  0.6096  0.6206 -1.2904
 4634SOL    HW214587   2.562   5.969   6.359  3.1400 -0.2168  1.9344
 4635SOL     OW14588   3.606   0.241   5.610 -0.1435  0.6106  0.3411
 4635SOL    HW114589   3.605   0.227   5.705  0.0303 -1.1864  0.1160
 4635SOL    HW214590   3.549   0.317   5.596 -0.8830  0.3521  1.8094
 4636SOL     OW14591   1.857   1.664   3.091  0.0128 -0.1584  0.0199
 4636SOL    HW114592   1.807   1.602   3.145  0.8345 -1.6094 -0.8239
 4636SOL    HW214593   1.821   1.749   3.114 -0.3508 -0.8095  2.1243
 4637SOL     OW14594   6.569   1.377   6.619 -0.4626  0.1325 -0.5274
 4637SOL    HW114595   6.657   1.347   6.596 -1.0045 -1.9728 -0.0763
 4637SOL    HW214596   6.511   1.307   6.587 -1.7929  0.5223  0.9301
 4638SOL     OW14597   1.049   6.189   3.939 -0.2455  0.6647 -0.3601
 4638SOL    HW114598   1.063   6.208   4.032 -0.5447  1.1138 -0.4053
 4638SOL    HW214599   1.138   6.188   3.902 -0.0075 -0.9025  0.1776
 4639SOL     OW14600   0.155   2.604   0.251  0.0339  0.5004  0.0594
 4639SOL    HW114601   0.134   2.691   0.217  0.9807  0.4557 -0.6871
 4639SOL    HW214602   0.248   2.592   0.230  0.5205  0.2176  2.1389
 4640SOL     OW14603   1.808   1.066   6.582 -0.4710 -0.5750 -0.2999
 4640SOL    HW114604   1.845   1.120   6.652  0.1783 -1.1949 -0.1529
 4640SOL    HW214605   1.713   1.072   6.595 -0.5996  2.3310 -1.6350
 4641SOL     OW14606   2.842   3.514   1.000  0.1900  0.6328 -0.1062
 4641SOL    HW114607   2.843   3.606   1.024 -0.7285  1.0136 -1.4740
 4641SOL    HW214608   2.768   3.504   0.941 -2.6296 -1.8559  3.3843
 4642SOL     OW14609   4.543   2.659   4.654  0.1180  0.0551  0.2732
 4642SOL    HW114610   4.503   2.609   4.582 -0.6442 -0.0141  0.7280
 4642SOL    HW214611   4.542   2.599   4.729  1.8161 -0.2189  0.1131
 4643SOL     OW14612   3.732   6.411   3.713  0.2310 -0.0185 -0.1192
 4643SOL    HW114613   3.823   6.411   3.684  0.2300 -0.9452 -0.1465
 4643SOL    HW214614   3.699   6.497   3.687  0.7921 -0.0800 -1.0874
 4644SOL     OW14615   3.096   0.281   6.892  0.0057 -0.3916 -0.0618
 4644SOL    HW114616   3.013   0.306   6.853  0.0377 -0.5022 -0.2016
 4644SOL    HW214617   3.082   0.191   6.923 -0.2127 -0.0970  0.7306
 4645SOL     OW14618   6.734   5.136   5.579 -0.4016  0.6714 -0.2943
 4645SOL    HW114619   6.813   5.087   5.559  0.5898  0.6210  3.1135
 4645SOL    HW214620   6.673   5.071   5.613 -0.5661  1.1866  0.4311
 4646SOL     OW14621   5.253   2.003   6.533 -0.2153 -0.1722  0.3431
 4646SOL    HW114622   5.177   2.059   6.521 -0.3183 -0.4901 -0.5401
 4646SOL    HW214623   5.251   1.942   6.459  0.3821 -0.7788  0.8024
 4647SOL     OW14624   2.413   2.681   3.046  0.5126  0.2647  0.0012
 4647SOL    HW114625   2.431   2.663   2.954 -1.6236 -1.0280 -0.2337
 4647SOL    HW214626   2.420   2.596   3.088  0.5545  0.6913  0.8752
 4648SOL     OW14627   3.355   4.202   1.977  0.2191 -0.1006  0.4580
 4648SOL    HW114628   3.326   4.292   1.990  1.0987  0.1880  0.4976
 4648SOL    HW214629   3.428   4.192   2.038 -0.8663 -1.3523  1.6145
 4649SOL     OW14630   4.691   5.596   4.270  0.1161  0.1216 -0.2868
 4649SOL    HW114631   4.602   5.558   4.271  0.5099 -0.8881 -1.0477
 4649SOL    HW214632   4.746   5.524   4.239  1.4338  0.2957  1.5476
 4650SOL     OW14633   5.159   5.114   2.002 -0.0309  0.5274  0.6840
 4650SOL    HW114634   5.204   5.030   2.015  1.0697  0.9298 -0.3408
 4650SOL    HW214635   5.101   5.099   1.928  0.7249  0.8535  0.0059
 4651SOL     OW14636   4.748   0.841   3.026 -0.1460  0.5380  0.1713
 4651SOL    HW114637   4.782   0.872   3.109 -0.9453  0.4867  0.5291
 4651SOL    HW214638   4.709   0.919   2.986  0.7116  0.6837 -0.4112
 4652SOL     OW14639   5.305   4.321   5.878  0.1354  0.6379 -0.1557
 4652SOL    HW114640   5.378   4.365   5.921 -0.0204  0.5471  0.2073
 4652SOL    HW214641   5.331   4.314   5.786  0.7868  0.1696  0.0635
 4653SOL     OW14642   2.689   2.400   0.606 -1.1401 -0.0091 -0.2328
 4653SOL    HW114643   2.650   2.398   0.519 -1.8020  2.0765 -0.0377
 4653SOL    HW214644   2.625   2.355   0.662 -1.1597 -0.5020 -0.6455
 4654SOL     OW14645   3.468   1.641   4.339 -0.3484 -0.0673 -0.5998
 4654SOL    HW114646   3.438   1.579   4.272  0.2352 -2.5403  1.2881
 4654SOL    HW214647   3.394   1.651   4.398 -0.4071  0.9940 -0.8466
 4655SOL     OW14648   3.199   3.107   1.539  0.4841 -0.3058 -0.4885
 4655SOL    HW114649   3.135   3.052   1.584 -0.0938  0.0516 -0.8652
 4655SOL    HW214650   3.274   3.048   1.525  0.3256 -0.6694  0.1295
 4656SOL     OW14651   0.028   0.902   4.916 -0.0074 -0.1845 -0.3642
 4656SOL    HW114652   0.104   0.949   4.882  0.5238 -0.7634  0.0117
 4656SOL    HW214653   0.015   0.830   4.854  0.6509 -0.9438  0.3608
 4657SOL     OW14654   4.123   3.756   6.249  0.4190  0.0837 -0.8006
 4657SOL    HW114655   4.150   3.750   6.157  3.1218  1.4584 -0.1965
 4657SOL    HW214656   4.196   3.720   6.298 -0.5303  0.3572  0.8897
 4658SOL     OW14657   2.658   0.375   4.219 -0.1186 -0.4068 -0.2065
 4658SOL    HW114658   2.675   0.372   4.124  0.8089 -0.4097 -0.0480
 4658SOL    HW214659   2.599   0.302   4.235  0.9517 -1.3839 -0.5545
 4659SOL     OW14660   1.057   4.391   3.180 -0.0283 -0.0021 -0.0284
 4659SOL    HW114661   0.969   4.412   3.210 -0.4419  4.8100 -3.4596
 4659SOL    HW214662   1.045   4.320   3.117 -1.1550 -0.4424  0.6464
 4660SOL     OW14663   1.108   5.135   4.921 -0.5772 -0.2454 -0.2722
 4660SOL    HW114664   1.041   5.203   4.928  0.0320  0.4640 -1.0161
 4660SOL    HW214665   1.187   5.183   4.895  0.4012 -0.9467  1.2199
 4661SOL     OW14666   4.956   2.289   3.408  0.2455 -0.0889 -0.6223
 4661SOL    HW114667   4.963   2.204   3.364  0.6622 -1.2215  1.4856
 4661SOL    HW214668   5.029   2.340   3.371 -0.8577 -0.0635 -2.9596
 4662SOL     OW14669   3.616   5.338   3.534  0.3996  0.0383 -0.2237
 4662SOL    HW114670   3.626   5.379   3.619 -0.9052  1.2490 -0.6100
 4662SOL    HW214671   3.699   5.354   3.489  0.7707  0.1552  0.4939
 4663SOL     OW14672   2.877   6.261   4.045  0.9293 -0.1333 -0.3271
 4663SOL    HW114673   2.792   6.252   4.087  0.6082  0.4975 -0.8190
 4663SOL    HW214674   2.927   6.185   4.075 -0.0746 -0.9590 -0.6738
 4664SOL     OW14675   1.022   3.626   0.091  0.3025 -0.3223  0.1269
 4664SOL    HW114676   0.971   3.638   0.171  0.7901  0.5709  0.3253
 4664SOL    HW214677   1.072   3.708   0.083 -1.1382  0.4422 -2.1142
 4665SOL     OW14678   0.599   5.036   5.567 -0.0769  0.0541  0.0218
 4665SOL    HW114679   0.589   5.064   5.658 -1.3614 -0.3535  0.0226
 4665SOL    HW214680   0.513   5.051   5.527  0.3222 -0.2507 -0.9971
 4666SOL     OW14681   3.380   2.303   1.535 -0.3803 -0.1484  0.0751
 4666SOL    HW114682   3.337   2.347   1.608 -0.8419  0.2254 -0.4086
 4666SOL    HW214683   3.308   2.279   1.476  0.0502  0.4402 -0.7247
 4667SOL     OW14684   1.434   2.807   0.370  0.1576 -0.3644  0.5528
 4667SOL    HW114685   1.357   2.809   0.313 -0.5746 -0.9801  1.4723
 4667SOL    HW214686   1.475   2.892   0.359  0.1917 -0.5672 -1.0734
 4668SOL     OW14687   3.068   3.261   3.059  0.2060 -0.0415 -0.3035
 4668SOL    HW114688   3.052   3.222   3.145  1.4805  0.9685  0.4155
 4668SOL    HW214689   3.062   3.187   2.998  0.6492 -1.0159  0.8050
 4669SOL     OW14690   6.521   2.779   1.693 -0.1756  0.3069 -0.3481
 4669SOL    HW114691   6.433   2.747   1.673 -0.3926  1.1599 -0.8320
 4669SOL    HW214692   6.513   2.875   1.689  0.2824  0.4764  1.7482
 4670SOL     OW14693   6.797   6.261   1.880  0.0069 -0.1469 -0.2011
 4670SOL    HW114694   6.878   6.273   1.930 -0.1117 -0.0969 -0.0210
 4670SOL    HW214695   6.778   6.168   1.887 -0.6622  0.0625  0.8560
 4671SOL     OW14696   2.855   2.942   5.347  0.3951 -0.1530  0.2076
 4671SOL    HW114697   2.832   2.882   5.418 -2.0785  0.2875 -0.1181
 4671SOL    HW214698   2.875   3.025   5.391 -0.0795 -0.1675  0.4588
 4672SOL     OW14699   4.195   2.271   0.089 -0.0782 -0.0685  0.3509
 4672SOL    HW114700   4.248   2.333   0.139 -0.0041 -0.7650  1.1586
 4672SOL    HW214701   4.123   2.323   0.054  1.1415  0.8941 -0.7873
 4673SOL     OW14702   6.280   5.640   0.529  0.2381 -0.3295  0.3304
 4673SOL    HW114703   6.204   5.626   0.586 -0.5735  0.6458 -0.4720
 4673SOL    HW214704   6.251   5.706   0.466  1.0997 -1.3716 -1.2246
 4674SOL     OW14705   5.023   0.503   0.273  0.4317 -0.4967 -0.5174
 4674SOL    HW114706   4.982   0.468   0.194  0.1598 -0.3127 -0.4600
 4674SOL    HW214707   5.092   0.561   0.240  0.1724 -0.2458 -0.6232
 4675SOL     OW14708   3.914   6.315   4.921 -0.5096  0.0756 -0.4331
 4675SOL    HW114709   3.933   6.235   4.872 -1.8967  0.4576 -1.6806
 4675SOL    HW214710   3.999   6.354   4.939  0.2648 -2.1658  1.0919
 4676SOL     OW14711   6.225   4.697   3.421  0.0013  0.3022  0.0722
 4676SOL    HW114712   6.184   4.784   3.422 -1.0278 -0.1538 -0.2935
 4676SOL    HW214713   6.181   4.649   3.492  1.1622  0.3276  0.8343
 4677SOL     OW14714   6.877   0.794   4.049  0.0999 -0.6313  0.3806
 4677SOL    HW114715   6.838   0.846   3.979  0.5496  0.0074  0.5901
 4677SOL    HW214716   6.897   0.710   4.009  2.7683  0.5529 -1.0151
 4678SOL     OW14717   6.833   0.016   2.942  0.1625  0.1655 -0.2506
 4678SOL    HW114718   6.823   0.022   3.037  0.2665 -0.3947 -0.2007
 4678SOL    HW214719   6.903  -0.048   2.929 -0.8716 -0.9229 -0.7238
 4679SOL     OW14720   6.418   3.190   4.757 -0.2599  0.1627 -0.3700
 4679SOL    HW114721   6.424   3.190   4.661  1.0698 -4.3608 -0.5260
 4679SOL    HW214722   6.505   3.163   4.787 -1.3131 -1.0394  1.8960
 4680SOL     OW14723   1.647   2.622   1.534  0.2858 -0.2557  0.0604
 4680SOL    HW114724   1.718   2.686   1.527  0.7104 -0.7485 -0.1687
 4680SOL    HW214725   1.668   2.555   1.469  0.1227 -0.9022  0.6589
 4681SOL     OW14726   2.525   6.190   0.833  0.4843  0.1025 -0.4764
 4681SOL    HW114727   2.606   6.200   0.783  0.9785  0.5216  0.3745
 4681SOL    HW214728   2.516   6.273   0.879 -1.3348  0.6977 -1.8242
 4682SOL     OW14729   0.885   4.006   2.443  0.1614 -0.3114  1.1505
 4682SOL    HW114730   0.826   4.077   2.417  1.1671  0.1917  0.1705
 4682SOL    HW214731   0.827   3.940   2.481 -0.8978  0.6510  1.2776
 4683SOL     OW14732   4.040   6.872   6.454  0.2683 -0.5988 -0.5648
 4683SOL    HW114733   3.945   6.863   6.456  0.2055 -1.1480 -2.9430
 4683SOL    HW214734   4.073   6.782   6.453  0.7705 -0.4161 -0.7901
 4684SOL     OW14735   0.417   4.171   1.556 -0.4510  0.1256 -0.3718
 4684SOL    HW114736   0.376   4.108   1.497 -2.3739  0.7258  0.2553
 4684SOL    HW214737   0.379   4.153   1.642  0.0205  1.2226  0.0867
 4685SOL     OW14738   4.456   0.673   1.691  0.0708  0.4040  0.0395
 4685SOL    HW114739   4.388   0.621   1.734 -1.2539  0.0476 -2.3228
 4685SOL    HW214740   4.456   0.756   1.738 -0.2609 -0.4472  1.6251
 4686SOL     OW14741   4.386   3.691   6.390  0.1999 -0.1894  0.2556
 4686SOL    HW114742   4.466   3.704   6.441  0.8212  1.0655 -0.9680
 4686SOL    HW214743   4.417   3.676   6.301 -0.9294  0.7050 -0.3081
 4687SOL     OW14744   4.426   2.279   6.484  0.0559 -1.0734 -0.4135
 4687SOL    HW114745   4.396   2.319   6.565  0.7518 -0.7883 -0.2917
 4687SOL    HW214746   4.423   2.350   6.419 -2.1096 -1.6817 -1.0801
 4688SOL     OW14747   0.591   5.081   2.387 -0.2314 -0.4702  0.1576
 4688SOL    HW114748   0.504   5.107   2.419 -0.8338 -0.6469 -1.2544
 4688SOL    HW214749   0.630   5.033   2.460 -1.6964 -1.1929  0.5045
 4689SOL     OW14750   4.000   4.435   3.640  0.0717  0.2046  0.2627
 4689SOL    HW114751   3.961   4.380   3.572 -1.4933  0.4905  0.8628
 4689SOL    HW214752   4.034   4.511   3.594  1.4050 -0.7898 -0.4691
 4690SOL     OW14753   4.215   3.248   4.937  0.4285  0.2278  0.2765
 4690SOL    HW114754   4.200   3.324   4.881  2.3711  0.6141  0.2137
 4690SOL    HW214755   4.248   3.180   4.878  0.1031 -0.2049  0.5778
 4691SOL     OW14756   1.079   1.551   6.794 -0.1669 -0.5197 -0.4976
 4691SOL    HW114757   1.080   1.646   6.801 -1.2142 -0.5368  0.0214
 4691SOL    HW214758   1.152   1.531   6.736 -0.4164  0.6504 -1.2527
 4692SOL     OW14759   5.062   3.925   0.836 -0.4652 -0.5053 -0.4252
 4692SOL    HW114760   4.984   3.981   0.840 -0.8765 -1.1098  0.4848
 4692SOL    HW214761   5.124   3.974   0.783 -0.1967  1.6209  1.6694
 4693SOL     OW14762   0.791   0.764   1.668 -0.2133  0.0301 -0.3098
 4693SOL    HW114763   0.798   0.685   1.722 -0.7170 -1.2035 -1.9723
 4693SOL    HW214764   0.726   0.741   1.601  0.3589  1.5152 -1.4179
 4694SOL     OW14765   4.570   4.369   1.739 -0.1065  0.9508  0.4166
 4694SOL    HW114766   4.663   4.389   1.724 -0.1411  0.6647 -0.2014
 4694SOL    HW214767   4.536   4.345   1.652 -0.5235  0.0774  0.8129
 4695SOL     OW14768   3.360   5.622   3.239  0.1782 -0.3482 -0.2371
 4695SOL    HW114769   3.332   5.544   3.191  2.0453 -0.3044 -1.5275
 4695SOL    HW214770   3.298   5.630   3.311 -2.2874 -0.9148 -2.1521
 4696SOL     OW14771   0.390   0.133   0.786 -0.1610  0.1139 -0.1366
 4696SOL    HW114772   0.321   0.199   0.792 -2.2022 -1.8942  0.1817
 4696SOL    HW214773   0.382   0.098   0.697  1.4175  0.8067 -0.5686
 4697SOL     OW14774   2.611   0.313   4.508 -0.3770 -0.0405 -0.0866
 4697SOL    HW114775   2.650   0.294   4.593 -1.2606  1.0371  0.5858
 4697SOL    HW214776   2.569   0.231   4.481 -1.4329  0.0249  1.2624
 4698SOL     OW14777   1.085   3.907   4.835 -0.2060  0.2728  0.0081
 4698SOL    HW114778   1.160   3.856   4.804  0.2675  0.7946  0.2799
 4698SOL    HW214779   1.059   3.863   4.917  0.1779  0.4397  0.2224
 4699SOL     OW14780   3.843   4.380   5.935 -0.6488  0.1608  0.1842
 4699SOL    HW114781   3.865   4.448   5.871 -1.6580  1.5331  1.2092
 4699SOL    HW214782   3.906   4.393   6.006 -0.6919 -0.1318  0.2765
 4700SOL     OW14783   6.591   0.284   4.396 -0.7593 -0.3292 -0.1465
 4700SOL    HW114784   6.575   0.290   4.302  0.2793 -0.2726 -0.3295
 4700SOL    HW214785   6.641   0.203   4.407  0.6363  0.5394  0.1319
 4701SOL     OW14786   3.501   1.928   5.257 -0.0327 -0.0810  0.2039
 4701SOL    HW114787   3.518   1.862   5.189  1.0092 -0.0126  0.3931
 4701SOL    HW214788   3.519   2.012   5.214 -0.1643  0.0150  0.3323
 4702SOL     OW14789   3.406   4.262   5.844 -0.5939 -0.1991  0.1239
 4702SOL    HW114790   3.332   4.315   5.814 -0.7844 -0.5640 -0.0569
 4702SOL    HW214791   3.480   4.294   5.792 -0.8381 -0.5417 -0.4524
 4703SOL     OW14792   4.741   3.979   4.188  0.1196 -0.0257  0.1332
 4703SOL    HW114793   4.824   3.960   4.231  0.3929 -0.8547 -0.7198
 4703SOL    HW214794   4.764   3.987   4.095 -0.6432  0.4877 -0.0178
 4704SOL     OW14795   6.147   4.398   1.018 -0.5281  0.2072  0.4504
 4704SOL    HW114796   6.164   4.370   0.928 -1.6949 -0.8195  0.5185
 4704SOL    HW214797   6.089   4.473   1.009  0.5554  1.0515  0.3276
 4705SOL     OW14798   6.182   1.181   5.813  0.4504 -0.4140  0.2525
 4705SOL    HW114799   6.244   1.109   5.823 -0.4176 -1.0627  1.1415
 4705SOL    HW214800   6.236   1.260   5.813  1.3515 -1.0218 -0.0244
 4706SOL     OW14801   2.443   1.882   6.050 -0.2065 -0.1598 -0.0419
 4706SOL    HW114802   2.420   1.973   6.028 -0.5261 -0.6705 -1.9367
 4706SOL    HW214803   2.370   1.853   6.105 -0.8410  0.2981 -0.6149
 4707SOL     OW14804   0.207   3.939   0.412 -0.3610  0.1553 -0.0352
 4707SOL    HW114805   0.276   3.877   0.438  1.7933  2.2215 -0.5055
 4707SOL    HW214806   0.169   3.969   0.494 -0.7426 -0.9687  0.2302
 4708SOL     OW14807   2.106   5.366   6.079 -0.3552  0.5858  0.5330
 4708SOL    HW114808   2.063   5.284   6.101 -1.6046  1.2034  0.4422
 4708SOL    HW214809   2.199   5.350   6.098 -0.5526 -0.8940  0.3264
 4709SOL     OW14810   4.628   2.295   5.826 -0.4698  0.1538 -0.1329
 4709SOL    HW114811   4.584   2.380   5.836  1.3295  1.0418  0.6378
 4709SOL    HW214812   4.721   2.316   5.816  0.1949 -1.7612  1.3175
 4710SOL     OW14813   3.408   0.743   1.693  0.0449  0.2083 -0.4899
 4710SOL    HW114814   3.368   0.665   1.732 -0.2465  0.1676 -0.8596
 4710SOL    HW214815   3.337   0.807   1.688 -0.0991 -0.0122 -1.5535
 4711SOL     OW14816   1.833   5.602   4.289 -0.3785  0.2415 -0.4465
 4711SOL    HW114817   1.884   5.655   4.351 -1.5743  0.2512  0.5690
 4711SOL    HW214818   1.843   5.647   4.205  1.2441  0.2466 -0.2707
 4712SOL     OW14819   3.225   1.595   2.376 -0.4409  0.1872  0.0429
 4712SOL    HW114820   3.267   1.600   2.290 -0.8488 -0.1808 -0.1855
 4712SOL    HW214821   3.245   1.678   2.418  0.5140  0.0277 -0.0557
 4713SOL     OW14822   2.336   5.011   6.220 -0.4394 -0.2732  0.9623
 4713SOL    HW114823   2.257   4.998   6.168 -0.7628  1.8377  0.8425
 4713SOL    HW214824   2.337   5.105   6.239  1.9776 -0.2625  1.0566
 4714SOL     OW14825   6.378   5.032   6.421  0.3045  0.0186  0.7041
 4714SOL    HW114826   6.447   5.052   6.483  1.0708 -0.4712  0.0239
 4714SOL    HW214827   6.378   5.105   6.360 -0.8148  0.7742  1.5592
 4715SOL     OW14828   6.782   2.914   4.401 -0.0362  0.6555  0.4448
 4715SOL    HW114829   6.694   2.931   4.366  0.0532  0.5986  0.1892
 4715SOL    HW214830   6.780   2.821   4.427 -0.6182  1.0968  2.1144
 4716SOL     OW14831   2.677   6.379   3.602  0.6636  0.4504  0.4097
 4716SOL    HW114832   2.721   6.458   3.573  2.5173 -0.5502  0.3828
 4716SOL    HW214833   2.651   6.397   3.693 -1.2662  1.9887 -0.3805
 4717SOL     OW14834   6.341   4.755   5.963 -0.1328 -0.8327  0.3327
 4717SOL    HW114835   6.382   4.820   5.907  0.7878 -2.2277 -0.6852
 4717SOL    HW214836   6.356   4.786   6.052  0.7757  0.0493 -0.1233
 4718SOL     OW14837   5.982   4.556   4.871 -0.1341 -0.7911 -0.3013
 4718SOL    HW114838   6.003   4.597   4.787  0.2198 -1.6044 -0.6262
 4718SOL    HW214839   5.887   4.567   4.880 -0.3251 -1.4820 -1.2528
 4719SOL     OW14840   5.497   5.111   5.758 -0.3888 -0.0130 -0.1739
 4719SOL    HW114841   5.430   5.069   5.811 -2.0558  2.4572 -0.1680
 4719SOL    HW214842   5.492   5.067   5.674  1.0940 -2.8050  1.0590
 4720SOL     OW14843   4.447   5.307   1.871 -0.1321 -0.0153  0.3258
 4720SOL    HW114844   4.387   5.237   1.847 -0.3196  0.2928 -0.1082
 4720SOL    HW214845   4.532   5.278   1.839 -0.4539  0.6058 -1.1911
 4721SOL     OW14846   6.276   4.273   5.496 -0.5254 -0.2059 -0.0559
 4721SOL    HW114847   6.201   4.321   5.531 -0.8710 -0.1133 -0.9218
 4721SOL    HW214848   6.249   4.246   5.409  1.0181  1.2324 -1.0429
 4722SOL     OW14849   0.050   0.245   0.501  0.5311 -0.1203  0.5480
 4722SOL    HW114850   0.067   0.169   0.555  1.9424  0.5229  1.0545
 4722SOL    HW214851   0.060   0.320   0.560  0.1957  0.5033 -0.1634
 4723SOL     OW14852   4.144   4.064   6.316  0.2977  0.5021 -0.3866
 4723SOL    HW114853   4.095   4.065   6.398  2.4626 -0.2994  1.0188
 4723SOL    HW214854   4.165   3.971   6.302  4.1750  0.9772  0.9680
 4724SOL     OW14855   5.440   5.510   4.502 -0.1299  0.4110 -0.3298
 4724SOL    HW114856   5.507   5.532   4.437  0.0950 -0.3132 -0.3531
 4724SOL    HW214857   5.456   5.570   4.574 -0.2819  1.1184 -0.8754
 4725SOL     OW14858   0.882   3.031   3.427 -0.0415  0.4942  0.5248
 4725SOL    HW114859   0.968   3.071   3.416 -0.7346  2.6251  2.1604
 4725SOL    HW214860   0.887   2.986   3.511 -0.4065  0.2168  0.4033
 4726SOL     OW14861   6.730   1.040   5.550 -0.3576  0.8040 -0.6001
 4726SOL    HW114862   6.690   1.105   5.492 -1.1419  1.0520  0.1995
 4726SOL    HW214863   6.809   1.082   5.582 -0.0487  0.7604 -1.2932
 4727SOL     OW14864   2.153   3.185   4.667  0.0482 -0.0008  0.2783
 4727SOL    HW114865   2.233   3.204   4.716 -1.2493 -0.8772  2.9699
 4727SOL    HW214866   2.172   3.211   4.577  2.9626  0.7891  1.0343
 4728SOL     OW14867   0.731   3.152   5.029  0.0114  0.1111  0.5874
 4728SOL    HW114868   0.690   3.078   5.074  1.4307  0.0764  1.9154
 4728SOL    HW214869   0.661   3.215   5.017 -0.6806 -0.4118  1.7535
 4729SOL     OW14870   2.148   3.821   6.698 -0.3395 -0.2787  0.3612
 4729SOL    HW114871   2.136   3.902   6.648 -0.6338 -1.9827 -2.5496
 4729SOL    HW214872   2.243   3.816   6.711 -0.4063  1.0674  1.6384
 4730SOL     OW14873   6.235   0.644   4.890 -0.0878 -0.2898  0.3683
 4730SOL    HW114874   6.269   0.562   4.854  2.9369  0.8361  0.3188
 4730SOL    HW214875   6.226   0.628   4.984 -0.4459 -0.9528  0.2230
 4731SOL     OW14876   5.629   1.412   2.006 -0.1225  0.3625 -0.6931
 4731SOL    HW114877   5.683   1.420   2.085  1.9991 -0.0543 -2.0120
 4731SOL    HW214878   5.636   1.497   1.964 -1.1001  0.5268 -0.5386
 4732SOL     OW14879   5.259   6.792   1.671 -0.6865  0.6144 -0.1830
 4732SOL    HW114880   5.291   6.723   1.613 -1.2732 -0.0240  0.2371
 4732SOL    HW214881   5.249   6.749   1.756 -1.0333  1.2272  0.0917
 4733SOL     OW14882   5.385   1.946   6.015 -0.3757  0.3424  0.7868
 4733SOL    HW114883   5.354   1.996   5.939  0.2354 -0.1656  0.1900
 4733SOL    HW214884   5.348   1.858   6.002 -0.5822  0.3548  1.2798
 4734SOL     OW14885   1.137   1.563   6.477 -0.2853  0.6938  0.1476
 4734SOL    HW114886   1.196   1.503   6.524 -0.5871  0.7533  0.6086
 4734SOL    HW214887   1.195   1.632   6.445  0.2131 -0.3091 -1.1899
 4735SOL     OW14888   4.883   3.960   2.165  0.0477  0.5725  0.5773
 4735SOL    HW114889   4.889   3.922   2.077 -0.5275  2.0032 -0.1062
 4735SOL    HW214890   4.811   3.912   2.206 -0.3133  0.5413 -0.0769
 4736SOL     OW14891   1.573   4.201   6.798 -0.3628  0.1965  0.6942
 4736SOL    HW114892   1.514   4.268   6.832 -0.8077 -0.2170  0.7388
 4736SOL    HW214893   1.650   4.206   6.855 -0.8564 -0.0882  1.4051
 4737SOL     OW14894   1.456   5.176   2.861 -0.5302  0.0003 -0.3029
 4737SOL    HW114895   1.475   5.092   2.904 -1.0821 -0.3186 -0.6607
 4737SOL    HW214896   1.387   5.155   2.797 -1.2451  0.8795  0.1558
 4738SOL     OW14897   1.248   6.598   0.114 -0.5533 -0.3958  0.1987
 4738SOL    HW114898   1.334   6.621   0.080 -0.3495 -1.4958 -0.0747
 4738SOL    HW214899   1.212   6.536   0.050 -0.8527 -1.2161  1.1344
 4739SOL     OW14900   1.360   1.806   5.877 -0.4646 -0.1817 -0.4788
 4739SOL    HW114901   1.364   1.847   5.964  2.1563 -2.9484  0.8900
 4739SOL    HW214902   1.413   1.862   5.821 -1.9629  1.4945 -0.3118
 4740SOL     OW14903   2.017   3.761   5.401 -0.5413  0.9472  0.2953
 4740SOL    HW114904   1.996   3.788   5.311 -0.5697 -1.2122 -0.3995
 4740SOL    HW214905   2.093   3.814   5.424 -1.4484  2.6341 -0.3976
 4741SOL     OW14906   6.681   4.487   4.725  0.3614 -1.0311 -0.6206
 4741SOL    HW114907   6.748   4.420   4.739  1.1693  0.0104  0.5587
 4741SOL    HW214908   6.651   4.510   4.812  2.9625  3.0166 -0.5430
 4742SOL     OW14909   3.326   3.545   0.737  0.5074  0.1756  0.5561
 4742SOL    HW114910   3.233   3.559   0.753  0.6897 -0.8591  3.0554
 4742SOL    HW214911   3.369   3.620   0.778  0.8416 -0.2995  1.0881
 4743SOL     OW14912   2.049   1.928   4.284 -0.1797 -0.0451  0.4644
 4743SOL    HW114913   2.099   1.877   4.348 -0.2665 -0.6910  0.0221
 4743SOL    HW214914   1.958   1.906   4.302 -0.1699 -0.8164 -0.3608
 4744SOL     OW14915   0.742   5.261   5.474  0.3357 -0.1692  0.1097
 4744SOL    HW114916   0.690   5.190   5.511  0.5180 -0.3986 -0.0661
 4744SOL    HW214917   0.815   5.272   5.535 -1.2288  1.8954  1.7635
 4745SOL     OW14918   1.014   6.304   0.671  0.0008 -0.0892  0.0525
 4745SOL    HW114919   1.017   6.224   0.617  0.4772 -1.3871  1.8891
 4745SOL    HW214920   1.106   6.326   0.686 -0.1296  0.4562  0.0556
 4746SOL     OW14921   3.772   0.666   0.476 -0.3690  0.0083 -0.3034
 4746SOL    HW114922   3.828   0.737   0.508  0.8288 -0.3814 -1.4861
 4746SOL    HW214923   3.690   0.711   0.451 -0.9211  0.4789  2.0865
 4747SOL     OW14924   0.165   5.651   2.857 -0.2240  0.5883 -0.2056
 4747SOL    HW114925   0.162   5.734   2.905 -0.8683 -0.1981  1.1771
 4747SOL    HW214926   0.091   5.655   2.796 -1.4850  0.2583  1.2423
 4748SOL     OW14927   2.209   2.242   3.863  0.7311  0.0434  0.6669
 4748SOL    HW114928   2.206   2.316   3.924 -1.3507  0.5974 -0.0002
 4748SOL    HW214929   2.217   2.165   3.919 -1.3311  0.5208  1.7145
 4749SOL     OW14930   3.602   3.831   4.479 -0.5535  0.6181  0.3315
 4749SOL    HW114931   3.602   3.917   4.520 -1.6189  1.1415 -0.7058
 4749SOL    HW214932   3.681   3.829   4.426  0.1073  0.4694  1.3012
 4750SOL     OW14933   3.311   3.181   2.833 -0.2811 -0.5279 -0.4813
 4750SOL    HW114934   3.392   3.218   2.868 -1.5285  1.3386  0.5933
 4750SOL    HW214935   3.321   3.186   2.738  0.0877  1.6150 -0.3793
 4751SOL     OW14936   3.590   1.538   4.607 -0.3391  0.2512  0.0945
 4751SOL    HW114937   3.517   1.600   4.613  0.5290  1.4677 -1.2535
 4751SOL    HW214938   3.619   1.527   4.698 -1.4209  0.6941  0.5113
 4752SOL     OW14939   3.017   1.761   1.043 -0.7457 -0.1381  0.1184
 4752SOL    HW114940   3.071   1.803   0.976  0.0680  0.0804  0.8925
 4752SOL    HW214941   3.010   1.670   1.015  0.9020 -0.4227  0.5141
 4753SOL     OW14942   6.543   4.526   4.980 -0.3555  0.4418 -0.3704
 4753SOL    HW114943   6.471   4.515   4.917  0.5068  1.4373 -1.5850
 4753SOL    HW214944   6.499   4.551   5.062 -1.3896  1.4834 -1.2026
 4754SOL     OW14945   4.585   6.527   3.592  0.3932 -0.1913  0.0055
 4754SOL    HW114946   4.614   6.475   3.517  1.9306  1.7773 -0.8258
 4754SOL    HW214947   4.648   6.506   3.661  1.4646  1.0864 -0.5618
 4755SOL     OW14948   4.866   5.016   6.648  0.3748  0.3597  0.0809
 4755SOL    HW114949   4.905   4.996   6.733  3.4815 -0.0251 -1.3030
 4755SOL    HW214950   4.854   4.931   6.606 -1.6058  0.5121  0.2473
 4756SOL     OW14951   4.985   5.178   4.379  0.0350 -0.1274  0.4998
 4756SOL    HW114952   4.891   5.175   4.361  0.2223  1.9672 -1.3194
 4756SOL    HW214953   4.992   5.227   4.461 -0.4511 -0.1711  0.5679
 4757SOL     OW14954   2.224   6.042   4.351  1.1438 -0.6587  0.8859
 4757SOL    HW114955   2.131   6.034   4.330  0.9734  0.6138  1.0749
 4757SOL    HW214956   2.256   5.952   4.355 -0.2495 -1.1508  1.5636
 4758SOL     OW14957   2.901   2.969   3.867  0.1317  0.0774 -0.2726
 4758SOL    HW114958   2.856   2.916   3.801  0.4929 -0.6311  0.0410
 4758SOL    HW214959   2.833   3.027   3.901 -0.4556 -0.6814 -0.1100
 4759SOL     OW14960   4.031   5.149   6.021 -0.1240  0.4255  0.1531
 4759SOL    HW114961   4.047   5.072   6.076  1.2401  0.4729 -0.1526
 4759SOL    HW214962   4.011   5.113   5.934 -1.1782  0.3837  0.3999
 4760SOL     OW14963   0.850   4.178   4.094 -0.2659  0.1588 -0.3429
 4760SOL    HW114964   0.831   4.271   4.099 -0.8762  0.0327 -0.2732
 4760SOL    HW214965   0.944   4.172   4.111 -0.3373  0.7017  0.2802
 4761SOL     OW14966   1.630   1.112   3.858  0.2634  0.1937 -0.4871
 4761SOL    HW114967   1.579   1.137   3.935  0.3132 -0.8594 -0.0844
 4761SOL    HW214968   1.701   1.058   3.894  1.1404  0.9042 -1.1283
 4762SOL     OW14969   2.784   6.775   5.279  0.0854  0.2767  0.4312
 4762SOL    HW114970   2.766   6.843   5.215  1.2049  0.3310  0.1718
 4762SOL    HW214971   2.751   6.810   5.362 -1.6118  0.0985 -0.1241
 4763SOL     OW14972   3.027   1.037   1.466 -0.2342 -0.6650 -0.3347
 4763SOL    HW114973   3.066   1.064   1.383  0.8254 -2.6258 -0.5289
 4763SOL    HW214974   2.989   1.117   1.502 -1.3595  0.1136 -3.0137
 4764SOL     OW14975   0.770   1.062   4.518  0.1375 -0.1908 -0.4378
 4764SOL    HW114976   0.804   1.008   4.448 -2.3867 -1.4673 -0.8084
 4764SOL    HW214977   0.750   1.000   4.589  0.9676  0.8322  0.7399
 4765SOL     OW14978   0.123   5.831   5.668  0.1983 -0.0607  0.2810
 4765SOL    HW114979   0.114   5.901   5.604 -0.5864  1.0468  1.5584
 4765SOL    HW214980   0.204   5.786   5.643 -0.2410  0.1344 -1.6475
 4766SOL     OW14981   1.037   5.347   1.666 -0.3975 -0.5129  0.0554
 4766SOL    HW114982   1.024   5.273   1.606  0.0236 -1.3256  0.9340
 4766SOL    HW214983   0.991   5.420   1.625 -0.8659 -1.2773 -0.8125
 4767SOL     OW14984   4.242   0.416   2.801  0.1528 -0.4486 -0.0117
 4767SOL    HW114985   4.147   0.426   2.808  0.2647  0.0084  0.9920
 4767SOL    HW214986   4.261   0.333   2.844  0.2047 -0.5855 -0.2949
 4768SOL     OW14987   0.819   2.152   1.676  0.3948 -0.2120  0.4353
 4768SOL    HW114988   0.786   2.084   1.735  0.5275  1.2307  2.2981
 4768SOL    HW214989   0.740   2.194   1.641  0.2034  0.9575  2.1355
 4769SOL     OW14990   3.621   3.653   0.767 -0.4507 -0.1571  0.0644
 4769SOL    HW114991   3.645   3.565   0.794  0.8374 -0.3764 -1.6613
 4769SOL    HW214992   3.595   3.645   0.675  2.5202  1.6386 -1.0502
 4770SOL     OW14993   4.572   2.430   6.190 -0.3102 -0.4503 -0.4428
 4770SOL    HW114994   4.639   2.450   6.255 -0.4619 -0.0781 -0.4008
 4770SOL    HW214995   4.588   2.491   6.119 -0.8861 -0.0440 -0.2359
 4771SOL     OW14996   5.109   0.081   6.339 -0.3603 -0.6999  0.3782
 4771SOL    HW114997   5.192   0.079   6.386 -0.3004 -2.8800  0.2574
 4771SOL    HW214998   5.044   0.055   6.405 -0.8788  0.2450  0.2700
 4772SOL     OW14999   4.234   2.980   4.258  0.0535 -0.0109 -0.2516
 4772SOL    HW115000   4.241   2.954   4.350  0.3353 -2.8544 -0.9869
 4772SOL    HW215001   4.146   2.953   4.232 -0.0421  0.8131 -0.8338
 4773SOL     OW15002   3.942   6.273   0.307  0.6711  0.5428 -0.1820
 4773SOL    HW115003   3.876   6.209   0.334  0.2068  1.5797  1.2642
 4773SOL    HW215004   3.987   6.296   0.388 -0.5494  3.5505 -0.2470
 4774SOL     OW15005   3.988   1.476   1.291  0.5645 -0.1225 -0.5850
 4774SOL    HW115006   4.002   1.558   1.339  0.2536  0.0522 -0.7944
 4774SOL    HW215007   3.924   1.428   1.344  1.5666 -0.7175  0.1242
 4775SOL     OW15008   5.569   5.864   5.145  0.2826  0.0935  0.1536
 4775SOL    HW115009   5.564   5.784   5.197 -0.4764 -0.9766 -1.4771
 4775SOL    HW215010   5.605   5.836   5.061 -1.6570  1.0861 -1.0850
 4776SOL     OW15011   0.466   0.440   5.108 -0.9897  0.4086  0.3762
 4776SOL    HW115012   0.555   0.455   5.076 -1.1199  1.7932  0.5725
 4776SOL    HW215013   0.416   0.514   5.074 -1.6910  0.5568  1.6503
 4777SOL     OW15014   0.367   5.614   2.689 -0.3949 -0.4331  0.2681
 4777SOL    HW115015   0.346   5.702   2.659 -0.3383 -0.2082  0.8791
 4777SOL    HW215016   0.294   5.589   2.745  0.8141  0.2890  2.2742
 4778SOL     OW15017   2.248   3.625   1.960  0.2497  0.4071 -0.7390
 4778SOL    HW115018   2.188   3.602   1.889 -0.0614  0.7535 -0.5925
 4778SOL    HW215019   2.204   3.697   2.006 -0.0895 -0.5760  0.5129
 4779SOL     OW15020   0.794   5.325   0.192 -0.5798  0.3764 -0.0411
 4779SOL    HW115021   0.848   5.366   0.260 -0.4319 -0.2191  0.2101
 4779SOL    HW215022   0.854   5.313   0.118 -0.2084 -0.7488  0.4143
 4780SOL     OW15023   1.748   6.720   6.176  0.2593  0.2465  0.0141
 4780SOL    HW115024   1.742   6.761   6.090  2.9624 -1.5196 -1.1594
 4780SOL    HW215025   1.702   6.637   6.166 -0.9838  0.8020  0.8821
 4781SOL     OW15026   0.272   5.531   2.400  0.9520 -0.3631  0.3375
 4781SOL    HW115027   0.308   5.485   2.476  1.5436  1.5433  1.2613
 4781SOL    HW215028   0.300   5.621   2.411 -0.7035  0.3782 -1.0932
 4782SOL     OW15029   1.535   2.869   0.782  0.1552 -0.0765  0.6664
 4782SOL    HW115030   1.468   2.802   0.770  0.3675 -0.3434  0.9617
 4782SOL    HW215031   1.514   2.936   0.716  0.4735 -0.8462 -0.2308
 4783SOL     OW15032   0.068   4.243   0.763 -0.1892 -0.1236  0.7899
 4783SOL    HW115033   0.086   4.236   0.856  1.7031 -0.0529  0.4729
 4783SOL    HW215034   0.089   4.334   0.741  0.1247 -0.3440  0.1554
 4784SOL     OW15035   4.931   5.066   5.747  0.0928  0.0687  0.3540
 4784SOL    HW115036   4.902   5.044   5.658 -1.0640  2.4340  0.0806
 4784SOL    HW215037   4.918   5.160   5.754  2.0541  0.2623  2.3806
 4785SOL     OW15038   4.455   6.484   5.787 -0.0571 -0.4623 -0.0713
 4785SOL    HW115039   4.365   6.499   5.760 -0.1788  0.2824  0.7156
 4785SOL    HW215040   4.455   6.497   5.881  1.1741  1.2936 -0.2468
 4786SOL     OW15041   5.114   0.244   2.644  0.2749 -0.0365  0.0208
 4786SOL    HW115042   5.200   0.207   2.665  0.6357  0.5885 -0.2991
 4786SOL    HW215043   5.129   0.294   2.564 -0.0861  1.1696  0.6868
 4787SOL     OW15044   3.775   3.645   0.297  0.4720 -0.3260 -0.7691
 4787SOL    HW115045   3.681   3.655   0.285  0.4058 -1.4187 -1.3934
 4787SOL    HW215046   3.790   3.659   0.390 -0.1189  1.0805 -0.8618
 4788SOL     OW15047   4.431   0.520   5.726  0.8989  0.3500 -0.1207
 4788SOL    HW115048   4.370   0.519   5.653  0.1938  1.4459  0.4269
 4788SOL    HW215049   4.504   0.575   5.696  0.5523  0.9004  0.0330
 4789SOL     OW15050   2.627   0.654   2.618 -0.1945  0.0631 -0.2130
 4789SOL    HW115051   2.708   0.605   2.608  0.7820  1.3428  1.0494
 4789SOL    HW215052   2.560   0.598   2.578  0.9554 -1.9599  0.5537
 4790SOL     OW15053   2.684   3.541   5.767 -0.4391  0.1479 -0.0907
 4790SOL    HW115054   2.691   3.489   5.687 -0.7478 -1.6562  0.9790
 4790SOL    HW215055   2.770   3.532   5.809 -0.4000  0.7564 -0.0427
 4791SOL     OW15056   3.135   3.459   4.925  0.2123  0.1016 -0.5959
 4791SOL    HW115057   3.088   3.462   5.008 -0.9166 -1.4307 -1.1229
 4791SOL    HW215058   3.088   3.520   4.868 -0.8437 -0.9935 -0.9445
 4792SOL     OW15059   3.014   3.535   5.175  0.1582  0.4042 -0.0555
 4792SOL    HW115060   2.934   3.581   5.152 -0.4546 -0.2758  0.6357
 4792SOL    HW215061   3.074   3.603   5.203 -0.6839  0.8102  0.8301
 4793SOL     OW15062   6.314   2.700   3.915  0.0369  0.2652 -0.0006
 4793SOL    HW115063   6.279   2.617   3.883  0.4637  0.3915 -0.8342
 4793SOL    HW215064   6.382   2.676   3.977 -1.3494  0.0175  1.4661
 4794SOL     OW15065   4.020   0.007   5.765 -0.1067 -0.2034 -0.2441
 4794SOL    HW115066   4.078   0.073   5.803  1.2037 -1.8561  0.7837
 4794SOL    HW215067   4.075  -0.039   5.701 -1.1800  0.0643 -1.4072
 4795SOL     OW15068   2.068   0.111   3.902 -0.4016  0.1599 -0.3978
 4795SOL    HW115069   2.111   0.026   3.909  0.7727  0.7179 -0.7340
 4795SOL    HW215070   2.131   0.167   3.859  0.2980  2.1817  2.9177
 4796SOL     OW15071   0.615   3.107   2.085  0.2966  0.3727 -0.1952
 4796SOL    HW115072   0.684   3.040   2.085 -0.1373 -0.1130 -1.7826
 4796SOL    HW215073   0.580   3.105   1.996 -1.6775  0.7191  0.5248
 4797SOL     OW15074   5.256   1.323   0.745  0.0611 -0.0672 -0.3727
 4797SOL    HW115075   5.332   1.382   0.747  0.2781 -0.2651 -1.8163
 4797SOL    HW215076   5.269   1.270   0.666 -1.0129 -0.8727 -0.0241
 4798SOL     OW15077   3.604   0.383   6.067 -0.2727  0.0683  0.6224
 4798SOL    HW115078   3.685   0.350   6.106 -1.1647 -0.3440  2.2200
 4798SOL    HW215079   3.630   0.415   5.981  1.4461 -0.7341  0.8019
 4799SOL     OW15080   2.089   6.758   5.419 -0.5558 -0.1948 -0.4186
 4799SOL    HW115081   2.092   6.806   5.336 -0.5265 -1.4337 -1.1607
 4799SOL    HW215082   2.168   6.784   5.465 -0.7676  0.8068 -0.6008
 4800SOL     OW15083   0.863   2.227   3.198 -0.0015  0.6319  0.4860
 4800SOL    HW115084   0.857   2.149   3.143 -0.6379 -0.3084  1.8278
 4800SOL    HW215085   0.954   2.257   3.187  0.0349  0.1517 -0.6189
 4801SOL     OW15086   0.457   4.425   5.292  0.1942 -0.0237 -0.2908
 4801SOL    HW115087   0.493   4.337   5.299 -1.0158 -0.4263  1.8849
 4801SOL    HW215088   0.504   4.476   5.357  1.2038  1.1219 -1.8396
 4802SOL     OW15089   6.020   3.011   0.213  0.1446 -0.2028 -0.0582
 4802SOL    HW115090   6.099   2.965   0.185  1.0843  1.5293 -0.3743
 4802SOL    HW215091   6.025   3.010   0.309  1.3323  1.1085 -0.0719
 4803SOL     OW15092   1.483   0.152   4.061  0.4740  0.2597  0.0301
 4803SOL    HW115093   1.535   0.208   4.120  1.8697 -2.7612  1.9323
 4803SOL    HW215094   1.546   0.125   3.994 -0.5677  1.9720 -1.7361
 4804SOL     OW15095   1.067   3.133   1.130  0.1277  0.0128 -0.2032
 4804SOL    HW115096   1.159   3.112   1.114  0.3983 -0.3727  1.5892
 4804SOL    HW215097   1.066   3.172   1.218 -1.2764  1.1742 -0.6846
 4805SOL     OW15098   0.165   0.669   4.811  0.1456  0.0900  0.1558
 4805SOL    HW115099   0.196   0.580   4.797  0.3877  0.3219 -0.8264
 4805SOL    HW215100   0.113   0.689   4.733  2.4004  1.8054 -1.0020
 4806SOL     OW15101   4.299   0.762   3.937 -0.2391  0.1763 -0.1192
 4806SOL    HW115102   4.261   0.675   3.941 -3.1551  1.2419 -1.7787
 4806SOL    HW215103   4.266   0.807   4.014  1.5972 -0.2049  0.9627
 4807SOL     OW15104   4.933   0.003   0.071 -0.2689 -0.3230  0.0786
 4807SOL    HW115105   4.982  -0.079   0.084  0.2064 -0.4153 -1.9322
 4807SOL    HW215106   5.000   0.070   0.064 -0.5968  0.0409  0.3998
 4808SOL     OW15107   3.912   0.479   5.736  0.0686 -0.4779 -0.1885
 4808SOL    HW115108   3.887   0.571   5.736 -1.8878 -0.9578 -0.1978
 4808SOL    HW215109   3.887   0.447   5.823  2.1206 -0.6918  0.3707
 4809SOL     OW15110   4.201   1.675   4.029  0.0728 -0.0610  0.7863
 4809SOL    HW115111   4.208   1.602   4.091  1.2355 -0.3454  0.3500
 4809SOL    HW215112   4.177   1.634   3.946 -0.9846  0.2650  0.9091
 4810SOL     OW15113   5.364   0.953   3.743  0.0932  0.0036 -0.5589
 4810SOL    HW115114   5.277   0.915   3.756  0.7213 -0.8162  1.6326
 4810SOL    HW215115   5.415   0.883   3.702 -0.0214  0.1677 -0.9880
 4811SOL     OW15116   3.319   1.657   3.568 -0.5081 -0.7212 -0.2140
 4811SOL    HW115117   3.278   1.732   3.611 -0.1250 -0.0419 -1.0043
 4811SOL    HW215118   3.246   1.600   3.545 -1.2471  1.0636 -2.7657
 4812SOL     OW15119   1.626   6.766   3.358 -0.0062  0.0273 -0.5132
 4812SOL    HW115120   1.592   6.676   3.359 -0.9749  0.3676  0.9597
 4812SOL    HW215121   1.669   6.775   3.443 -0.9454  1.3147 -0.1544
 4813SOL     OW15122   0.339   1.564   3.992 -0.1494 -0.7925 -0.5332
 4813SOL    HW115123   0.362   1.475   4.019  0.6587 -0.4265  0.0348
 4813SOL    HW215124   0.408   1.589   3.930  0.6048  0.0411  0.5991
 4814SOL     OW15125   0.279   5.530   0.457  0.6800 -0.3460  0.1221
 4814SOL    HW115126   0.316   5.447   0.428  1.2772  0.4730 -1.5916
 4814SOL    HW215127   0.325   5.549   0.539  1.8250 -0.8736 -0.3710
 4815SOL     OW15128   1.022   1.083   4.737  0.5991  0.1996  0.2713
 4815SOL    HW115129   1.078   1.011   4.709  1.7044  0.8000  0.8576
 4815SOL    HW215130   1.042   1.154   4.675  0.5348  0.4293  0.5102
 4816SOL     OW15131   4.238   5.511   3.295 -0.2021  0.0831  0.0896
 4816SOL    HW115132   4.216   5.547   3.381 -0.7488 -0.7736  0.3132
 4816SOL    HW215133   4.230   5.586   3.236 -1.7319  0.2684  0.4890
 4817SOL     OW15134   2.051   5.136   6.709 -0.2788  0.0585 -0.1767
 4817SOL    HW115135   2.096   5.052   6.698 -0.9045 -0.2803 -0.2174
 4817SOL    HW215136   1.971   5.127   6.656 -0.1920  0.8060 -0.4465
 4818SOL     OW15137   6.840   0.496   3.979 -0.1556  0.5747 -0.0082
 4818SOL    HW115138   6.795   0.519   4.060  1.0998  0.7406  0.6795
 4818SOL    HW215139   6.900   0.426   4.005  0.7916  1.1392 -0.6108
 4819SOL     OW15140   3.994   5.176   5.076  0.6847  0.2302  0.2657
 4819SOL    HW115141   4.002   5.099   5.132 -1.2159 -0.1464  0.1012
 4819SOL    HW215142   4.076   5.180   5.027  0.3157 -2.4594 -0.6934
 4820SOL     OW15143   0.515   0.787   6.663 -0.3092  0.4286 -0.1717
 4820SOL    HW115144   0.459   0.799   6.739 -0.3862 -1.4948  0.1141
 4820SOL    HW215145   0.598   0.828   6.688 -1.0394  1.8734  0.0121
 4821SOL     OW15146   6.886   3.775   1.263 -0.2249 -0.0878  0.2382
 4821SOL    HW115147   6.849   3.798   1.348  0.3436 -0.0515  0.4789
 4821SOL    HW215148   6.932   3.693   1.278 -0.3657 -0.2285 -0.1021
 4822SOL     OW15149   3.162   3.314   2.055 -0.1490  0.5503 -0.0479
 4822SOL    HW115150   3.178   3.379   2.123 -3.3433  0.8076  0.6131
 4822SOL    HW215151   3.124   3.363   1.982 -2.7613 -0.4839  0.5189
 4823SOL     OW15152   3.202   6.655   3.257  0.0852 -0.1136  0.7137
 4823SOL    HW115153   3.182   6.600   3.182  1.6868  0.1896  0.0423
 4823SOL    HW215154   3.297   6.659   3.261  0.0433  0.3540  2.4169
 4824SOL     OW15155   6.835   3.417   0.981 -0.2872 -0.1552  0.0675
 4824SOL    HW115156   6.780   3.356   1.030  0.0409 -0.7932 -0.3510
 4824SOL    HW215157   6.772   3.472   0.934 -0.5825 -0.4575  0.0975
 4825SOL     OW15158   4.948   0.224   6.178 -0.0004  0.0258  0.0025
 4825SOL    HW115159   4.908   0.160   6.119 -0.6708 -1.3524  1.8713
 4825SOL    HW215160   5.002   0.172   6.238 -1.1161  1.0807  2.0188
 4826SOL     OW15161   3.622   5.450   5.116 -0.2662  0.1674  0.3340
 4826SOL    HW115162   3.676   5.383   5.157  0.7857  0.5178 -0.4128
 4826SOL    HW215163   3.627   5.430   5.022  0.0442  1.2612  0.1034
 4827SOL     OW15164   1.503   2.535   6.408  1.1497 -0.1508 -0.2752
 4827SOL    HW115165   1.527   2.468   6.344  3.2519  0.2315  0.0494
 4827SOL    HW215166   1.407   2.535   6.408  1.0894 -0.5383 -2.9941
 4828SOL     OW15167   6.635   5.021   1.748 -0.2045  0.2367 -0.3065
 4828SOL    HW115168   6.575   5.025   1.823  0.4010  0.8230  0.1611
 4828SOL    HW215169   6.579   5.006   1.672 -0.7361 -1.6096  0.3963
 4829SOL     OW15170   1.123   5.678   1.103 -0.1844  0.3135 -0.3682
 4829SOL    HW115171   1.067   5.609   1.140 -0.9906  0.3663 -1.4551
 4829SOL    HW215172   1.198   5.682   1.163 -1.5074  0.5312  1.3616
 4830SOL     OW15173   2.015   6.658   5.812  0.5779 -0.0811 -0.3607
 4830SOL    HW115174   1.925   6.650   5.780  0.7004  0.5307 -0.8840
 4830SOL    HW215175   2.029   6.579   5.864 -0.0173 -0.5566 -0.8975
 4831SOL     OW15176   6.732   3.942   3.297  0.2591 -0.0433 -0.1779
 4831SOL    HW115177   6.694   4.030   3.284 -0.0199 -0.3797 -1.8428
 4831SOL    HW215178   6.814   3.944   3.248 -0.5561 -1.2156 -1.6704
 4832SOL     OW15179   6.295   6.840   1.027 -0.1744  0.2169 -0.1624
 4832SOL    HW115180   6.210   6.813   1.063  1.7078 -1.6134  3.4257
 4832SOL    HW215181   6.311   6.780   0.955 -1.4079 -0.1214 -0.1903
 4833SOL     OW15182   2.714   2.482   1.093  0.2355 -0.2638  0.5734
 4833SOL    HW115183   2.709   2.427   1.014 -1.1479  0.0462  0.4153
 4833SOL    HW215184   2.778   2.438   1.149  2.5848  0.4282 -1.4042
 4834SOL     OW15185   0.361   5.157   5.462 -0.0073 -0.3484  0.0715
 4834SOL    HW115186   0.297   5.150   5.533  1.0956  1.5232  1.3659
 4834SOL    HW215187   0.313   5.199   5.391 -0.0230  2.1946  1.4614
 4835SOL     OW15188   4.881   5.742   2.632 -0.3213 -0.0999 -0.0150
 4835SOL    HW115189   4.792   5.730   2.666 -0.3985  0.5978  0.0403
 4835SOL    HW215190   4.876   5.714   2.541 -0.2714 -1.3516  0.3424
 4836SOL     OW15191   1.684   3.655   2.374  0.1867  0.0516  0.2898
 4836SOL    HW115192   1.642   3.717   2.314  1.4019  0.8901  0.2800
 4836SOL    HW215193   1.777   3.661   2.354  0.2749 -2.9178 -0.7880
 4837SOL     OW15194   0.895   2.619   1.928 -0.7513  0.3694 -0.3879
 4837SOL    HW115195   0.846   2.541   1.904 -0.3308  0.1944 -0.6941
 4837SOL    HW215196   0.980   2.586   1.957 -0.9860  0.6270  0.6650
 4838SOL     OW15197   1.987   3.429   5.095  0.0840  0.1017  0.4788
 4838SOL    HW115198   2.062   3.381   5.060  0.9411  2.0071 -0.4438
 4838SOL    HW215199   1.989   3.513   5.050 -1.7394  0.7802  1.5444
 4839SOL     OW15200   5.406   0.535   3.518  0.5405 -0.1211  0.2808
 4839SOL    HW115201   5.327   0.536   3.464  0.9372  0.1517 -0.3210
 4839SOL    HW215202   5.406   0.620   3.562  1.0320  0.3243 -0.5473
 4840SOL     OW15203   3.284   6.492   1.732 -0.3758  0.7008 -0.3136
 4840SOL    HW115204   3.343   6.564   1.756  1.3155 -0.3799 -1.0005
 4840SOL    HW215205   3.312   6.420   1.789 -0.2430 -0.1661 -1.4492
 4841SOL     OW15206   1.621   1.233   1.791  0.1129  0.1728  0.1955
 4841SOL    HW115207   1.706   1.274   1.803  0.0189  0.3663  0.1950
 4841SOL    HW215208   1.602   1.192   1.876 -0.4862  1.4177  0.6755
 4842SOL     OW15209   3.108   2.993   0.306 -0.1513  0.0158  0.0652
 4842SOL    HW115210   3.177   2.928   0.295 -1.0445 -0.9997  0.2469
 4842SOL    HW215211   3.113   3.019   0.398  0.7178  0.8114 -0.1993
 4843SOL     OW15212   5.744   6.659   0.658 -0.3528 -0.4069 -0.0874
 4843SOL    HW115213   5.781   6.645   0.570  2.0618  0.9053  0.6300
 4843SOL    HW215214   5.769   6.581   0.707  2.1186  0.6788  0.5279
 4844SOL     OW15215   1.303   1.965   3.444 -0.3943  0.4426  0.3158
 4844SOL    HW115216   1.277   1.980   3.535  0.5575 -3.3060  1.3616
 4844SOL    HW215217   1.229   1.919   3.405 -0.0534  0.3655 -0.2455
 4845SOL     OW15218   2.514   4.403   5.674  0.0633  0.1716 -0.1335
 4845SOL    HW115219   2.491   4.464   5.604  0.1869 -1.1884 -1.4083
 4845SOL    HW215220   2.463   4.432   5.749 -0.4300  1.3898 -0.9167
 4846SOL     OW15221   0.280   5.143   1.711 -0.4994 -0.2760 -0.5307
 4846SOL    HW115222   0.360   5.092   1.698  0.9347  1.7784 -0.0817
 4846SOL    HW215223   0.257   5.174   1.624  2.2742  3.4679 -0.1404
 4847SOL     OW15224   2.190   4.151   2.371 -0.1952  0.6415  0.2219
 4847SOL    HW115225   2.263   4.211   2.385  0.0186 -0.0391  2.3474
 4847SOL    HW215226   2.147   4.145   2.456 -1.6343 -0.4158 -0.5288
 4848SOL     OW15227   5.690   5.628   1.123 -0.2542 -0.8555  0.5546
 4848SOL    HW115228   5.687   5.556   1.186  0.8610 -0.3627  1.1982
 4848SOL    HW215229   5.673   5.586   1.039 -1.5960 -1.5543  1.1405
 4849SOL     OW15230   3.374   1.083   5.517  0.3503  0.1926  0.8280
 4849SOL    HW115231   3.322   1.057   5.441  1.0778  2.6988 -0.6276
 4849SOL    HW215232   3.310   1.117   5.580 -0.1782 -1.2185  1.0971
 4850SOL     OW15233   4.232   5.806   3.783 -0.2526 -0.2483  0.4550
 4850SOL    HW115234   4.301   5.873   3.788 -0.6377  0.0791  1.7543
 4850SOL    HW215235   4.251   5.747   3.856  0.2559 -1.7679 -0.8491
 4851SOL     OW15236   2.789   2.764   0.982  0.2505  0.4264 -0.5593
 4851SOL    HW115237   2.837   2.684   0.959  1.8073  1.3589 -0.6384
 4851SOL    HW215238   2.835   2.834   0.936 -0.0490  1.5972  0.8684
 4852SOL     OW15239   4.086   3.471   6.234  0.3168 -0.0142  0.2030
 4852SOL    HW115240   4.021   3.536   6.209 -0.0589 -0.7309 -0.7505
 4852SOL    HW215241   4.035   3.394   6.262  0.7480  0.1780  1.6116
 4853SOL     OW15242   5.130   4.626   5.444 -0.3247  0.0187 -0.0403
 4853SOL    HW115243   5.038   4.600   5.447 -0.0982 -0.9674 -0.8266
 4853SOL    HW215244   5.130   4.718   5.471 -1.3000 -0.4734  1.8222
 4854SOL     OW15245   5.515   1.199   5.007  0.0580 -0.0992  0.0171
 4854SOL    HW115246   5.466   1.118   5.022  1.1004 -0.5757  0.9095
 4854SOL    HW215247   5.485   1.229   4.921 -2.6094  0.2114  0.9522
 4855SOL     OW15248   0.507   3.939   4.948 -0.4036 -0.1598 -0.3533
 4855SOL    HW115249   0.442   3.945   5.018  0.5528  0.2108  0.5398
 4855SOL    HW215250   0.564   3.867   4.975 -0.5745 -0.6369 -1.2441
 4856SOL     OW15251   6.214   3.297   2.966 -0.2172  0.0242 -0.0519
 4856SOL    HW115252   6.263   3.365   2.920 -1.8046  0.7103 -0.8071
 4856SOL    HW215253   6.182   3.239   2.897 -1.5122  0.3118  0.2828
 4857SOL     OW15254   3.336   0.248   3.796  0.0309  0.2413 -0.1918
 4857SOL    HW115255   3.276   0.193   3.747  0.9539 -1.8872  0.9383
 4857SOL    HW215256   3.300   0.250   3.885  1.0480 -0.2280  0.2555
 4858SOL     OW15257   5.149   0.947   2.817 -0.2393  0.1632 -0.1655
 4858SOL    HW115258   5.119   0.976   2.731  2.2703 -0.0775 -1.2205
 4858SOL    HW215259   5.229   0.998   2.833  0.4479 -1.2237  1.0901
 4859SOL     OW15260   4.802   2.198   2.193  0.5488 -1.1563  0.1210
 4859SOL    HW115261   4.844   2.257   2.256  1.3427  1.7022 -2.8472
 4859SOL    HW215262   4.867   2.186   2.124 -1.3828 -1.4326 -1.7624
 4860SOL     OW15263   2.033   6.333   3.444  0.1716 -0.1743 -1.0069
 4860SOL    HW115264   2.086   6.283   3.507  0.4970  0.3470 -0.8562
 4860SOL    HW215265   1.992   6.401   3.497  1.0059  0.7148 -1.4544
 4861SOL     OW15266   5.766   6.730   1.817  0.2592 -0.4046 -0.0830
 4861SOL    HW115267   5.742   6.657   1.875 -0.5494  0.2512  0.4293
 4861SOL    HW215268   5.726   6.707   1.733 -2.0527  0.5265  0.6741
 4862SOL     OW15269   0.978   3.723   1.811  0.2361  0.7544  0.3731
 4862SOL    HW115270   0.925   3.768   1.745  0.8218  1.6899  0.5180
 4862SOL    HW215271   0.938   3.748   1.895  1.2369  1.9610  0.5188
 4863SOL     OW15272   4.631   5.145   6.156 -0.3441  0.6408 -0.3215
 4863SOL    HW115273   4.586   5.198   6.089 -1.7985 -1.7335 -1.3441
 4863SOL    HW215274   4.587   5.060   6.153  1.7341 -0.5945  1.4035
 4864SOL     OW15275   0.732   0.941   6.401 -0.1284  0.6984 -0.6172
 4864SOL    HW115276   0.659   0.961   6.343 -0.7383  0.3678  0.0187
 4864SOL    HW215277   0.711   0.985   6.483 -0.2155 -0.3785 -0.0443
 4865SOL     OW15278   5.308   5.193   0.090  0.1972 -0.7137  0.6153
 4865SOL    HW115279   5.275   5.162   0.005  2.4184 -0.0634 -0.5747
 4865SOL    HW215280   5.301   5.288   0.085 -0.9959 -0.7185  1.7896
 4866SOL     OW15281   3.624   5.084   3.472 -0.5784 -0.2202  0.5298
 4866SOL    HW115282   3.599   5.174   3.490 -2.5806 -0.3187 -1.3578
 4866SOL    HW215283   3.689   5.090   3.402  1.0550 -0.2122  1.9653
 4867SOL     OW15284   3.963   3.187   3.226  0.3216  0.2383  0.1991
 4867SOL    HW115285   3.943   3.101   3.265  2.4559 -0.4915 -0.1714
 4867SOL    HW215286   4.022   3.167   3.153  0.9075  2.0407  0.1350
 4868SOL     OW15287   5.748   3.529   2.795 -0.6076  0.2750  0.2327
 4868SOL    HW115288   5.667   3.577   2.813  1.0994  2.9061  1.6023
 4868SOL    HW215289   5.810   3.561   2.861  1.3331 -2.3186 -0.1645
 4869SOL     OW15290   4.012   1.659   0.277  0.1950  0.3103 -0.0028
 4869SOL    HW115291   3.983   1.603   0.205 -1.7936 -1.2988  1.9260
 4869SOL    HW215292   4.041   1.599   0.345  0.0009  1.6722  1.3590
 4870SOL     OW15293   5.596   4.482   5.631 -0.0312 -0.0554  0.3283
 4870SOL    HW115294   5.615   4.479   5.538  1.4509  0.0968  0.6111
 4870SOL    HW215295   5.510   4.524   5.637 -0.4754 -0.7409 -0.9970
 4871SOL     OW15296   5.163   4.574   0.758 -0.1945 -0.6738 -0.5123
 4871SOL    HW115297   5.164   4.551   0.665  2.2532 -1.4119 -0.3891
 4871SOL    HW215298   5.200   4.497   0.802  1.0968  0.6045  0.7771
 4872SOL     OW15299   5.068   5.402   6.446  0.0164  0.7431 -0.2995
 4872SOL    HW115300   5.027   5.485   6.471  1.8476  1.8181 -0.6903
 4872SOL    HW215301   5.016   5.371   6.373 -1.3580  0.9713  0.5471
 4873SOL     OW15302   2.120   3.464   4.807 -0.6158 -0.1172  0.5303
 4873SOL    HW115303   2.099   3.557   4.817 -1.6558 -0.2836  0.0226
 4873SOL    HW215304   2.075   3.437   4.727 -0.1703 -1.0160  0.5653
 4874SOL     OW15305   5.793   1.774   0.390  0.3363  0.3831 -0.4575
 4874SOL    HW115306   5.705   1.808   0.376  0.6689  1.6312  0.3215
 4874SOL    HW215307   5.843   1.848   0.424  1.5434 -0.4467 -0.3353
 4875SOL     OW15308   4.975   3.035   1.696 -0.0401  0.1719 -0.0098
 4875SOL    HW115309   4.892   3.046   1.649 -1.0144  1.8940  1.9281
 4875SOL    HW215310   4.953   3.053   1.788  2.1385 -1.1759  0.8490
 4876SOL     OW15311   0.779   5.431   4.012  0.0169  0.0503 -0.2332
 4876SOL    HW115312   0.754   5.459   3.924  2.1983 -0.8943 -1.2257
 4876SOL    HW215313   0.866   5.468   4.026  0.5120 -1.3894  0.7382
 4877SOL     OW15314   5.232   6.569   2.924 -0.1934  0.2040 -0.0655
 4877SOL    HW115315   5.286   6.500   2.884  1.2793 -0.0145  2.1648
 4877SOL    HW215316   5.182   6.523   2.991 -1.7205  0.7802 -0.7701
 4878SOL     OW15317   0.776   5.717   5.445 -0.7534 -0.7312  0.1572
 4878SOL    HW115318   0.813   5.631   5.424 -0.6436 -0.4338 -0.9311
 4878SOL    HW215319   0.815   5.739   5.530 -0.7842 -1.7496  0.4475
 4879SOL     OW15320   5.884   4.717   6.448  0.6809 -0.1721 -0.2646
 4879SOL    HW115321   5.832   4.720   6.368 -0.3837 -0.2156  0.3999
 4879SOL    HW215322   5.848   4.642   6.496 -0.9499  1.7189  1.7088
 4880SOL     OW15323   4.605   1.173   1.551  0.3357 -0.2154  0.0076
 4880SOL    HW115324   4.623   1.229   1.476 -0.5682  2.8049  1.8257
 4880SOL    HW215325   4.685   1.176   1.604  0.0345  0.0104  0.4625
 4881SOL     OW15326   2.007   3.710   4.710  0.8657 -0.0703 -0.3592
 4881SOL    HW115327   1.924   3.744   4.742  0.8392 -1.4421  1.1453
 4881SOL    HW215328   2.073   3.760   4.757  0.9136  0.6247 -1.1346
 4882SOL     OW15329   1.101   0.849   2.633 -0.2616  0.1512 -0.3626
 4882SOL    HW115330   1.134   0.938   2.648 -0.9407  0.4837 -0.7996
 4882SOL    HW215331   1.026   0.861   2.574 -0.3173 -0.7182 -0.4763
 4883SOL     OW15332   6.620   2.072   6.484 -0.8346 -0.0081  0.4625
 4883SOL    HW115333   6.607   1.990   6.532  0.5651 -0.2408  0.4857
 4883SOL    HW215334   6.642   2.045   6.395  0.0286  0.3097  0.5663
 4884SOL     OW15335   3.867   5.737   6.699 -0.1450  0.0219 -0.1454
 4884SOL    HW115336   3.836   5.731   6.609  2.1464  0.7025 -1.0431
 4884SOL    HW215337   3.918   5.657   6.713  1.9831  1.2488 -0.5200
 4885SOL     OW15338   0.977   0.535   6.082  0.3299 -0.0002 -0.4046
 4885SOL    HW115339   0.924   0.495   6.014 -1.3464 -0.6950  1.2172
 4885SOL    HW215340   0.914   0.578   6.140  1.7653  1.4109  0.2028
 4886SOL     OW15341   3.937   3.494   0.102 -0.3882  0.3375  0.3725
 4886SOL    HW115342   3.871   3.542   0.152 -0.7362  1.3196 -0.9578
 4886SOL    HW215343   3.889   3.456   0.028  0.3665  0.2337 -0.0812
 4887SOL     OW15344   5.035   0.975   2.296 -0.1654  0.0266 -0.1166
 4887SOL    HW115345   5.108   0.949   2.352  0.3184 -0.1861 -0.8278
 4887SOL    HW215346   4.976   0.900   2.298 -1.1529  0.7966  1.7041
 4888SOL     OW15347   4.313   5.412   2.079 -0.0619  0.0314  0.5743
 4888SOL    HW115348   4.251   5.471   2.036 -1.0842 -0.2569  1.6099
 4888SOL    HW215349   4.372   5.383   2.009  0.4791  2.2558  0.0312
 4889SOL     OW15350   5.349   0.459   2.622 -0.1394 -0.0646 -0.4842
 4889SOL    HW115351   5.255   0.477   2.626 -0.2829 -0.7930 -0.3735
 4889SOL    HW215352   5.390   0.540   2.653 -0.7743 -0.1449  0.6572
 4890SOL     OW15353   3.914   0.885   4.140 -0.5082 -0.3673 -0.4012
 4890SOL    HW115354   3.890   0.899   4.048 -1.7914  0.4613  0.0351
 4890SOL    HW215355   3.834   0.905   4.189  0.4767  0.3510  0.9790
 4891SOL     OW15356   5.018   3.740   2.848  0.0662 -0.1174 -0.5462
 4891SOL    HW115357   5.088   3.705   2.794 -0.3144 -1.0152 -0.4734
 4891SOL    HW215358   5.063   3.781   2.922  0.5188 -0.5240 -0.5898
 4892SOL     OW15359   4.405   4.097   1.883 -0.0457 -0.3950  0.4345
 4892SOL    HW115360   4.432   4.145   1.804  1.6703 -1.9697 -0.0066
 4892SOL    HW215361   4.435   4.007   1.868  0.9891 -0.6077  3.1509
 4893SOL     OW15362   4.613   2.764   5.141  0.2617 -0.3926 -0.8802
 4893SOL    HW115363   4.602   2.831   5.074  1.8298  0.0879 -0.6874
 4893SOL    HW215364   4.699   2.727   5.125  0.7145 -0.2154  0.8873
 4894SOL     OW15365   4.955   0.083   3.777  0.3895  0.0248  0.2778
 4894SOL    HW115366   4.893   0.146   3.740  0.1437 -1.0087 -1.1572
 4894SOL    HW215367   4.985   0.123   3.858 -0.2645  1.6751 -0.2626
 4895SOL     OW15368   0.006   0.113   5.150  0.3328 -0.6514 -0.7559
 4895SOL    HW115369  -0.061   0.165   5.104  0.6211 -1.0004 -1.5956
 4895SOL    HW215370   0.038   0.171   5.219  0.2978  0.1215 -1.3669
 4896SOL     OW15371   2.667   1.896   2.698  0.0758 -0.5946 -0.0378
 4896SOL    HW115372   2.596   1.837   2.724 -0.6776 -1.5353 -3.6026
 4896SOL    HW215373   2.644   1.923   2.609  3.2227  0.6512 -0.6120
 4897SOL     OW15374   0.199   3.951   4.326  0.7222  0.1876  0.0420
 4897SOL    HW115375   0.228   4.040   4.305  2.2669 -0.3567 -0.2518
 4897SOL    HW215376   0.159   3.920   4.245  1.7169  0.0342 -0.4051
 4898SOL     OW15377   2.684   4.375   6.077  0.4153  0.0693  0.2546
 4898SOL    HW115378   2.590   4.387   6.091  0.6050  2.1159  0.1408
 4898SOL    HW215379   2.725   4.403   6.158  0.9231 -2.1502  0.8284
 4899SOL     OW15380   0.601   2.379   2.126  0.3613 -0.8150 -0.4033
 4899SOL    HW115381   0.549   2.398   2.048 -0.2209 -0.2367  0.1154
 4899SOL    HW215382   0.537   2.357   2.193  0.5859  1.7193  0.7807
 4900SOL     OW15383   0.055   1.978   6.339 -0.6155  0.2072 -0.0056
 4900SOL    HW115384   0.067   2.071   6.361  0.6281 -0.2238  1.2941
 4900SOL    HW215385  -0.006   1.946   6.406 -0.0697 -0.1822  0.3092
 4901SOL     OW15386   0.112   5.335   6.046  0.3792 -0.3854  0.0301
 4901SOL    HW115387   0.024   5.370   6.058  0.1185 -0.6705 -0.9563
 4901SOL    HW215388   0.105   5.242   6.069 -0.0235 -0.8332 -1.7858
 4902SOL     OW15389   2.517   0.634   4.404  0.5767  0.0488 -0.2257
 4902SOL    HW115390   2.422   0.646   4.403  0.5639  0.1401 -2.6919
 4902SOL    HW215391   2.553   0.720   4.386  1.1581 -0.0129  0.5635
 4903SOL     OW15392   6.832   5.281   4.867  0.2794  0.2455 -0.1975
 4903SOL    HW115393   6.917   5.291   4.824 -0.5677  1.3387 -1.7386
 4903SOL    HW215394   6.802   5.194   4.841  0.4604  0.2879 -0.5605
 4904SOL     OW15395   0.571   3.633   3.604  0.2964 -0.6354  0.1864
 4904SOL    HW115396   0.494   3.628   3.547 -0.0741  0.0986  0.6000
 4904SOL    HW215397   0.638   3.674   3.550  0.3166 -1.0409 -0.0967
 4905SOL     OW15398   1.486   0.872   4.101  0.0196  0.6069 -0.0674
 4905SOL    HW115399   1.531   0.805   4.153 -0.1245 -1.8985 -2.8986
 4905SOL    HW215400   1.394   0.846   4.104 -0.1380  1.1017 -0.6341
 4906SOL     OW15401   0.320   3.227   4.336  0.4082 -0.3753  0.4765
 4906SOL    HW115402   0.230   3.197   4.350  0.7215 -1.5744  0.0374
 4906SOL    HW215403   0.317   3.274   4.253  0.0909  0.0007  0.7007
 4907SOL     OW15404   2.701   4.390   5.127  0.0473 -0.0720  0.1156
 4907SOL    HW115405   2.721   4.424   5.214 -1.0952  0.1587  0.2980
 4907SOL    HW215406   2.693   4.296   5.139  1.2448 -0.2143 -0.0196
 4908SOL     OW15407   2.947   6.379   5.264  0.2904  0.1295  0.8444
 4908SOL    HW115408   2.873   6.425   5.302 -0.9989 -0.4007 -0.8997
 4908SOL    HW215409   2.916   6.290   5.249  0.9013  0.1601 -0.8652
 4909SOL     OW15410   5.541   0.589   5.160 -0.2542 -0.0482  0.0744
 4909SOL    HW115411   5.608   0.571   5.094 -0.6119 -0.2836 -0.2240
 4909SOL    HW215412   5.524   0.683   5.152  1.6564  0.5094  1.6758
 4910SOL     OW15413   4.979   0.277   5.806  0.7735 -0.0548 -0.2485
 4910SOL    HW115414   4.947   0.363   5.780 -0.8768 -0.7757 -0.7212
 4910SOL    HW215415   5.072   0.291   5.825 -0.0290  2.4526  2.5881
 4911SOL     OW15416   1.847   2.790   4.095 -0.0442  0.1053 -0.4052
 4911SOL    HW115417   1.840   2.718   4.033 -0.3239 -0.1337 -0.1002
 4911SOL    HW215418   1.786   2.767   4.166  0.2160  0.4056 -0.0784
 4912SOL     OW15419   5.731   1.470   5.716  0.7219  0.1429  0.0618
 4912SOL    HW115420   5.747   1.376   5.719 -0.4101 -0.0724 -0.2255
 4912SOL    HW215421   5.751   1.495   5.626  0.5771  0.0938  0.0164
 4913SOL     OW15422   5.590   4.696   3.244  0.1386 -0.0045  0.3262
 4913SOL    HW115423   5.506   4.687   3.290  0.8089 -2.2060  1.2207
 4913SOL    HW215424   5.575   4.767   3.181 -2.0424  0.3952  1.2090
 4914SOL     OW15425   3.117   4.473   2.731 -0.0297 -0.1092  0.0771
 4914SOL    HW115426   3.054   4.545   2.730  0.3366  0.2493  1.0295
 4914SOL    HW215427   3.200   4.514   2.708 -0.0422 -0.4833 -0.6630
 4915SOL     OW15428   0.856   6.895   1.600 -0.6908 -0.6879 -0.6131
 4915SOL    HW115429   0.815   6.809   1.604 -2.0903 -0.0179  0.4182
 4915SOL    HW215430   0.945   6.878   1.571  0.1352 -2.8766  2.7030
 4916SOL     OW15431   5.563   1.493   4.694  0.5856 -0.3050 -0.0309
 4916SOL    HW115432   5.554   1.454   4.607  0.7458 -0.1556 -0.1150
 4916SOL    HW215433   5.637   1.446   4.734 -0.2540 -1.2196  0.4891
 4917SOL     OW15434   3.076   4.720   6.130  0.6596  0.3084  0.7234
 4917SOL    HW115435   3.120   4.768   6.059 -2.4944  0.7025 -1.1257
 4917SOL    HW215436   3.118   4.634   6.129  1.5046  0.6886 -0.8545
 4918SOL     OW15437   1.529   4.320   5.657 -0.0497 -0.1564  0.1340
 4918SOL    HW115438   1.488   4.349   5.575 -2.0569 -1.6721  0.5256
 4918SOL    HW215439   1.472   4.354   5.726 -0.4218 -1.8307  0.7139
 4919SOL     OW15440   4.895   4.743   5.633  0.0540 -0.6600  0.8470
 4919SOL    HW115441   4.852   4.798   5.699  0.3689 -0.1142  0.6072
 4919SOL    HW215442   4.963   4.800   5.595 -0.7789 -0.6258 -0.6675
 4920SOL     OW15443   0.881   2.029   5.421  0.0756 -0.2061  0.5127
 4920SOL    HW115444   0.872   2.115   5.381 -0.9129 -0.1258  0.8687
 4920SOL    HW215445   0.824   1.972   5.369 -0.7451 -0.2282  1.3984
 4921SOL     OW15446   6.503   3.865   2.321 -0.3495 -0.3272 -0.6459
 4921SOL    HW115447   6.560   3.929   2.279 -1.4006  0.1171 -1.4362
 4921SOL    HW215448   6.530   3.865   2.413  0.4632  0.3733 -0.8771
 4922SOL     OW15449   4.036   6.592   3.566 -0.3203 -0.3880 -0.1604
 4922SOL    HW115450   4.047   6.502   3.598  1.4430 -0.1758 -0.0575
 4922SOL    HW215451   4.110   6.640   3.604  0.3670  0.4721 -2.4533
 4923SOL     OW15452   6.256   5.084   3.993  0.0668  0.2616  0.2600
 4923SOL    HW115453   6.335   5.118   4.035  0.8686  0.3587 -1.2580
 4923SOL    HW215454   6.233   5.151   3.928  0.6631 -1.2298 -1.5748
 4924SOL     OW15455   3.365   0.959   1.374  0.2707 -0.4286 -0.0538
 4924SOL    HW115456   3.305   1.031   1.352  1.1495  0.3187 -0.0890
 4924SOL    HW215457   3.417   0.947   1.294  1.5860  0.3845  0.6477
 4925SOL     OW15458   1.521   3.791   3.126 -0.0739 -0.1528 -0.2305
 4925SOL    HW115459   1.543   3.727   3.059 -0.1548  0.0625 -0.4670
 4925SOL    HW215460   1.463   3.745   3.187 -0.0772 -0.3198 -0.3614
 4926SOL     OW15461   4.507   3.790   0.027  0.6122 -0.0489 -0.1318
 4926SOL    HW115462   4.599   3.812   0.011  0.5461  1.1097  0.9309
 4926SOL    HW215463   4.459   3.838  -0.041  0.8041 -0.9413 -0.9096
 4927SOL     OW15464   3.846   1.001   3.882 -0.4900  0.2341 -0.1199
 4927SOL    HW115465   3.846   1.031   3.791 -0.3246 -1.2906 -0.6514
 4927SOL    HW215466   3.916   1.050   3.924 -0.0150  0.3568 -1.0356
 4928SOL     OW15467   1.737   2.504   3.461  0.4051  0.4249 -0.6113
 4928SOL    HW115468   1.717   2.569   3.394 -1.0852  1.6673  0.9465
 4928SOL    HW215469   1.681   2.429   3.439 -0.5983  1.0872 -0.4238
 4929SOL     OW15470   3.704   3.789   3.158  1.0378 -0.1883  0.1594
 4929SOL    HW115471   3.675   3.736   3.232 -0.7244  0.5914  0.0729
 4929SOL    HW215472   3.691   3.879   3.187  2.6732  0.1985 -0.2089
 4930SOL     OW15473   4.882   0.923   3.652  0.1269 -0.6018  0.0510
 4930SOL    HW115474   4.847   0.852   3.704  0.8112 -0.8604  0.1765
 4930SOL    HW215475   4.973   0.898   3.635  0.1130 -0.2005 -0.6879
 4931SOL     OW15476   5.770   4.452   0.076  0.1031  0.1238  0.0124
 4931SOL    HW115477   5.730   4.531   0.112 -0.0825  0.0056  0.0656
 4931SOL    HW215478   5.844   4.484   0.025  1.0749  0.2180  1.4304
 4932SOL     OW15479   1.302   1.108   3.306 -0.0492 -0.0141  0.3756
 4932SOL    HW115480   1.326   1.168   3.376 -0.1885 -0.0579  0.4621
 4932SOL    HW215481   1.210   1.086   3.324 -0.6091  1.2758 -0.7677
 4933SOL     OW15482   4.787   1.787   1.698 -0.4225  0.0356  0.3525
 4933SOL    HW115483   4.727   1.749   1.763  1.1446 -1.5423  0.9484
 4933SOL    HW215484   4.776   1.732   1.621 -1.1525  0.9737 -0.2429
 4934SOL     OW15485   0.007   3.280   4.701 -0.7297  0.9940 -0.8535
 4934SOL    HW115486   0.013   3.331   4.782  0.0790 -1.2852  0.6288
 4934SOL    HW215487  -0.084   3.251   4.698 -0.5096  0.1662 -0.1023
 4935SOL     OW15488   1.857   5.866   4.996  0.0731 -0.2422 -0.2323
 4935SOL    HW115489   1.778   5.861   4.941  0.4369 -1.1630 -0.6891
 4935SOL    HW215490   1.908   5.937   4.958 -1.0280  1.1295  0.7528
 4936SOL     OW15491   2.722   0.943   1.298  0.3100 -0.0395 -0.4364
 4936SOL    HW115492   2.663   0.903   1.235 -0.0667  0.5649 -0.4730
 4936SOL    HW215493   2.668   1.006   1.346  0.8263  0.2371 -0.2054
 4937SOL     OW15494   3.539   2.299   3.971  0.2302 -0.0473  0.1844
 4937SOL    HW115495   3.477   2.305   3.898 -0.8017 -0.5699  0.9963
 4937SOL    HW215496   3.486   2.269   4.045  1.6848 -1.7849  0.5791
 4938SOL     OW15497   1.264   5.467   3.202  0.0816  0.0335 -0.1679
 4938SOL    HW115498   1.193   5.481   3.139 -0.8970 -2.8821  0.1668
 4938SOL    HW215499   1.303   5.383   3.177  0.8270 -0.3469  2.0485
 4939SOL     OW15500   4.231   2.894   3.824 -0.1748  0.0871 -0.2478
 4939SOL    HW115501   4.262   2.980   3.851 -0.6724  0.2184 -0.0899
 4939SOL    HW215502   4.294   2.833   3.861  0.0372  0.3678 -0.1434
 4940SOL     OW15503   0.283   1.079   1.877  0.1149 -0.7380 -0.4539
 4940SOL    HW115504   0.373   1.089   1.908 -0.1831 -0.7643  0.4741
 4940SOL    HW215505   0.269   1.155   1.820  0.3847 -0.1252  0.2668
 4941SOL     OW15506   1.223   0.347   3.272 -0.5817  0.2556  0.4878
 4941SOL    HW115507   1.200   0.285   3.203  1.8611 -0.0983 -0.1137
 4941SOL    HW215508   1.162   0.327   3.343 -0.4175 -2.3452  0.0164
 4942SOL     OW15509   0.107   3.503   3.281  0.5364  0.6643  0.7158
 4942SOL    HW115510   0.028   3.492   3.333 -0.1804  1.6260 -0.1376
 4942SOL    HW215511   0.134   3.594   3.296  1.4202  0.3888  0.8934
 4943SOL     OW15512   1.401   3.850   0.955 -0.0612  0.0968  0.2866
 4943SOL    HW115513   1.473   3.809   0.906 -1.2765 -0.6217 -0.9754
 4943SOL    HW215514   1.335   3.781   0.962 -1.3919  1.2636 -0.2295
 4944SOL     OW15515   3.477   6.397   2.818  0.1996  0.2970 -0.2421
 4944SOL    HW115516   3.383   6.415   2.810  0.4590  2.2810  0.6637
 4944SOL    HW215517   3.509   6.462   2.880  2.7251  1.5924 -2.6835
 4945SOL     OW15518   1.538   2.445   1.733  0.3009 -0.1263 -0.3458
 4945SOL    HW115519   1.545   2.511   1.664  0.6819  0.5622  0.3343
 4945SOL    HW215520   1.445   2.440   1.752  0.2291 -0.0805 -0.6806
 4946SOL     OW15521   6.116   0.532   4.606  0.8774  0.4810  0.2622
 4946SOL    HW115522   6.136   0.544   4.698  2.5968  0.4421 -0.0719
 4946SOL    HW215523   6.173   0.460   4.578  2.3909  2.2159 -1.4076
 4947SOL     OW15524   1.197   4.510   3.625  0.6253 -0.4604  0.9741
 4947SOL    HW115525   1.144   4.498   3.547  0.5981  0.6940  0.7999
 4947SOL    HW215526   1.146   4.468   3.695  0.4923 -1.2010  0.4449
 4948SOL     OW15527   1.465   1.888   1.607 -0.7258  0.7603  0.0178
 4948SOL    HW115528   1.560   1.895   1.602 -0.7939  1.5363 -0.3517
 4948SOL    HW215529   1.449   1.796   1.626  0.0560  0.3297 -1.2244
 4949SOL     OW15530   1.407   2.328   0.051 -0.5701 -0.2844 -0.0792
 4949SOL    HW115531   1.362   2.411   0.063 -1.0629 -0.4662 -0.6255
 4949SOL    HW215532   1.364   2.268   0.112  0.2281  0.0161  0.7999
 4950SOL     OW15533   5.044   4.101   4.893  0.1510 -0.0323  0.3283
 4950SOL    HW115534   5.029   4.146   4.976 -1.8326 -0.4185  0.2111
 4950SOL    HW215535   5.031   4.169   4.827  1.9546  0.3334  0.2776
 4951SOL     OW15536   0.323   5.829   3.233 -0.6770 -0.2153  0.0746
 4951SOL    HW115537   0.251   5.835   3.170  0.3769 -0.0594 -1.1753
 4951SOL    HW215538   0.345   5.920   3.254 -0.1344 -0.2242 -0.4212
 4952SOL     OW15539   4.607   2.890   3.991  0.4242  0.1064 -0.0049
 4952SOL    HW115540   4.684   2.869   4.043 -0.0817 -1.4052  0.1848
 4952SOL    HW215541   4.578   2.975   4.024  2.7277  1.3785 -0.9789
 4953SOL     OW15542   6.274   5.433   4.720  0.5410 -0.2209 -0.2555
 4953SOL    HW115543   6.345   5.495   4.702 -0.1184  0.2059 -1.4781
 4953SOL    HW215544   6.295   5.356   4.668  1.1060 -0.8777  0.8938
 4954SOL     OW15545   2.501   2.253   0.203 -0.4437  0.1508 -0.3578
 4954SOL    HW115546   2.479   2.249   0.109 -1.2237  2.7094 -0.3542
 4954SOL    HW215547   2.417   2.242   0.247 -0.2476  0.1362  0.0115
 4955SOL     OW15548   0.697   2.475   3.241  0.0203 -0.0435  0.0357
 4955SOL    HW115549   0.713   2.516   3.326  0.2509 -0.3418  0.1356
 4955SOL    HW215550   0.783   2.446   3.211 -0.2560 -1.2339  0.3638
 4956SOL     OW15551   2.518   1.494   2.099 -0.5097 -0.5684  0.2438
 4956SOL    HW115552   2.609   1.465   2.091 -0.8294 -1.3009 -0.9092
 4956SOL    HW215553   2.476   1.427   2.154 -1.0867 -2.0193 -1.8636
 4957SOL     OW15554   1.859   6.406   2.595  0.1324 -0.1841 -0.2540
 4957SOL    HW115555   1.849   6.483   2.650  0.2757  0.6233 -1.3359
 4957SOL    HW215556   1.866   6.440   2.506 -0.3313 -1.4680 -0.8149
 4958SOL     OW15557   1.670   4.073   6.565 -0.1526  0.1671  0.0714
 4958SOL    HW115558   1.668   4.149   6.623  0.2674  1.2785 -1.3078
 4958SOL    HW215559   1.655   3.998   6.623 -2.7653  1.4231  1.1794
 4959SOL     OW15560   5.985   4.606   6.824 -0.5104 -0.1729  0.2286
 4959SOL    HW115561   6.029   4.631   6.905 -0.7427 -2.1936  1.0462
 4959SOL    HW215562   6.043   4.540   6.785 -0.2066  1.0451 -1.4977
 4960SOL     OW15563   2.112   6.500   1.259  0.2843 -0.2310 -0.1564
 4960SOL    HW115564   2.033   6.466   1.300 -0.0937  1.1219  0.2832
 4960SOL    HW215565   2.111   6.465   1.170 -1.2380  0.4223 -0.4124
 4961SOL     OW15566   3.135   1.759   5.511  0.3978 -0.4661  0.0570
 4961SOL    HW115567   3.163   1.671   5.487 -1.7523 -0.9831 -0.7611
 4961SOL    HW215568   3.158   1.813   5.435 -2.3663 -1.2613 -1.4919
 4962SOL     OW15569   6.123   3.319   0.231 -0.3457 -0.0141  0.3425
 4962SOL    HW115570   6.194   3.283   0.177 -0.1365  0.4864  0.2735
 4962SOL    HW215571   6.052   3.256   0.223 -0.9962  0.9134 -1.9897
 4963SOL     OW15572   1.519   6.818   4.453  0.0835  0.9576 -0.3030
 4963SOL    HW115573   1.571   6.810   4.532  2.1535 -0.5665 -1.7139
 4963SOL    HW215574   1.466   6.738   4.451  1.9165 -0.2945 -1.6517
 4964SOL     OW15575   6.315   2.111   4.366  0.4138 -0.3801 -0.0304
 4964SOL    HW115576   6.337   2.201   4.386  0.4518 -0.4396  0.1982
 4964SOL    HW215577   6.220   2.106   4.377  0.0214  0.2690 -2.5406
 4965SOL     OW15578   5.807   1.635   6.805 -0.5732 -0.4880 -0.0548
 4965SOL    HW115579   5.799   1.668   6.715 -0.0714  1.6693  0.6411
 4965SOL    HW215580   5.750   1.559   6.807 -0.1420 -0.9678 -2.3663
 4966SOL     OW15581   2.859   6.863   0.404  0.3534 -0.0442 -0.0038
 4966SOL    HW115582   2.901   6.794   0.352  0.2214 -0.6296  0.6437
 4966SOL    HW215583   2.811   6.915   0.340 -0.2209 -1.0546 -0.4249
 4967SOL     OW15584   6.832   4.918   1.883  0.0697 -0.0506  0.0751
 4967SOL    HW115585   6.764   4.962   1.832  0.5324  0.2217 -0.3198
 4967SOL    HW215586   6.790   4.840   1.918  0.2599 -1.3369 -2.3831
 4968SOL     OW15587   0.873   6.277   3.709  0.3187 -0.7030 -0.0396
 4968SOL    HW115588   0.907   6.193   3.741  0.7648 -0.9662 -1.1559
 4968SOL    HW215589   0.919   6.343   3.761  1.4952 -1.1058 -0.5199
 4969SOL     OW15590   2.834   3.811   1.899  0.0265 -0.2955 -0.2821
 4969SOL    HW115591   2.831   3.742   1.965  0.1086 -0.2527 -0.2333
 4969SOL    HW215592   2.749   3.855   1.906 -0.5241 -1.1805 -1.1626
 4970SOL     OW15593   0.352   4.926   4.707  0.6241  0.4667  0.0059
 4970SOL    HW115594   0.444   4.951   4.700  0.2781  1.7349 -0.1358
 4970SOL    HW215595   0.333   4.881   4.625  0.4194  2.5890 -1.1703
 4971SOL     OW15596   5.247   5.659   0.837  0.4207  0.3637 -0.1241
 4971SOL    HW115597   5.204   5.636   0.754  1.0486 -0.6865 -0.1723
 4971SOL    HW215598   5.272   5.751   0.826  0.2156  0.3242 -0.9791
 4972SOL     OW15599   0.577   3.144   3.967 -0.0370  0.2953 -0.0575
 4972SOL    HW115600   0.536   3.123   4.051 -0.8254  1.6160 -0.0836
 4972SOL    HW215601   0.625   3.065   3.943  1.0439  0.2034  2.1253
 4973SOL     OW15602   5.260   5.332   5.700 -0.1051 -0.3015 -0.3101
 4973SOL    HW115603   5.345   5.375   5.695 -0.2028 -0.1821 -0.9682
 4973SOL    HW215604   5.225   5.338   5.611  0.7377 -3.5077 -0.9819
 4974SOL     OW15605   1.360   6.582   4.431  0.1873 -0.0765  0.0815
 4974SOL    HW115606   1.387   6.496   4.402  1.4184  0.0411  0.8275
 4974SOL    HW215607   1.360   6.577   4.527  2.3253  1.3008  0.2337
 4975SOL     OW15608   2.297   6.750   1.667 -0.0916 -0.6382 -0.0185
 4975SOL    HW115609   2.212   6.707   1.653 -0.3788  0.0882 -0.5419
 4975SOL    HW215610   2.278   6.825   1.722  0.2404 -0.5737  0.0128
 4976SOL     OW15611   1.512   6.044   2.906  0.0189 -0.0105  0.1587
 4976SOL    HW115612   1.515   5.987   2.829 -0.3600  0.2477 -0.0578
 4976SOL    HW215613   1.541   5.990   2.979 -1.7147 -0.9331  0.2203
 4977SOL     OW15614   6.375   6.309   4.539  0.5566 -0.1864 -0.1394
 4977SOL    HW115615   6.371   6.324   4.633 -2.7602  1.1350 -0.3873
 4977SOL    HW215616   6.380   6.213   4.530 -0.7757 -0.4348  1.3863
 4978SOL     OW15617   5.777   0.925   6.416 -0.2945  0.1390  0.1669
 4978SOL    HW115618   5.756   1.005   6.463 -0.6058  0.1608 -0.0099
 4978SOL    HW215619   5.845   0.883   6.469  1.7438  1.7501 -1.0332
 4979SOL     OW15620   0.500   3.941   2.340  0.1814  0.5506 -0.0786
 4979SOL    HW115621   0.454   3.858   2.350 -0.1419  0.6381 -0.7969
 4979SOL    HW215622   0.586   3.916   2.306  0.3303  0.4585  0.3635
 4980SOL     OW15623   4.472   0.589   3.082 -0.0268  0.0820  0.1610
 4980SOL    HW115624   4.483   0.667   3.137 -0.2437  0.1473  0.1142
 4980SOL    HW215625   4.439   0.623   2.999 -0.2998 -0.0763  0.2019
 4981SOL     OW15626   1.507   4.339   4.998  0.4516  0.1349  0.6678
 4981SOL    HW115627   1.477   4.292   5.075 -0.9238  0.5671  0.4324
 4981SOL    HW215628   1.514   4.430   5.026  0.8780  0.1476  0.5284
 4982SOL     OW15629   6.024   4.761   4.134  0.4795 -0.7169  0.0731
 4982SOL    HW115630   6.107   4.784   4.091  0.2461 -0.2043 -0.1179
 4982SOL    HW215631   6.026   4.666   4.141  1.4816 -0.6492  0.8721
 4983SOL     OW15632   0.710   3.614   0.137  0.3914  0.0731  1.1552
 4983SOL    HW115633   0.789   3.577   0.176  1.1357  1.2445  0.8166
 4983SOL    HW215634   0.644   3.608   0.206  0.1011 -2.9461  0.7237
 4984SOL     OW15635   1.088   0.303   4.181  0.3992 -0.9354 -0.3751
 4984SOL    HW115636   1.006   0.261   4.158  0.2449 -1.4387  1.0134
 4984SOL    HW215637   1.136   0.309   4.098 -2.1246  1.9823 -1.8580
 4985SOL     OW15638   0.275   6.576   0.560 -0.6526  0.9067  0.5191
 4985SOL    HW115639   0.347   6.623   0.519  1.1645 -1.0965  1.2131
 4985SOL    HW215640   0.197   6.609   0.516  0.8671  1.5693 -1.9080
 4986SOL     OW15641   4.946   6.720   2.605 -0.1781 -0.2071 -0.3771
 4986SOL    HW115642   4.963   6.631   2.634 -3.5463 -0.3688  1.5943
 4986SOL    HW215643   5.011   6.773   2.652  0.5332 -1.3841  0.0255
 4987SOL     OW15644   0.862   5.942   5.074 -0.4424 -0.5063 -0.3150
 4987SOL    HW115645   0.924   5.869   5.069  1.2383  0.8863 -0.7520
 4987SOL    HW215646   0.790   5.909   5.127  0.8546 -2.0741  0.5551
 4988SOL     OW15647   3.835   4.761   1.262  0.3841  0.1334  0.1990
 4988SOL    HW115648   3.872   4.698   1.323 -0.3641 -0.5404 -0.0312
 4988SOL    HW215649   3.910   4.793   1.212  0.6889 -1.1974 -0.2501
 4989SOL     OW15650   6.297   5.242   5.982 -0.4215 -0.0862  0.8937
 4989SOL    HW115651   6.312   5.170   5.920  0.4284  1.8879 -1.3530
 4989SOL    HW215652   6.248   5.307   5.931 -0.2900  1.3520  2.5237
 4990SOL     OW15653   5.523   4.805   1.830 -0.4550  0.6589  0.0205
 4990SOL    HW115654   5.515   4.898   1.808 -1.8254  0.6783  0.5294
 4990SOL    HW215655   5.596   4.774   1.776  0.0368  2.0302 -0.1297
 4991SOL     OW15656   1.902   4.229   3.207  0.0008  0.8005 -0.4486
 4991SOL    HW115657   1.892   4.298   3.142  0.5149  0.8654 -0.4645
 4991SOL    HW215658   1.840   4.253   3.276  0.6597  1.6716 -0.1311
 4992SOL     OW15659   5.140   6.513   6.378  0.4750 -1.3008  0.0553
 4992SOL    HW115660   5.157   6.470   6.294  1.4766  0.8722 -0.9146
 4992SOL    HW215661   5.045   6.526   6.380  0.2682 -2.6436 -0.0443
 4993SOL     OW15662   1.802   1.621   0.168  0.5818 -0.2488 -0.6075
 4993SOL    HW115663   1.814   1.715   0.181 -0.6147 -0.2131  0.4218
 4993SOL    HW215664   1.844   1.580   0.244  1.2662 -0.5762 -1.1450
 4994SOL     OW15665   0.070   2.720   0.762  0.8621  0.3505  0.0871
 4994SOL    HW115666   0.084   2.727   0.668  2.2958 -0.4655  0.2016
 4994SOL    HW215667  -0.003   2.779   0.781 -1.0656 -1.2427 -1.8695
 4995SOL     OW15668   0.488   2.626   3.422 -0.0865  0.0601 -0.3901
 4995SOL    HW115669   0.451   2.544   3.388  0.1209 -0.0041 -0.4656
 4995SOL    HW215670   0.414   2.673   3.458 -0.0037 -0.8230  1.0168
 4996SOL     OW15671   6.681   2.651   4.369  0.3867  0.2276 -0.0002
 4996SOL    HW115672   6.731   2.597   4.308  0.2508 -0.6179  0.6071
 4996SOL    HW215673   6.593   2.613   4.369  0.7990 -0.8884  1.9488
 4997SOL     OW15674   3.901   4.514   4.556  0.0144 -0.0259  0.1985
 4997SOL    HW115675   3.944   4.444   4.507  0.5929  0.0712  0.5640
 4997SOL    HW215676   3.848   4.560   4.490  0.7705  0.0994 -0.3393
 4998SOL     OW15677   1.480   0.146   5.856  0.3704  0.3373  0.6438
 4998SOL    HW115678   1.422   0.076   5.885 -0.6674  0.6660 -0.5126
 4998SOL    HW215679   1.530   0.170   5.933  1.1612 -2.0360  0.9493
 4999SOL     OW15680   0.755   0.117   1.067  0.1546  0.2456  0.2808
 4999SOL    HW115681   0.669   0.145   1.037 -1.0575 -3.8024 -0.5733
 4999SOL    HW215682   0.759   0.144   1.158 -1.7418  1.0567  0.1734
 5000SOL     OW15683   6.587   5.818   4.888  0.2687  0.7514  0.9335
 5000SOL    HW115684   6.530   5.765   4.943  1.0376  0.5062  1.5077
 5000SOL    HW215685   6.672   5.773   4.890 -0.1107 -0.3397 -1.9486
 5001SOL     OW15686   2.811   2.206   2.401  0.7481  0.1300  0.2404
 5001SOL    HW115687   2.800   2.271   2.471  1.7841  0.1754  0.3792
 5001SOL    HW215688   2.770   2.127   2.436  1.6139  0.0340  1.1046
 5002SOL     OW15689   0.925   3.556   0.756  0.1320 -0.4290 -0.1673
 5002SOL    HW115690   0.943   3.516   0.841  1.5914 -0.7990 -0.6261
 5002SOL    HW215691   0.948   3.489   0.692  0.0147  0.1966 -0.8863
 5003SOL     OW15692   1.031   3.733   3.256 -0.4469 -0.1028  0.2412
 5003SOL    HW115693   1.027   3.692   3.170  1.0040 -0.1930  0.2038
 5003SOL    HW215694   0.965   3.803   3.252 -2.9844 -2.3257  0.2954
 5004SOL     OW15695   6.879   4.112   6.584  0.1659 -1.0051 -0.2533
 5004SOL    HW115696   6.810   4.177   6.571 -0.1168 -1.7329 -3.1190
 5004SOL    HW215697   6.939   4.127   6.511  1.1687 -2.6789  0.1768
 5005SOL     OW15698   3.960   0.951   1.609 -0.0880 -0.1293 -0.4553
 5005SOL    HW115699   3.893   1.000   1.561  0.3140  1.1332  0.2231
 5005SOL    HW215700   4.039   0.958   1.554  0.3377  1.2068  0.2671
 5006SOL     OW15701   6.672   1.968   6.238  0.1932 -0.0585  0.1570
 5006SOL    HW115702   6.666   2.009   6.151 -0.1255 -1.4671 -0.5196
 5006SOL    HW215703   6.752   1.915   6.233  0.9696  0.9747  1.2469
 5007SOL     OW15704   3.913   4.294   6.437  0.0664  0.5298  0.3413
 5007SOL    HW115705   3.939   4.222   6.495 -0.3989  1.3392  1.5915
 5007SOL    HW215706   3.849   4.255   6.378 -0.4564 -0.0066  1.2402
 5008SOL     OW15707   4.083   2.564   0.874  0.8061  0.7180 -0.1178
 5008SOL    HW115708   4.119   2.515   0.948 -0.2313  1.1383  0.6838
 5008SOL    HW215709   4.008   2.513   0.845  0.2556  1.3527  0.1517
 5009SOL     OW15710   2.446   3.893   4.151 -0.1135  0.2237 -0.7098
 5009SOL    HW115711   2.540   3.876   4.136 -0.7478 -1.3878 -3.7301
 5009SOL    HW215712   2.426   3.969   4.096 -0.1862  2.2102  1.8760
 5010SOL     OW15713   4.279   2.914   6.645 -0.0221  0.4688 -0.6752
 5010SOL    HW115714   4.272   2.945   6.555  0.1164 -1.2781 -1.3209
 5010SOL    HW215715   4.300   2.992   6.696 -1.5906  1.7673 -1.9262
 5011SOL     OW15716   0.866   4.102   0.405  0.1685 -0.4178 -0.2227
 5011SOL    HW115717   0.795   4.138   0.459  1.1308  1.4598 -0.1296
 5011SOL    HW215718   0.875   4.012   0.436 -2.4648 -0.8913 -0.5754
 5012SOL     OW15719   6.352   2.352   6.456 -0.3931  0.2247  0.2907
 5012SOL    HW115720   6.418   2.316   6.397 -0.6614 -0.3225  0.3175
 5012SOL    HW215721   6.271   2.351   6.405 -0.5124  0.2778  0.4782
 5013SOL     OW15722   5.017   4.809   0.734  0.5907 -0.3005  0.0841
 5013SOL    HW115723   5.074   4.885   0.724  0.7514 -0.3423  0.6306
 5013SOL    HW215724   5.076   4.734   0.728  0.4673 -0.3744 -0.2188
 5014SOL     OW15725   3.401   3.479   6.618  0.0888 -0.6135  0.3067
 5014SOL    HW115726   3.382   3.417   6.688  1.9771 -0.9532  0.5599
 5014SOL    HW215727   3.440   3.554   6.662 -2.0015  0.7531 -0.0150
 5015SOL     OW15728   6.746   5.424   6.616 -0.2828 -0.6151 -0.3277
 5015SOL    HW115729   6.805   5.492   6.649  0.1432 -2.1578  2.3711
 5015SOL    HW215730   6.783   5.399   6.532 -0.7988  2.8078 -1.7290
 5016SOL     OW15731   6.199   3.781   4.587 -0.0596 -0.2095 -0.7389
 5016SOL    HW115732   6.144   3.776   4.666 -0.4471 -1.7457 -1.0728
 5016SOL    HW215733   6.281   3.822   4.617  0.0492 -1.3587  0.6154
 5017SOL     OW15734   1.558   3.989   1.954 -0.6446 -0.5255 -0.4184
 5017SOL    HW115735   1.618   4.044   2.005 -1.8647 -0.3899  0.9200
 5017SOL    HW215736   1.599   3.985   1.867  1.3356 -0.5242  0.4534
 5018SOL     OW15737   6.700   0.014   2.389 -0.3972 -0.1484 -0.1784
 5018SOL    HW115738   6.734   0.095   2.352  1.4436 -1.2190 -0.9688
 5018SOL    HW215739   6.607   0.014   2.366  0.1096  0.5611 -2.4139
 5019SOL     OW15740   4.759   2.059   1.823  0.4894 -0.0710 -0.3940
 5019SOL    HW115741   4.772   1.976   1.776 -0.9252  0.2120 -1.3512
 5019SOL    HW215742   4.688   2.041   1.884  0.3509  0.3538 -0.4254
 5020SOL     OW15743   2.616   3.381   4.045 -0.1654  0.0881 -0.0083
 5020SOL    HW115744   2.543   3.357   4.102  1.1725 -0.2950  1.6333
 5020SOL    HW215745   2.575   3.422   3.969 -2.0150  1.4216  1.6143
 5021SOL     OW15746   1.248   2.447   2.482  0.0636  0.2526 -0.2998
 5021SOL    HW115747   1.272   2.453   2.390 -1.3106 -0.5643 -0.7498
 5021SOL    HW215748   1.331   2.449   2.530  0.7928  0.6471 -1.5511
 5022SOL     OW15749   1.951   3.237   6.512 -0.4534  0.0090 -0.3030
 5022SOL    HW115750   1.948   3.333   6.515 -1.1392 -0.0207  0.3053
 5022SOL    HW215751   1.904   3.215   6.432  0.3235  0.1930 -0.8245
 5023SOL     OW15752   1.556   3.938   4.056 -0.2449  0.0726 -0.2497
 5023SOL    HW115753   1.587   3.903   4.139 -0.7915  0.3288  0.0665
 5023SOL    HW215754   1.602   3.887   3.989  0.4263  0.0741  0.2065
 5024SOL     OW15755   5.551   3.028   6.689  0.5402 -0.6073  0.2151
 5024SOL    HW115756   5.550   3.097   6.622  0.1072 -0.0085  0.8394
 5024SOL    HW215757   5.639   2.991   6.682  0.9332  0.3047  0.1783
 5025SOL     OW15758   5.233   5.217   6.360  0.1260  0.1989 -0.6786
 5025SOL    HW115759   5.185   5.289   6.401 -0.8871 -0.7858 -0.0833
 5025SOL    HW215760   5.317   5.215   6.406  0.1186  0.9337 -0.6328
 5026SOL     OW15761   6.000   5.361   2.979 -1.1150  0.4673  0.0048
 5026SOL    HW115762   5.999   5.313   2.897 -1.0014  0.2481  0.1330
 5026SOL    HW215763   6.067   5.429   2.966 -0.7938  0.1657  0.0705
 5027SOL     OW15764   0.053   5.293   2.787  0.1353 -0.4539 -0.3860
 5027SOL    HW115765   0.033   5.382   2.757  2.8676  0.9053  1.3948
 5027SOL    HW215766  -0.011   5.277   2.857  0.7558  0.9318  0.5438
 5028SOL     OW15767   2.427   3.442   1.530  0.2627  0.8472 -0.1446
 5028SOL    HW115768   2.426   3.533   1.500 -0.0055  1.4298  1.5290
 5028SOL    HW215769   2.343   3.431   1.575  0.4288 -0.1294 -0.0546
 5029SOL     OW15770   2.665   0.258   0.435  0.1005  0.3814 -0.2209
 5029SOL    HW115771   2.654   0.202   0.358  0.9809 -0.9295  0.5732
 5029SOL    HW215772   2.747   0.305   0.420 -0.1311  0.7256 -0.4303
 5030SOL     OW15773   4.703   2.548   0.424  0.3087  0.0683 -0.2623
 5030SOL    HW115774   4.635   2.488   0.452  0.2008  0.0040 -0.6568
 5030SOL    HW215775   4.740   2.508   0.345  2.4444 -1.1506  1.2349
 5031SOL     OW15776   1.235   3.052   1.662  0.1656  0.3281 -0.2855
 5031SOL    HW115777   1.328   3.055   1.637  0.4630  0.8975  0.8371
 5031SOL    HW215778   1.235   3.063   1.757 -1.0162 -0.4201 -0.1745
 5032SOL     OW15779   6.663   6.480   1.846 -0.3689  0.0554  0.1713
 5032SOL    HW115780   6.744   6.531   1.847 -0.3680  0.0727 -0.7019
 5032SOL    HW215781   6.692   6.389   1.854 -0.3766  0.1565  1.8666
 5033SOL     OW15782   4.433   2.523   4.462 -0.3629  0.1353 -0.2945
 5033SOL    HW115783   4.365   2.572   4.415  0.1827  1.3075  0.0957
 5033SOL    HW215784   4.437   2.439   4.416 -1.1995  0.5122 -1.1111
 5034SOL     OW15785   4.348   6.018   4.734  0.4643 -0.2829 -0.0674
 5034SOL    HW115786   4.356   5.943   4.674  1.0490 -0.8164  0.6564
 5034SOL    HW215787   4.384   5.986   4.817  0.1568  0.6146  0.4220
 5035SOL     OW15788   4.714   0.354   3.248 -0.2976 -0.2573 -0.0300
 5035SOL    HW115789   4.655   0.293   3.291 -1.5127  1.5466  0.9782
 5035SOL    HW215790   4.664   0.435   3.240  0.0312 -0.2421 -4.3584
 5036SOL     OW15791   2.792   1.549   6.078 -0.1122 -0.0425 -0.6239
 5036SOL    HW115792   2.716   1.558   6.020 -0.8649  1.3029  0.4961
 5036SOL    HW215793   2.769   1.603   6.155  1.5953 -0.3470  0.1286
 5037SOL     OW15794   1.710   1.618   6.239 -0.0071  0.1318 -0.1518
 5037SOL    HW115795   1.655   1.680   6.287 -1.1971 -0.5286 -0.6245
 5037SOL    HW215796   1.783   1.600   6.299 -0.8168  0.2744  0.9069
 5038SOL     OW15797   2.956   4.561   3.598 -0.1589 -0.2308 -0.0693
 5038SOL    HW115798   3.011   4.486   3.623 -0.1096  0.5682  2.5071
 5038SOL    HW215799   2.868   4.525   3.595  0.2095 -1.0949 -2.2943
 5039SOL     OW15800   0.261   3.528   0.225 -0.1811  0.0704 -0.4357
 5039SOL    HW115801   0.320   3.507   0.298  0.6918  0.2465 -1.0753
 5039SOL    HW215802   0.192   3.582   0.265 -1.1131 -1.8918  0.7459
 5040SOL     OW15803   4.591   3.375   3.770 -0.2274 -0.2613  0.2161
 5040SOL    HW115804   4.603   3.456   3.720  0.9482 -0.9647 -0.6763
 5040SOL    HW215805   4.551   3.404   3.852  1.0662  1.3442  0.3276
 5041SOL     OW15806   0.743   1.949   1.873 -0.1206 -0.7570  0.4434
 5041SOL    HW115807   0.809   1.883   1.892  1.2025  0.5848  0.7091
 5041SOL    HW215808   0.722   1.988   1.958  1.3471  1.1634 -0.0109
 5042SOL     OW15809   0.681   1.341   4.270  0.1647 -0.4751  0.1311
 5042SOL    HW115810   0.593   1.374   4.287  0.2305 -0.2953  0.1310
 5042SOL    HW215811   0.669   1.272   4.205  0.2839  1.3210 -1.9159
 5043SOL     OW15812   0.709   0.127   5.135  0.2692 -0.0117 -0.4192
 5043SOL    HW115813   0.736   0.047   5.090 -0.2012 -0.7321  0.5260
 5043SOL    HW215814   0.772   0.193   5.107  0.7529 -0.7431 -1.1140
 5044SOL     OW15815   6.053   3.491   0.774  0.6454 -0.0180 -0.3901
 5044SOL    HW115816   5.995   3.546   0.826 -2.1975 -2.6202 -0.5373
 5044SOL    HW215817   6.135   3.541   0.769 -1.5428  4.0318 -0.3390
 5045SOL     OW15818   4.670   1.363   2.589 -0.0232  0.0888 -0.2117
 5045SOL    HW115819   4.692   1.331   2.502 -0.8574  0.7057 -0.6661
 5045SOL    HW215820   4.577   1.343   2.600 -0.0061  0.3045  0.4058
 5046SOL     OW15821   6.423   1.667   1.017  0.2183 -0.6067  0.4396
 5046SOL    HW115822   6.506   1.634   1.053  0.6778 -0.5462 -0.5269
 5046SOL    HW215823   6.449   1.712   0.936 -0.8926 -1.5636 -0.4813
 5047SOL     OW15824   2.094   5.082   0.645  0.1103  0.1900  0.4170
 5047SOL    HW115825   2.011   5.040   0.667  0.8673 -0.5419  2.0360
 5047SOL    HW215826   2.145   5.079   0.726  1.2204  1.8365 -0.1584
 5048SOL     OW15827   5.091   4.059   4.459 -0.2928  0.6243  0.0138
 5048SOL    HW115828   5.184   4.046   4.478 -0.2481 -0.4987 -0.8665
 5048SOL    HW215829   5.083   4.153   4.445  1.2464  0.4733 -2.4111
 5049SOL     OW15830   1.815   4.921   5.977 -0.2468  0.1692 -0.2102
 5049SOL    HW115831   1.886   4.956   5.924  1.8653  0.9081  2.8123
 5049SOL    HW215832   1.763   4.998   6.001  0.5343  0.3217  1.0844
 5050SOL     OW15833   2.527   2.644   0.055  0.1403 -0.2950  0.1468
 5050SOL    HW115834   2.581   2.648  -0.024  1.8383 -0.2690  1.2637
 5050SOL    HW215835   2.590   2.635   0.127 -1.2932  0.6683  1.5934
 5051SOL     OW15836   6.567   5.443   4.853  0.6853 -0.9749 -0.1444
 5051SOL    HW115837   6.636   5.403   4.801  0.0363 -2.1618 -0.1448
 5051SOL    HW215838   6.504   5.372   4.867 -2.5165  0.8719 -3.4161
 5052SOL     OW15839   2.684   3.906   3.193  0.1205  0.3132  0.4384
 5052SOL    HW115840   2.751   3.865   3.138 -0.0304  1.3587 -0.5719
 5052SOL    HW215841   2.677   3.995   3.159 -0.6327  0.7135  1.5884
 5053SOL     OW15842   1.972   2.815   3.595 -0.2996  0.0364  0.3037
 5053SOL    HW115843   2.049   2.857   3.557  1.7223 -1.7605  2.1026
 5053SOL    HW215844   1.977   2.837   3.688 -1.2804 -1.0611  0.6438
 5054SOL     OW15845   6.758   2.912   0.751 -0.1811 -0.3914  0.1413
 5054SOL    HW115846   6.740   2.975   0.680  0.2728 -0.3938  0.0185
 5054SOL    HW215847   6.823   2.955   0.805 -1.6739  0.2756  1.4750
 5055SOL     OW15848   5.929   6.345   6.431  0.6464  0.3113  0.7086
 5055SOL    HW115849   5.920   6.429   6.387  1.4361 -0.3551 -0.7940
 5055SOL    HW215850   6.023   6.338   6.451  0.5508 -0.1118  1.0268
 5056SOL     OW15851   1.641   4.737   6.033 -0.2341 -0.7052 -0.1880
 5056SOL    HW115852   1.608   4.716   5.945 -1.1963 -0.0969  0.0133
 5056SOL    HW215853   1.690   4.819   6.020 -1.0887 -0.1572 -0.0213
 5057SOL     OW15854   3.386   6.062   4.905  0.5401 -0.0312  0.1109
 5057SOL    HW115855   3.479   6.074   4.922  0.7991  1.0651 -1.8168
 5057SOL    HW215856   3.379   6.064   4.810 -1.5398  0.6179  0.2366
 5058SOL     OW15857   0.159   0.746   1.687  0.3359  0.2619 -0.2099
 5058SOL    HW115858   0.154   0.673   1.749  1.2285 -0.3157 -0.7971
 5058SOL    HW215859   0.176   0.823   1.742  0.2487 -0.1031  0.3354
 5059SOL     OW15860   0.841   6.664   5.128 -0.4150  0.2942 -0.2401
 5059SOL    HW115861   0.895   6.687   5.204 -2.8400  0.3116  1.5986
 5059SOL    HW215862   0.864   6.729   5.062  0.5812  1.3411  1.0773
 5060SOL     OW15863   5.335   5.875   6.702 -0.2060 -0.2173 -0.2247
 5060SOL    HW115864   5.332   5.946   6.639 -0.8868  0.3090  0.3820
 5060SOL    HW215865   5.417   5.889   6.750 -0.5015  0.3733  0.1223
 5061SOL     OW15866   6.171   6.781   5.381  0.1444 -0.7275 -0.3155
 5061SOL    HW115867   6.221   6.828   5.315 -0.2827 -1.2059 -0.9891
 5061SOL    HW215868   6.173   6.690   5.353 -0.7300 -0.8208 -0.1196
 5062SOL     OW15869   5.105   0.206   0.082 -0.3281  0.0099  0.2151
 5062SOL    HW115870   5.127   0.290   0.042 -1.2759  0.4887  0.6805
 5062SOL    HW215871   5.178   0.189   0.142 -0.5543  0.9457  0.7805
 5063SOL     OW15872   2.557   1.057   3.346  0.0548 -0.1360  0.3138
 5063SOL    HW115873   2.588   1.016   3.265  1.0156 -1.2823  1.2318
 5063SOL    HW215874   2.494   1.123   3.317  1.3518  0.3876 -1.4564
 5064SOL     OW15875   0.957   6.254   0.308  0.1057  0.2471  0.0205
 5064SOL    HW115876   1.002   6.338   0.297  0.0116  0.1112 -1.8059
 5064SOL    HW215877   0.869   6.269   0.272  0.4194 -0.8774 -1.2982
 5065SOL     OW15878   1.112   0.433   2.550 -0.6383 -0.1925 -0.0433
 5065SOL    HW115879   1.077   0.416   2.637 -2.8797  2.4389 -0.3183
 5065SOL    HW215880   1.039   0.418   2.491 -0.3594  1.9682 -1.0212
 5066SOL     OW15881   6.532   3.415   4.587 -0.0458 -0.0009  0.2997
 5066SOL    HW115882   6.564   3.337   4.542 -2.0424  0.3458 -1.9715
 5066SOL    HW215883   6.455   3.442   4.536 -0.4024  2.5127  1.9653
 5067SOL     OW15884   5.673   2.382   6.306 -0.1459  0.0050  0.6297
 5067SOL    HW115885   5.631   2.412   6.226  0.3406 -0.1158  0.3250
 5067SOL    HW215886   5.601   2.363   6.366 -0.5488 -0.6765 -0.0534
 5068SOL     OW15887   0.390   0.147   5.736  0.1501  0.7361 -0.3414
 5068SOL    HW115888   0.361   0.151   5.645  1.2057 -1.4316 -0.8447
 5068SOL    HW215889   0.451   0.073   5.738 -1.4557 -0.6883  2.5737
 5069SOL     OW15890   2.604   3.936   6.347 -0.0024 -0.0414  0.1896
 5069SOL    HW115891   2.628   3.891   6.428  2.0730 -0.7901 -0.7761
 5069SOL    HW215892   2.638   4.025   6.358  1.5526 -0.5343 -0.3653
 5070SOL     OW15893   3.107   2.930   4.198 -0.4986 -0.3530  0.0227
 5070SOL    HW115894   3.128   2.999   4.136  2.8192  0.1726  1.4861
 5070SOL    HW215895   3.055   2.973   4.266 -0.2252  0.2304 -0.1287
 5071SOL     OW15896   2.140   4.673   0.785 -0.3192  0.6036 -0.7638
 5071SOL    HW115897   2.103   4.602   0.837  0.1315  0.0334 -1.1951
 5071SOL    HW215898   2.132   4.750   0.840 -0.0400  0.0597  0.0674
 5072SOL     OW15899   0.695   1.767   0.005 -0.1354 -0.2401 -0.3646
 5072SOL    HW115900   0.706   1.785  -0.088 -0.7562  0.4080 -0.3235
 5072SOL    HW215901   0.616   1.815   0.030  0.0584 -0.3438  0.5095
 5073SOL     OW15902   5.695   3.695   0.414  0.2899  0.0848  0.4293
 5073SOL    HW115903   5.663   3.671   0.501 -0.0808  1.5136  0.7019
 5073SOL    HW215904   5.788   3.670   0.415  0.4973  0.8491  1.5438
 5074SOL     OW15905   6.032   6.785   0.809  0.1442  0.1604 -0.2446
 5074SOL    HW115906   5.968   6.840   0.855  0.4363  0.8766 -0.6710
 5074SOL    HW215907   5.997   6.696   0.817 -1.8786  0.7006 -1.9494
 5075SOL     OW15908   2.672   4.507   3.581 -0.3388  0.1817 -0.5351
 5075SOL    HW115909   2.677   4.589   3.631  0.0639 -0.0162 -0.2412
 5075SOL    HW215910   2.594   4.464   3.615  1.1728 -1.0576  1.7134
 5076SOL     OW15911   0.613   5.827   5.267 -0.2097 -0.8457  0.0785
 5076SOL    HW115912   0.675   5.784   5.327 -1.1270  0.3718  2.0083
 5076SOL    HW215913   0.527   5.796   5.295 -0.7584  0.7959  0.3181
 5077SOL     OW15914   3.223   1.212   4.331  0.2977 -0.9539 -0.2037
 5077SOL    HW115915   3.225   1.301   4.294 -1.7271 -0.1974  1.3377
 5077SOL    HW215916   3.256   1.157   4.261 -1.0245  0.6934 -2.2344
 5078SOL     OW15917   4.143   0.823   4.694 -0.3520  0.1045 -0.4099
 5078SOL    HW115918   4.121   0.730   4.686  1.7153 -0.6672  1.8112
 5078SOL    HW215919   4.210   0.838   4.627  1.3155 -0.7746  0.9969
 5079SOL     OW15920   0.926   0.381   2.373 -0.0033 -0.6055  0.0383
 5079SOL    HW115921   0.853   0.438   2.350 -2.2823 -2.0031  3.0653
 5079SOL    HW215922   0.915   0.304   2.317 -0.5631 -0.5824  0.1092
 5080SOL     OW15923   1.837   5.762   5.575  0.0905 -0.0021 -0.3105
 5080SOL    HW115924   1.749   5.726   5.570  0.5241 -1.4062  1.1181
 5080SOL    HW215925   1.885   5.699   5.630  1.9206  0.8295 -0.8878
 5081SOL     OW15926   5.012   6.004   5.400 -0.3313 -0.1106 -0.2726
 5081SOL    HW115927   5.066   6.082   5.417 -1.4804  0.8754 -0.9807
 5081SOL    HW215928   5.038   5.976   5.312  1.1116 -1.4453  0.5168
 5082SOL     OW15929   3.369   4.622   5.374  0.3784  0.0102  0.2137
 5082SOL    HW115930   3.353   4.565   5.298  1.1184  0.4242 -0.2654
 5082SOL    HW215931   3.289   4.673   5.382 -0.3124 -1.1000  0.6713
 5083SOL     OW15932   0.757   3.687   4.927 -0.4357  0.5714 -0.0163
 5083SOL    HW115933   0.851   3.670   4.917  0.0001  1.1225  2.5283
 5083SOL    HW215934   0.733   3.640   5.007 -2.2070  0.9062 -0.3214
 5084SOL     OW15935   0.728   2.037   4.800  0.4461  0.4131 -0.0808
 5084SOL    HW115936   0.694   1.948   4.809 -0.6566  0.7999 -0.2663
 5084SOL    HW215937   0.769   2.039   4.714 -0.0994  0.2679 -0.3452
 5085SOL     OW15938   4.571   4.816   4.925 -0.2640 -0.6074  0.0882
 5085SOL    HW115939   4.613   4.899   4.901  0.9865 -0.8398  1.3324
 5085SOL    HW215940   4.489   4.815   4.876  0.4015  0.6664 -1.1063
 5086SOL     OW15941   3.092   6.194   0.471 -0.0614 -0.6709  0.1530
 5086SOL    HW115942   3.031   6.238   0.412 -0.7335 -1.4639  0.2319
 5086SOL    HW215943   3.121   6.263   0.531  0.0694 -0.0196 -0.6384
 5087SOL     OW15944   4.474   2.490   5.708  0.3974  0.0907  0.2410
 5087SOL    HW115945   4.412   2.536   5.765 -0.5947 -0.7105 -0.1669
 5087SOL    HW215946   4.421   2.455   5.637  1.2835 -0.7787 -0.0208
 5088SOL     OW15947   5.205   2.368   3.775 -1.1337 -0.2102 -0.3370
 5088SOL    HW115948   5.136   2.381   3.710 -2.0331 -0.4205  0.5563
 5088SOL    HW215949   5.284   2.401   3.732 -1.3793 -1.7770 -2.1283
 5089SOL     OW15950   1.758   6.845   5.921 -0.0018  0.1059 -0.4093
 5089SOL    HW115951   1.781   6.938   5.918  2.3004 -0.3345  1.2146
 5089SOL    HW215952   1.729   6.825   5.832 -2.0846  2.6715 -0.4564
 5090SOL     OW15953   5.251   0.706   2.938 -0.3194  0.0672 -0.4618
 5090SOL    HW115954   5.320   0.743   2.994 -0.4863 -1.9764  1.2494
 5090SOL    HW215955   5.218   0.780   2.888  2.2946  1.3491 -0.4667
 5091SOL     OW15956   4.946   4.470   1.108 -0.0028 -0.0340  0.2374
 5091SOL    HW115957   4.972   4.388   1.066  2.6863  0.4293  0.8536
 5091SOL    HW215958   4.931   4.531   1.035  3.0517  0.3107 -0.2338
 5092SOL     OW15959   2.706   1.662   3.725 -0.0555  0.2739  0.1118
 5092SOL    HW115960   2.639   1.730   3.728  1.8179  2.3559 -1.4191
 5092SOL    HW215961   2.738   1.664   3.634  1.1215 -1.5886  0.4305
 5093SOL     OW15962   2.804   2.113   4.102  0.0799 -0.1341  0.0749
 5093SOL    HW115963   2.798   2.208   4.104  0.7480  0.0339 -2.3221
 5093SOL    HW215964   2.716   2.082   4.123 -0.5596  1.0705 -0.7590
 5094SOL     OW15965   1.638   4.808   2.762 -0.0359  0.1629 -0.3193
 5094SOL    HW115966   1.652   4.901   2.742 -2.3698  0.1388 -2.5491
 5094SOL    HW215967   1.664   4.762   2.683  0.6037 -1.0569  0.5817
 5095SOL     OW15968   0.468   3.033   4.222  0.2536  0.1662 -0.0244
 5095SOL    HW115969   0.516   2.964   4.269 -0.5066  0.1739  0.7850
 5095SOL    HW215970   0.428   3.086   4.292 -0.2505  0.6512 -0.6731
 5096SOL     OW15971   1.657   4.441   4.165 -0.2230 -0.0242  0.3468
 5096SOL    HW115972   1.701   4.479   4.090 -1.9641 -0.0997 -0.7826
 5096SOL    HW215973   1.619   4.360   4.132 -0.6492 -0.2795  1.4235
 5097SOL     OW15974   1.532   4.585   5.127  0.2979  0.2211 -0.0684
 5097SOL    HW115975   1.596   4.638   5.175  3.1575 -0.0937 -3.1807
 5097SOL    HW215976   1.508   4.637   5.051 -0.5020 -1.0838 -0.7511
 5098SOL     OW15977   2.623   2.041   3.366 -0.1944  0.6743  0.5552
 5098SOL    HW115978   2.568   2.116   3.386  1.7723  2.4497 -0.3333
 5098SOL    HW215979   2.677   2.030   3.445 -0.3528  0.3003  0.6129
 5099SOL     OW15980   2.798   0.097   4.833  0.0202 -0.4962 -0.6957
 5099SOL    HW115981   2.716   0.065   4.796 -0.6375 -0.0110  0.3076
 5099SOL    HW215982   2.831   0.159   4.768 -1.8708  1.4777  0.1020
 5100SOL     OW15983   3.209   6.398   5.175 -0.8923 -0.6841  0.4544
 5100SOL    HW115984   3.118   6.390   5.204 -1.0106 -0.5535  0.1284
 5100SOL    HW215985   3.243   6.472   5.224 -0.2267 -2.1937  2.3931
 5101SOL     OW15986   0.332   2.061   0.216  0.3791 -0.4901 -0.9473
 5101SOL    HW115987   0.385   2.133   0.248 -1.3781  0.1420  0.7197
 5101SOL    HW215988   0.388   2.016   0.152  3.1672 -0.3116  1.1850
 5102SOL     OW15989   4.772   5.693   5.301 -0.4723 -0.5399 -0.4379
 5102SOL    HW115990   4.813   5.631   5.241  1.6938 -0.9557  1.3457
 5102SOL    HW215991   4.825   5.772   5.294 -1.5439  0.1804 -0.6518
 5103SOL     OW15992   1.404   6.218   4.677 -0.4754 -0.2164  0.3350
 5103SOL    HW115993   1.458   6.144   4.705  0.8420  0.6716  0.2737
 5103SOL    HW215994   1.337   6.226   4.745  0.9961  0.1820  1.7959
 5104SOL     OW15995   6.533   3.085   1.808 -0.6600 -0.1701  0.4997
 5104SOL    HW115996   6.618   3.097   1.766 -0.6668  0.0310  0.5423
 5104SOL    HW215997   6.553   3.053   1.896 -0.5789  0.9351  0.9031
 5105SOL     OW15998   1.689   4.484   0.920 -0.7256 -0.4149 -0.3422
 5105SOL    HW115999   1.660   4.502   0.830  1.4662  1.2569 -0.7912
 5105SOL    HW216000   1.674   4.390   0.931 -0.5467 -0.7772 -2.6557
 5106SOL     OW16001   5.864   0.261   0.172 -0.3164 -0.4967  0.0116
 5106SOL    HW116002   5.909   0.230   0.093  0.3945  1.5031 -0.4217
 5106SOL    HW216003   5.804   0.328   0.141  0.2906  0.6437  1.1794
 5107SOL     OW16004   1.511   1.533   4.069  0.0978 -0.2207 -0.6128
 5107SOL    HW116005   1.581   1.551   4.132 -1.3521  1.0570  0.7026
 5107SOL    HW216006   1.530   1.591   3.995  0.1776  0.4533 -0.0686
 5108SOL     OW16007   2.110   0.088   1.505 -0.4314 -0.2204  0.3096
 5108SOL    HW116008   2.103   0.013   1.446  0.4202  0.0219 -0.1242
 5108SOL    HW216009   2.105   0.165   1.448  0.9957  0.0102  0.4603
 5109SOL     OW16010   1.229   2.729   0.926  0.1936  0.8673  0.0701
 5109SOL    HW116011   1.161   2.790   0.900 -0.4315 -0.3596 -1.3326
 5109SOL    HW216012   1.284   2.719   0.848  2.5347  2.4489  1.3848
 5110SOL     OW16013   1.993   6.761   6.312 -0.2030 -0.5500 -0.4219
 5110SOL    HW116014   1.925   6.739   6.248 -1.4458  3.6271 -0.8892
 5110SOL    HW216015   2.063   6.698   6.297 -2.7565 -3.2443 -1.9456
 5111SOL     OW16016   0.331   1.027   3.082 -0.1278 -0.4978  0.6550
 5111SOL    HW116017   0.345   1.114   3.043  1.0073 -0.9196  0.0464
 5111SOL    HW216018   0.237   1.022   3.099 -0.1398  1.0278  1.1407
 5112SOL     OW16019   0.328   6.530   3.023 -0.1714 -0.3719 -0.0861
 5112SOL    HW116020   0.395   6.519   3.090  1.2643  1.0152 -1.2202
 5112SOL    HW216021   0.257   6.471   3.050  0.1830  0.3501  2.8072
 5113SOL     OW16022   1.050   1.982   0.989  0.4020  0.2248 -0.3406
 5113SOL    HW116023   1.078   2.068   1.019  2.3835 -0.4467 -0.1263
 5113SOL    HW216024   1.009   1.942   1.066  1.9457 -0.0210  0.3838
 5114SOL     OW16025   6.259   1.157   6.847  0.2848 -0.2447  0.0264
 5114SOL    HW116026   6.193   1.108   6.896 -0.8335 -2.0844 -3.0155
 5114SOL    HW216027   6.213   1.235   6.816  0.7196  0.4457  1.0754
 5115SOL     OW16028   5.436   0.071   6.841  0.0975  0.7594  0.3181
 5115SOL    HW116029   5.468   0.122   6.916 -1.8046 -0.0464  1.7437
 5115SOL    HW216030   5.401  -0.009   6.880 -3.1168  1.3318 -1.0973
 5116SOL     OW16031   5.486   2.843   4.195  0.2486  0.3312  0.1534
 5116SOL    HW116032   5.502   2.932   4.226  3.6608 -0.5820  1.5370
 5116SOL    HW216033   5.501   2.848   4.100  2.5372  0.9745  0.4740
 5117SOL     OW16034   1.287   1.175   0.900  0.1116 -0.1579  0.1475
 5117SOL    HW116035   1.218   1.195   0.835 -0.6821  2.9511  1.7488
 5117SOL    HW216036   1.300   1.258   0.947  4.1836 -0.9378  0.7284
 5118SOL     OW16037   5.700   6.821   6.401 -0.1286  0.6049  0.1746
 5118SOL    HW116038   5.667   6.737   6.433  0.7010  0.4346  0.6065
 5118SOL    HW216039   5.673   6.884   6.467 -0.1171  0.5595  0.2227
 5119SOL     OW16040   4.704   4.863   5.869  0.3949 -0.4803 -0.5075
 5119SOL    HW116041   4.753   4.823   5.941 -0.1139 -0.7132 -0.2851
 5119SOL    HW216042   4.650   4.792   5.834 -1.2815  0.2161  0.5449
 5120SOL     OW16043   5.539   3.860   3.492 -0.1713  0.3899 -0.3777
 5120SOL    HW116044   5.516   3.906   3.411 -2.4858 -1.9962 -1.1975
 5120SOL    HW216045   5.455   3.841   3.534  0.8750 -0.3068  1.5143
 5121SOL     OW16046   6.708   1.614   4.185  0.4600 -0.1069 -0.0993
 5121SOL    HW116047   6.642   1.593   4.119  0.9087 -1.1260 -0.2431
 5121SOL    HW216048   6.707   1.540   4.245  1.6410 -0.2698 -0.2473
 5122SOL     OW16049   2.509   6.641   0.476  0.5258  0.9076 -0.0190
 5122SOL    HW116050   2.540   6.727   0.449 -0.5928  1.0613 -0.8917
 5122SOL    HW216051   2.450   6.658   0.549  0.2611  0.8831 -0.2277
 5123SOL     OW16052   6.561   2.361   2.010 -0.7174  0.3523 -0.0950
 5123SOL    HW116053   6.609   2.348   1.928  0.3970 -0.5014  0.6635
 5123SOL    HW216054   6.474   2.326   1.993  0.2199 -2.1157 -0.2115
 5124SOL     OW16055   5.308   1.354   1.446  0.8326  0.4755 -0.0345
 5124SOL    HW116056   5.377   1.292   1.471  0.8313  0.1216 -0.9045
 5124SOL    HW216057   5.245   1.350   1.518  1.0092 -0.2604  0.0814
 5125SOL     OW16058   4.672   4.162   2.266 -0.2224 -0.2817 -0.0452
 5125SOL    HW116059   4.742   4.176   2.202  0.1757  0.0904  0.4569
 5125SOL    HW216060   4.634   4.078   2.243 -1.1001  0.5101 -1.7154
 5126SOL     OW16061   5.821   6.418   6.705  0.2251 -0.4014  0.3862
 5126SOL    HW116062   5.837   6.388   6.615  1.3859  1.8605 -0.2282
 5126SOL    HW216063   5.743   6.472   6.699  1.1189  0.9515  0.3874
 5127SOL     OW16064   2.871   1.814   3.208 -0.4767 -0.1044  0.4369
 5127SOL    HW116065   2.811   1.768   3.149 -1.4407 -0.0949  1.3895
 5127SOL    HW216066   2.958   1.782   3.182 -1.0412 -1.7858  0.4498
 5128SOL     OW16067   5.099   3.697   2.089 -0.2440 -0.0568 -0.5333
 5128SOL    HW116068   5.070   3.702   2.180 -1.3150 -0.4873 -0.8281
 5128SOL    HW216069   5.054   3.621   2.053  2.5552 -1.8057 -0.6268
 5129SOL     OW16070   3.574   3.843   5.829 -0.2581 -0.4080 -0.3985
 5129SOL    HW116071   3.573   3.907   5.758  2.1952 -1.4439 -1.4545
 5129SOL    HW216072   3.523   3.770   5.796 -1.3147  0.1242 -0.0065
 5130SOL     OW16073   1.308   0.958   0.254  0.2127  0.0052  0.1721
 5130SOL    HW116074   1.281   1.009   0.330  1.3819  2.2811 -0.8310
 5130SOL    HW216075   1.227   0.937   0.208 -0.2521  2.1318 -0.0561
 5131SOL     OW16076   4.386   5.803   6.726 -0.1234 -0.2034  0.0354
 5131SOL    HW116077   4.439   5.752   6.665  1.7783  1.6366  0.0402
 5131SOL    HW216078   4.449   5.840   6.787 -1.3252  2.4831 -0.2306
 5132SOL     OW16079   5.781   0.895   0.118  0.0731 -0.2620 -0.3459
 5132SOL    HW116080   5.764   0.943   0.199 -1.3020  0.3537 -0.9764
 5132SOL    HW216081   5.777   0.962   0.049  0.4819 -0.9040 -1.0096
 5133SOL     OW16082   5.471   6.540   1.727 -0.3498  0.1095 -0.2540
 5133SOL    HW116083   5.552   6.494   1.749 -0.2559  0.7835  0.8667
 5133SOL    HW216084   5.411   6.471   1.698  0.9377 -0.2868 -2.1625
 5134SOL     OW16085   1.422   5.131   3.527 -0.4085  0.1661 -0.1091
 5134SOL    HW116086   1.506   5.092   3.502 -0.4970 -0.5318  0.6236
 5134SOL    HW216087   1.443   5.188   3.601 -0.4410  0.7034 -0.5131
 5135SOL     OW16088   2.409   0.675   0.452  0.3632  0.4303  0.4936
 5135SOL    HW116089   2.455   0.617   0.513  0.3906  2.7079  2.8078
 5135SOL    HW216090   2.461   0.673   0.372  1.2851 -1.3928  1.0875
 5136SOL     OW16091   0.648   0.943   4.771 -0.0093  0.0043 -0.2331
 5136SOL    HW116092   0.729   0.953   4.821  0.0851 -0.3871 -0.3043
 5136SOL    HW216093   0.581   0.929   4.838 -0.1145  0.8967 -0.1433
 5137SOL     OW16094   3.851   3.952   4.305  0.1093 -0.2041  0.1364
 5137SOL    HW116095   3.945   3.947   4.288  0.2554  1.0514  0.4512
 5137SOL    HW216096   3.831   4.046   4.304 -0.9562 -0.3895  1.0140
 5138SOL     OW16097   6.539   1.969   1.081 -0.8545 -0.1160  0.1755
 5138SOL    HW116098   6.634   1.971   1.080 -0.6498 -0.8520  3.5383
 5138SOL    HW216099   6.514   1.932   0.997  1.8697 -0.6909 -0.4732
 5139SOL     OW16100   1.865   0.375   4.356 -0.5458  0.1984  0.2027
 5139SOL    HW116101   1.949   0.421   4.358  0.8278 -1.6131 -3.9511
 5139SOL    HW216102   1.888   0.283   4.361 -2.5454 -0.3076  1.0032
 5140SOL     OW16103   5.891   1.540   1.608 -0.0988  0.1320  0.2589
 5140SOL    HW116104   5.950   1.601   1.653  0.4031 -1.1600  1.4257
 5140SOL    HW216105   5.933   1.523   1.524  0.2047  0.6929  0.2921
 5141SOL     OW16106   5.626   6.428   3.409 -0.3088 -0.2174 -0.0710
 5141SOL    HW116107   5.709   6.384   3.424  0.9698  1.7691 -0.9960
 5141SOL    HW216108   5.606   6.471   3.491  0.1865  0.2721 -0.2062
 5142SOL     OW16109   1.758   3.586   0.576  0.4952 -0.0887  0.0557
 5142SOL    HW116110   1.844   3.576   0.616  1.0640 -0.5339 -1.2147
 5142SOL    HW216111   1.698   3.599   0.649  1.4130 -1.3674  1.0816
 5143SOL     OW16112   2.129   4.460   2.956 -0.0986 -0.0360  0.8436
 5143SOL    HW116113   2.165   4.372   2.938 -0.8758 -0.5364  1.6886
 5143SOL    HW216114   2.202   4.507   2.996  1.2353  0.6499 -2.0713
 5144SOL     OW16115   0.616   0.612   2.567 -0.0755 -0.0660  0.4849
 5144SOL    HW116116   0.522   0.596   2.579 -0.1920  0.1984 -0.0324
 5144SOL    HW216117   0.638   0.678   2.632 -0.6986  1.3878 -0.7220
 5145SOL     OW16118   1.020   3.229   1.376 -0.1018  0.0543  0.0092
 5145SOL    HW116119   1.089   3.289   1.404 -0.5156  1.0044 -0.9441
 5145SOL    HW216120   0.947   3.247   1.436 -0.2884  0.6525 -0.3853
 5146SOL     OW16121   3.762   3.352   0.302  0.1343  0.5484  0.0980
 5146SOL    HW116122   3.712   3.403   0.366  0.0049  0.7902 -0.1983
 5146SOL    HW216123   3.832   3.312   0.354 -1.5210 -1.4783  0.9743
 5147SOL     OW16124   4.915   0.359   2.754 -0.5871  0.0531  0.6088
 5147SOL    HW116125   4.915   0.344   2.848 -1.2158 -0.2709  0.5619
 5147SOL    HW216126   4.983   0.301   2.720  0.3719  0.9379  0.9712
 5148SOL     OW16127   2.502   1.334   2.327  0.0364  0.1117  0.2820
 5148SOL    HW116128   2.573   1.399   2.324 -0.2158  0.4058  0.6571
 5148SOL    HW216129   2.508   1.297   2.415  1.3198 -1.6655 -0.4914
 5149SOL     OW16130   3.581   4.229   3.997 -0.3227 -0.3192 -0.6890
 5149SOL    HW116131   3.587   4.186   4.082 -1.2171 -1.1674 -1.0372
 5149SOL    HW216132   3.633   4.174   3.938  2.3273  1.5469 -0.2634
 5150SOL     OW16133   5.637   5.120   0.685 -0.0092 -0.2360 -0.0246
 5150SOL    HW116134   5.638   5.207   0.726  2.7360  0.3887 -1.1981
 5150SOL    HW216135   5.690   5.066   0.744  0.0721 -0.5514 -0.3846
 5151SOL     OW16136   1.007   3.501   2.712 -0.1412 -0.0595  0.3155
 5151SOL    HW116137   0.945   3.563   2.675 -0.1247 -0.8023 -1.0204
 5151SOL    HW216138   1.087   3.513   2.661 -0.6474 -2.2879 -1.1533
 5152SOL     OW16139   4.359   4.861   2.493 -0.2937  0.1854 -0.1849
 5152SOL    HW116140   4.388   4.843   2.403 -0.8335  0.6543 -0.4588
 5152SOL    HW216141   4.413   4.934   2.522  0.6577 -0.6819  0.2849
 5153SOL     OW16142   4.827   3.087   3.705 -0.8038 -0.5116  0.4008
 5153SOL    HW116143   4.750   3.118   3.657  0.0374 -0.0379 -0.6793
 5153SOL    HW216144   4.886   3.052   3.638  0.4757  0.3249  1.0301
 5154SOL     OW16145   6.644   2.623   1.958  0.0795 -0.1053 -0.1163
 5154SOL    HW116146   6.596   2.540   1.970 -1.2770  0.8813  1.9626
 5154SOL    HW216147   6.606   2.661   1.880 -0.6933 -0.5512  0.0272
 5155SOL     OW16148   0.820   0.596   3.956  0.3177  0.0983 -0.3961
 5155SOL    HW116149   0.800   0.577   3.864 -1.3245 -0.1413 -0.0258
 5155SOL    HW216150   0.783   0.523   4.004  1.1621  0.2301  0.4747
 5156SOL     OW16151   4.548   1.628   6.010  0.0832 -0.0557 -0.2441
 5156SOL    HW116152   4.507   1.551   6.049 -1.9205  1.5220  1.0072
 5156SOL    HW216153   4.528   1.699   6.071  0.6017  1.7331 -2.0389
 5157SOL     OW16154   6.146   6.357   1.087 -0.5679  0.3167  0.0124
 5157SOL    HW116155   6.207   6.351   1.014 -0.3359  0.6007  0.1819
 5157SOL    HW216156   6.159   6.444   1.123  0.3887 -0.3327  1.3154
 5158SOL     OW16157   3.357   0.164   1.945 -0.0245  0.1543  0.3725
 5158SOL    HW116158   3.393   0.108   2.014  0.0544  0.4377  0.5636
 5158SOL    HW216159   3.263   0.163   1.959 -0.1035 -0.5546 -0.1015
 5159SOL     OW16160   3.526   4.564   0.615 -0.1731  0.5408 -0.1712
 5159SOL    HW116161   3.553   4.579   0.706  0.2843 -0.3661 -0.1530
 5159SOL    HW216162   3.440   4.605   0.609  0.2762  1.6119  0.3514
 5160SOL     OW16163   3.770   2.852   4.403 -0.7291  0.7317 -0.2153
 5160SOL    HW116164   3.851   2.806   4.422 -1.1131 -0.8532 -2.1561
 5160SOL    HW216165   3.739   2.883   4.489  1.3827  0.5216  0.6742
 5161SOL     OW16166   6.885   0.205   6.328  0.3436 -0.3741 -0.5176
 5161SOL    HW116167   6.846   0.292   6.320 -0.0519 -0.6014 -1.0808
 5161SOL    HW216168   6.828   0.159   6.389  0.8330 -0.0904  0.1773
 5162SOL     OW16169   4.739   3.398   4.464 -0.3188  0.6357  0.2916
 5162SOL    HW116170   4.692   3.316   4.481 -0.3882  0.9082  1.5072
 5162SOL    HW216171   4.746   3.402   4.369 -0.8460 -0.4842  0.1860
 5163SOL     OW16172   5.985   3.325   0.580 -0.2489  0.6196  0.7571
 5163SOL    HW116173   6.029   3.241   0.572 -0.0384  0.7393  0.6434
 5163SOL    HW216174   6.014   3.359   0.665 -0.7196  0.3570  1.0236
 5164SOL     OW16175   2.306   0.512   5.162 -0.4925 -0.0383 -1.2017
 5164SOL    HW116176   2.250   0.581   5.199 -1.2720 -1.3019  0.0765
 5164SOL    HW216177   2.387   0.557   5.139  0.2506  0.8363  2.4847
 5165SOL     OW16178   6.576   3.518   0.924 -0.0935  0.2520 -0.4182
 5165SOL    HW116179   6.529   3.507   0.841 -3.0362  2.4708  0.7828
 5165SOL    HW216180   6.543   3.447   0.979 -0.9692  0.9368 -0.0402
 5166SOL     OW16181   1.089   6.477   2.225 -0.1380  0.4893 -0.3139
 5166SOL    HW116182   1.062   6.563   2.195 -1.0730 -0.0986 -1.2115
 5166SOL    HW216183   1.022   6.451   2.288 -1.1646 -0.5481 -1.7891
 5167SOL     OW16184   3.905   4.184   5.652  0.3493 -0.8948  0.1589
 5167SOL    HW116185   3.882   4.130   5.728  1.5442 -1.2344  0.2939
 5167SOL    HW216186   3.980   4.236   5.681  0.8367 -1.0529 -0.7951
 5168SOL     OW16187   6.110   5.089   1.587  0.0394 -0.3113 -0.2017
 5168SOL    HW116188   6.069   5.141   1.517 -0.4868 -0.7504 -0.2240
 5168SOL    HW216189   6.192   5.059   1.549  0.3065  0.4209 -0.2256
 5169SOL     OW16190   5.418   0.961   2.431 -0.0079 -0.2168 -0.1195
 5169SOL    HW116191   5.394   0.897   2.365  1.4469  0.8061 -1.7195
 5169SOL    HW216192   5.371   1.041   2.406 -1.9995 -0.6100  1.9848
 5170SOL     OW16193   6.488   1.127   1.711 -0.4733  0.3445 -0.1381
 5170SOL    HW116194   6.512   1.152   1.622 -0.4861 -1.9959 -0.8570
 5170SOL    HW216195   6.455   1.208   1.750  2.0287  2.0706 -1.3418
 5171SOL     OW16196   0.018   6.703   3.173 -0.2807 -0.4354 -0.1736
 5171SOL    HW116197   0.054   6.621   3.137  0.1106  0.2554 -1.4246
 5171SOL    HW216198  -0.073   6.680   3.196  0.5314 -1.8785  1.9171
 5172SOL     OW16199   1.289   3.907   3.589  0.1993 -0.3097 -0.2327
 5172SOL    HW116200   1.329   3.944   3.511 -1.3291 -0.6626 -1.2160
 5172SOL    HW216201   1.209   3.959   3.602  0.1758 -0.5826  0.8059
 5173SOL     OW16202   1.193   1.407   3.066 -0.4312  0.1527 -0.0642
 5173SOL    HW116203   1.209   1.456   3.146  0.9897  1.4906 -1.0968
 5173SOL    HW216204   1.125   1.456   3.021  0.9851  1.2478 -1.0956
 5174SOL     OW16205   0.729   5.267   2.264 -0.3851 -0.5937 -0.2933
 5174SOL    HW116206   0.697   5.206   2.330 -0.1902 -1.5102 -1.0192
 5174SOL    HW216207   0.707   5.225   2.181 -0.8598  0.6512 -0.8243
 5175SOL     OW16208   2.929   6.181   6.774 -0.2355 -0.1357  0.3544
 5175SOL    HW116209   2.966   6.219   6.854  0.2803 -0.7984  0.4447
 5175SOL    HW216210   2.850   6.232   6.757  0.6885  1.3052  0.1841
 5176SOL     OW16211   5.285   2.317   0.461 -0.2454  0.2819 -0.0574
 5176SOL    HW116212   5.301   2.229   0.494 -1.4572  0.2102  0.4139
 5176SOL    HW216213   5.196   2.338   0.492 -0.8454  0.8055 -1.9883
 5177SOL     OW16214   5.209   4.276   2.979 -0.0632 -0.3829 -0.1719
 5177SOL    HW116215   5.296   4.301   2.948 -0.3379  0.0655 -0.6035
 5177SOL    HW216216   5.160   4.257   2.899 -0.0471 -1.7137  0.1224
 5178SOL     OW16217   4.453   6.665   3.890 -0.4745 -0.2080 -0.2556
 5178SOL    HW116218   4.545   6.645   3.870 -0.5575  0.6457 -1.6316
 5178SOL    HW216219   4.421   6.588   3.936  0.1037 -1.8921 -2.5025
 5179SOL     OW16220   6.085   1.775   2.936  0.4497  0.0387  0.4302
 5179SOL    HW116221   6.172   1.743   2.959  0.4527 -0.5680 -0.3578
 5179SOL    HW216222   6.094   1.808   2.846 -0.4735 -1.5085 -0.2724
 5180SOL     OW16223   5.967   3.916   2.306 -0.3511  0.4962 -0.1439
 5180SOL    HW116224   6.020   3.838   2.325 -0.3090  0.6409  0.3610
 5180SOL    HW216225   6.030   3.986   2.292 -0.4013  0.7486  0.8144
 5181SOL     OW16226   1.268   4.060   0.874 -0.1742  0.3349 -0.3363
 5181SOL    HW116227   1.185   4.023   0.906 -0.5543  0.6764 -0.9175
 5181SOL    HW216228   1.333   3.994   0.898 -0.3642  0.7553  1.5268
 5182SOL     OW16229   5.200   1.356   3.534  1.0269 -0.0266  0.0826
 5182SOL    HW116230   5.272   1.416   3.513  0.8789  0.5516  1.1505
 5182SOL    HW216231   5.125   1.391   3.486  1.0671  0.3278  0.2803
 5183SOL     OW16232   2.570   4.570   5.003  0.2259  0.2954  0.1422
 5183SOL    HW116233   2.607   4.580   4.915 -0.4435 -0.3897 -0.2320
 5183SOL    HW216234   2.634   4.518   5.051 -0.1768 -0.7877 -0.4634
 5184SOL     OW16235   6.624   4.653   0.457  0.1062  0.2693  0.3503
 5184SOL    HW116236   6.584   4.572   0.488  1.8896 -1.1991 -1.0168
 5184SOL    HW216237   6.691   4.673   0.522 -1.2659  1.5091  1.4554
 5185SOL     OW16238   6.444   1.953   5.803 -0.3402  0.0912 -0.2460
 5185SOL    HW116239   6.466   1.879   5.747 -0.6618 -0.3040  0.1404
 5185SOL    HW216240   6.399   2.015   5.746  2.7150  1.4604 -1.3610
 5186SOL     OW16241   4.942   3.531   6.126  0.4187  0.1229  0.0655
 5186SOL    HW116242   4.995   3.577   6.061  3.3286 -1.6108  0.9799
 5186SOL    HW216243   4.925   3.445   6.086 -0.9492  0.3279  0.1758
 5187SOL     OW16244   0.076   3.163   6.061 -0.0865  0.1072  0.0193
 5187SOL    HW116245   0.052   3.206   5.979  2.7827  1.7080 -0.0859
 5187SOL    HW216246   0.032   3.215   6.129  0.5858  1.1451 -0.3159
 5188SOL     OW16247   1.667   6.511   4.663  0.1939 -0.1706 -0.2476
 5188SOL    HW116248   1.648   6.601   4.689  1.7684  0.4771 -1.2020
 5188SOL    HW216249   1.640   6.458   4.738 -0.8023  1.0783  0.3129
 5189SOL     OW16250   2.401   3.050   3.106 -0.1404  0.1325  0.2705
 5189SOL    HW116251   2.333   3.015   3.048 -0.8205 -0.7307  1.5495
 5189SOL    HW216252   2.429   2.975   3.158 -0.5304  1.1543  2.0089
 5190SOL     OW16253   6.409   5.538   0.136 -0.0971 -0.0208 -0.0574
 5190SOL    HW116254   6.443   5.613   0.088 -0.8291  1.0850  1.0847
 5190SOL    HW216255   6.316   5.534   0.113 -0.1068 -0.4336  0.0487
 5191SOL     OW16256   6.295   6.628   0.465  0.2786  0.3666 -0.5207
 5191SOL    HW116257   6.335   6.543   0.482  0.5394  0.4348 -0.7960
 5191SOL    HW216258   6.338   6.687   0.528  0.5906  0.4332 -0.7933
 5192SOL     OW16259   2.570   1.388   5.417  0.5734 -0.3306  0.2706
 5192SOL    HW116260   2.619   1.306   5.427  1.3094  0.0203 -0.3563
 5192SOL    HW216261   2.487   1.361   5.377  0.9936 -0.7328 -0.3602
 5193SOL     OW16262   5.266   0.431   5.435 -0.0978  0.5906 -0.2433
 5193SOL    HW116263   5.189   0.408   5.487  0.0650 -0.7080 -0.5429
 5193SOL    HW216264   5.231   0.474   5.357 -0.5654 -0.4240 -0.6061
 5194SOL     OW16265   3.311   6.277   1.326 -0.2382  0.1697 -0.1692
 5194SOL    HW116266   3.283   6.358   1.369 -1.4761 -0.3466  0.0150
 5194SOL    HW216267   3.282   6.208   1.385 -0.7894 -0.4947 -1.2143
 5195SOL     OW16268   2.506   6.278   6.397  0.4547 -0.1217 -0.7238
 5195SOL    HW116269   2.507   6.184   6.410  1.9008 -0.0910 -0.4708
 5195SOL    HW216270   2.496   6.289   6.302 -2.3925 -0.4467 -0.5466
 5196SOL     OW16271   5.779   1.046   4.306 -0.0526 -0.0144  0.3644
 5196SOL    HW116272   5.842   1.046   4.234 -1.0965 -1.1718 -0.6037
 5196SOL    HW216273   5.809   0.977   4.365 -0.9522 -1.2796 -0.6243
 5197SOL     OW16274   5.815   5.493   3.172 -0.3485 -0.1605 -0.0892
 5197SOL    HW116275   5.873   5.424   3.139 -0.5753 -0.9562  1.1076
 5197SOL    HW216276   5.818   5.561   3.105 -0.0528 -1.2908 -1.2621
 5198SOL     OW16277   3.735   2.368   6.067 -0.5892  0.0620  0.2184
 5198SOL    HW116278   3.653   2.343   6.025  0.3442 -1.6846 -0.6595
 5198SOL    HW216279   3.758   2.293   6.122 -0.4208  1.2272  1.8220
 5199SOL     OW16280   3.758   3.789   3.884  0.7294  0.5129  0.2883
 5199SOL    HW116281   3.755   3.696   3.865  2.2154  0.0815  1.9070
 5199SOL    HW216282   3.666   3.816   3.888  0.2334 -1.1223  0.8543
 5200SOL     OW16283   4.249   4.549   3.874  1.2744  0.6097  0.4215
 5200SOL    HW116284   4.314   4.573   3.808  0.9828  0.3159  0.0262
 5200SOL    HW216285   4.189   4.623   3.877  0.2971 -0.0909 -0.8943
 5201SOL     OW16286   3.927   5.166   0.564  0.2543  0.7093 -0.0823
 5201SOL    HW116287   3.918   5.251   0.521 -0.3582  0.4507 -0.4784
 5201SOL    HW216288   3.991   5.119   0.511  0.1605  0.7140 -0.2013
 5202SOL     OW16289   3.596   2.852   4.926 -0.3661  0.3815 -0.1512
 5202SOL    HW116290   3.691   2.838   4.933 -0.0255  2.1214 -0.9488
 5202SOL    HW216291   3.575   2.907   5.002 -0.3970  1.4640 -0.9158
 5203SOL     OW16292   1.300   3.665   1.884 -0.3360  0.3867 -0.4884
 5203SOL    HW116293   1.220   3.634   1.844 -0.7542  0.3349  0.3600
 5203SOL    HW216294   1.323   3.598   1.948 -1.1464  1.6470  1.2298
 5204SOL     OW16295   5.398   2.676   3.196  0.4097 -0.2362 -0.0306
 5204SOL    HW116296   5.422   2.710   3.283 -0.5804  0.7614 -0.1194
 5204SOL    HW216297   5.398   2.754   3.140 -1.5075 -0.4205 -0.3342
 5205SOL     OW16298   3.502   5.493   4.113  0.3745  0.1003 -0.6148
 5205SOL    HW116299   3.453   5.475   4.033 -1.1091  0.8174  0.0972
 5205SOL    HW216300   3.491   5.414   4.166  1.3273 -0.3608 -1.0745
 5206SOL     OW16301   2.226   4.940   5.561 -0.1178  0.0685  1.0230
 5206SOL    HW116302   2.263   4.852   5.555 -0.1907  0.1013  0.0380
 5206SOL    HW216303   2.189   4.957   5.475 -0.4002  0.9374  1.3048
 5207SOL     OW16304   3.807   4.950   2.033 -0.0815  0.1162 -0.2581
 5207SOL    HW116305   3.820   4.893   2.108 -1.4123 -1.5139 -1.2091
 5207SOL    HW216306   3.880   4.929   1.974  0.4003  0.6859  0.1132
 5208SOL     OW16307   5.922   6.156   3.720  0.8256  0.5246  0.2959
 5208SOL    HW116308   5.935   6.242   3.761 -2.5385  0.6974  1.3396
 5208SOL    HW216309   5.833   6.131   3.746  1.1964 -2.6881 -1.1046
 5209SOL     OW16310   0.895   3.089   2.704 -0.4247  0.5191 -0.5049
 5209SOL    HW116311   0.877   3.073   2.611 -1.4467  1.8531 -0.5718
 5209SOL    HW216312   0.956   3.019   2.729 -0.0167  0.2134 -2.2036
 5210SOL     OW16313   3.147   3.252   4.728 -0.4441  0.2543 -0.2239
 5210SOL    HW116314   3.061   3.248   4.687 -0.0681  1.3875 -1.1974
 5210SOL    HW216315   3.131   3.294   4.812 -0.8614  0.3211 -0.3331
 5211SOL     OW16316   4.103   0.235   3.459 -0.4375 -0.0099 -0.2623
 5211SOL    HW116317   4.151   0.164   3.502 -2.3494 -1.1430  0.1058
 5211SOL    HW216318   4.167   0.274   3.400  1.3776 -0.4299  1.3032
 5212SOL     OW16319   0.338   2.469   3.754  0.2405  0.3334 -0.7100
 5212SOL    HW116320   0.402   2.518   3.701  0.5771  1.9170  1.0630
 5212SOL    HW216321   0.378   2.383   3.766  1.5048  0.9028 -0.6439
 5213SOL     OW16322   0.279   0.393   3.850 -0.0705  0.3151 -0.7215
 5213SOL    HW116323   0.240   0.359   3.931 -0.3185 -0.6292 -1.2223
 5213SOL    HW216324   0.346   0.454   3.880  0.2522 -0.4660  0.2231
 5214SOL     OW16325   3.162   3.867   6.670 -0.3060  0.2142 -0.1790
 5214SOL    HW116326   3.245   3.897   6.709  0.0208 -1.8992  0.8872
 5214SOL    HW216327   3.107   3.945   6.669  0.9635  1.1929  1.1407
 5215SOL     OW16328   2.167   4.341   0.469  0.2739  0.2675  0.0311
 5215SOL    HW116329   2.170   4.252   0.435 -1.6973  1.0432 -2.4550
 5215SOL    HW216330   2.258   4.360   0.496  1.5010 -1.3057 -2.6332
 5216SOL     OW16331   4.844   2.622   0.792  0.2734 -0.3560  0.2021
 5216SOL    HW116332   4.758   2.589   0.816  0.8286 -1.9415  0.1255
 5216SOL    HW216333   4.827   2.683   0.720 -0.7986 -0.4019  0.4023
 5217SOL     OW16334   0.378   1.721   1.422 -0.1398 -0.9222  0.2828
 5217SOL    HW116335   0.317   1.719   1.348 -1.6540  1.1700  1.3692
 5217SOL    HW216336   0.447   1.781   1.395 -0.3601 -0.6465  0.3334
 5218SOL     OW16337   3.666   3.995   3.539 -0.4240  0.0226 -0.4243
 5218SOL    HW116338   3.590   3.976   3.595 -0.2555  1.7499  0.4539
 5218SOL    HW216339   3.728   3.925   3.560 -1.2812 -0.7189 -0.2492
 5219SOL     OW16340   2.994   4.113   4.054 -0.1990  0.1846  0.3021
 5219SOL    HW116341   3.029   4.097   4.141  0.7574  0.7163  0.0283
 5219SOL    HW216342   3.004   4.207   4.040 -0.6555  0.1589 -0.2463
 5220SOL     OW16343   6.687   1.049   6.657  0.2443 -0.3176 -0.7505
 5220SOL    HW116344   6.702   0.985   6.727  3.3940  0.4808 -0.5290
 5220SOL    HW216345   6.650   0.998   6.585 -0.1012 -1.7826  0.4036
 5221SOL     OW16346   1.774   4.956   3.898 -0.3710  0.4794  0.4429
 5221SOL    HW116347   1.773   4.885   3.834 -0.8886  0.5564  0.3647
 5221SOL    HW216348   1.683   4.985   3.904 -0.1747  1.1016  0.5132
 5222SOL     OW16349   1.331   2.504   2.204  0.0187  0.3638 -0.3795
 5222SOL    HW116350   1.370   2.585   2.171  0.5479  0.4413  0.4056
 5222SOL    HW216351   1.246   2.499   2.160 -0.1459  1.4910 -0.2280
 5223SOL     OW16352   1.990   3.476   1.077 -0.2224  0.9680  0.6980
 5223SOL    HW116353   1.987   3.569   1.054 -1.8500  1.6992  3.3991
 5223SOL    HW216354   1.914   3.463   1.134 -0.9721 -2.4390 -0.8416
 5224SOL     OW16355   4.378   6.248   2.529  0.1529  0.1101  0.3399
 5224SOL    HW116356   4.437   6.308   2.482 -0.8760 -0.1406 -1.3631
 5224SOL    HW216357   4.301   6.300   2.548  0.6264  0.2560  1.9958
 5225SOL     OW16358   6.196   3.839   2.501  0.4198 -0.3291 -0.2152
 5225SOL    HW116359   6.291   3.855   2.498  0.0922  2.0291  0.1623
 5225SOL    HW216360   6.184   3.773   2.569  1.5913  1.3424  1.6922
 5226SOL     OW16361   3.332   2.434   6.046 -0.3761  0.8064 -0.2416
 5226SOL    HW116362   3.248   2.400   6.015  0.1600 -1.5458  0.6625
 5226SOL    HW216363   3.393   2.361   6.034  1.3283  2.1165  0.0610
 5227SOL     OW16364   2.688   5.151   4.760  0.2847 -0.3871 -0.1372
 5227SOL    HW116365   2.648   5.067   4.784 -0.9301 -0.3849 -1.9193
 5227SOL    HW216366   2.660   5.165   4.670  4.1473 -0.1943 -1.4758
 5228SOL     OW16367   2.823   5.059   5.070 -0.2764  0.3269  0.1447
 5228SOL    HW116368   2.822   5.150   5.040 -0.3152  0.7731  1.4729
 5228SOL    HW216369   2.766   5.058   5.147  0.4242 -0.6349  0.6661
 5229SOL     OW16370   4.238   5.266   2.356 -0.0650 -0.7707  0.7257
 5229SOL    HW116371   4.248   5.329   2.284 -0.6694  1.1380  2.2495
 5229SOL    HW216372   4.325   5.261   2.396 -0.4784  0.8196  1.9243
 5230SOL     OW16373   3.781   0.708   4.895  0.6281  0.0279  0.3672
 5230SOL    HW116374   3.731   0.626   4.889  0.0815  0.4205 -0.7300
 5230SOL    HW216375   3.795   0.720   4.989  0.7696 -1.3453  0.5488
 5231SOL     OW16376   6.509   0.689   6.664  0.0531 -0.8764 -0.6226
 5231SOL    HW116377   6.465   0.774   6.667  0.9657 -0.4074 -0.2715
 5231SOL    HW216378   6.503   0.662   6.572 -2.0476 -1.4166 -0.3693
 5232SOL     OW16379   4.880   6.606   3.084 -0.1901  0.0006 -0.0878
 5232SOL    HW116380   4.855   6.514   3.095  1.7438 -0.5613  0.0090
 5232SOL    HW216381   4.964   6.613   3.130 -0.2025  1.7799 -0.2723
 5233SOL     OW16382   2.135   2.751   5.102 -0.1738 -0.0951  0.0160
 5233SOL    HW116383   2.212   2.801   5.077 -0.5231 -0.4820 -1.9522
 5233SOL    HW216384   2.065   2.815   5.108 -0.2437 -0.0957 -0.7553
 5234SOL     OW16385   5.355   3.180   3.776  0.5874 -0.1384  0.7339
 5234SOL    HW116386   5.298   3.106   3.755  1.2273 -1.0853  2.1544
 5234SOL    HW216387   5.375   3.220   3.692 -2.7995  0.7652  0.2050
 5235SOL     OW16388   4.634   1.067   2.615 -0.2277  0.0677  0.4609
 5235SOL    HW116389   4.541   1.062   2.594 -0.4609  2.8872  0.4842
 5235SOL    HW216390   4.667   0.979   2.598 -2.3418 -0.3434 -2.1777
 5236SOL     OW16391   5.048   0.886   5.123  0.3219 -0.0194 -0.1128
 5236SOL    HW116392   5.025   0.832   5.199 -0.4537  0.5426  0.0657
 5236SOL    HW216393   4.974   0.946   5.113 -0.4621 -1.2380 -2.3828
 5237SOL     OW16394   5.195   3.931   4.082  0.3177 -0.1337 -0.2897
 5237SOL    HW116395   5.241   3.880   4.148  0.1390  0.4638  0.2951
 5237SOL    HW216396   5.259   3.993   4.049  0.1834  0.0945 -0.1197
 5238SOL     OW16397   3.861   0.998   1.341  0.2641  0.2707  0.5363
 5238SOL    HW116398   3.798   0.927   1.353 -0.1240  0.5619  0.2249
 5238SOL    HW216399   3.899   0.983   1.255 -0.3454  0.8470  0.1560
 5239SOL     OW16400   0.326   1.282   0.138  0.1037  0.4954 -0.6125
 5239SOL    HW116401   0.279   1.354   0.180  0.3972  1.0918 -1.2966
 5239SOL    HW216402   0.418   1.297   0.160  0.1299  0.0823 -0.4098
 5240SOL     OW16403   3.392   5.206   6.181  0.2332 -0.1869 -0.0300
 5240SOL    HW116404   3.440   5.131   6.217  0.2549 -0.8948 -1.4489
 5240SOL    HW216405   3.429   5.217   6.094 -0.3225  0.9995 -0.1258
 5241SOL     OW16406   4.699   1.838   2.707 -0.7325 -0.0955  0.4161
 5241SOL    HW116407   4.733   1.838   2.796  1.3796  1.3333 -0.3055
 5241SOL    HW216408   4.768   1.797   2.655 -0.9386  1.0584 -0.8426
 5242SOL     OW16409   5.116   2.567   0.543 -0.3106  0.5572 -0.0464
 5242SOL    HW116410   5.187   2.609   0.591 -1.0966  1.2451  0.5217
 5242SOL    HW216411   5.049   2.634   0.535 -1.3252 -0.3846  0.3184
 5243SOL     OW16412   1.834   6.834   3.204  0.0881 -1.0340 -0.7771
 5243SOL    HW116413   1.756   6.837   3.259 -1.0031 -1.0679 -2.2618
 5243SOL    HW216414   1.852   6.741   3.193  1.4425 -1.0209  1.0215
 5244SOL     OW16415   1.181   2.526   2.872  0.1383 -0.1741 -0.2079
 5244SOL    HW116416   1.099   2.552   2.913  0.9019  1.0072  0.6227
 5244SOL    HW216417   1.213   2.607   2.831  0.8345 -0.6481 -0.6073
 5245SOL     OW16418   0.697   1.658   0.811  0.0843 -0.4137  0.1355
 5245SOL    HW116419   0.756   1.587   0.785 -0.1043  0.1207 -1.9950
 5245SOL    HW216420   0.613   1.634   0.771 -0.6817 -0.2753  1.6189
 5246SOL     OW16421   5.366   0.828   5.580  0.3520  0.1577  0.4575
 5246SOL    HW116422   5.388   0.772   5.655 -1.9469 -1.1884  0.2259
 5246SOL    HW216423   5.275   0.805   5.559 -0.5064  3.5209 -0.0976
 5247SOL     OW16424   0.749   6.711   5.832  0.6110 -0.5320  0.0563
 5247SOL    HW116425   0.754   6.767   5.909 -1.7108  0.2317 -0.2780
 5247SOL    HW216426   0.718   6.627   5.864 -0.9592 -0.0300 -0.0821
 5248SOL     OW16427   3.137   6.478   3.057  0.5620 -0.5243 -0.1198
 5248SOL    HW116428   3.124   6.452   2.966  1.7089  1.2505 -0.8612
 5248SOL    HW216429   3.053   6.462   3.099 -0.5199  0.1255 -1.9167
 5249SOL     OW16430   4.133   4.470   2.621  0.0760 -0.0953 -0.0080
 5249SOL    HW116431   4.086   4.545   2.657 -0.4982  0.5241 -1.9141
 5249SOL    HW216432   4.225   4.486   2.644 -0.2797  0.1788  1.2629
 5250SOL     OW16433   5.808   2.277   0.790 -0.0456  0.2144 -0.0858
 5250SOL    HW116434   5.736   2.223   0.756  0.9034 -0.6919 -0.7255
 5250SOL    HW216435   5.856   2.304   0.712  1.0942 -0.3452  0.3925
 5251SOL     OW16436   1.798   4.068   1.687 -0.2163 -0.4636  0.1054
 5251SOL    HW116437   1.830   4.107   1.606  0.5844 -0.5712  0.3638
 5251SOL    HW216438   1.859   4.099   1.755 -0.3912 -1.0407  0.5341
 5252SOL     OW16439   4.441   0.399   0.146  0.3657 -0.4074  0.6006
 5252SOL    HW116440   4.529   0.402   0.184  0.0136 -0.2334  1.4313
 5252SOL    HW216441   4.384   0.379   0.220 -0.3657  0.1084  0.1855
 5253SOL     OW16442   4.074   4.598   2.326 -0.3877  0.3304 -0.2280
 5253SOL    HW116443   4.169   4.612   2.334 -0.4070  1.3234 -1.4245
 5253SOL    HW216444   4.045   4.667   2.268 -2.1689  1.1244  1.5241
 5254SOL     OW16445   2.625   4.139   5.317  0.1482 -0.0776  0.4118
 5254SOL    HW116446   2.545   4.170   5.275 -1.0558 -3.6016 -0.2990
 5254SOL    HW216447   2.608   4.147   5.411 -0.6194  0.1589  0.2556
 5255SOL     OW16448   2.081   5.044   3.193 -0.0019  0.0288  0.6221
 5255SOL    HW116449   2.005   5.032   3.251  0.4181 -1.3171  0.9105
 5255SOL    HW216450   2.152   5.068   3.252  0.1588 -0.2174  0.5258
 5256SOL     OW16451   6.007   6.578   4.051  0.1845  0.3536 -0.4846
 5256SOL    HW116452   5.918   6.588   4.017 -0.4889 -0.1976  1.0490
 5256SOL    HW216453   6.063   6.593   3.974 -1.2495 -0.5214 -1.7608
 5257SOL     OW16454   3.974   3.419   0.753  0.1034 -0.1850 -0.0331
 5257SOL    HW116455   3.965   3.400   0.846  2.1912 -0.1420  0.2231
 5257SOL    HW216456   3.965   3.334   0.710 -2.7696  0.0200 -0.0391
 5258SOL     OW16457   0.535   6.821   3.673  0.1085  0.2294 -0.3497
 5258SOL    HW116458   0.543   6.833   3.578 -1.1735  1.1753 -0.3588
 5258SOL    HW216459   0.475   6.890   3.701 -1.5686 -1.6106  0.7859
 5259SOL     OW16460   0.353   6.490   6.525  0.2373 -0.2653 -0.5700
 5259SOL    HW116461   0.269   6.519   6.491  0.6167 -1.2043 -2.4611
 5259SOL    HW216462   0.333   6.411   6.575 -0.0868 -0.0635 -0.3764
 5260SOL     OW16463   2.417   3.036   6.154 -0.3681 -0.1264 -0.2979
 5260SOL    HW116464   2.330   2.998   6.157 -1.0776  1.0945 -2.6692
 5260SOL    HW216465   2.407   3.115   6.101  1.7997  1.1872  1.0792
 5261SOL     OW16466   0.865   3.224   0.456  0.0632 -0.2328 -0.1952
 5261SOL    HW116467   0.883   3.209   0.549 -0.9972 -1.6377 -0.1799
 5261SOL    HW216468   0.815   3.305   0.454  0.5477  0.0843  0.4140
 5262SOL     OW16469   4.557   6.567   4.533 -0.1273 -0.5764  0.0862
 5262SOL    HW116470   4.595   6.622   4.602  1.4966 -2.0856  0.4686
 5262SOL    HW216471   4.467   6.552   4.562 -0.5864  1.7657  0.0065
 5263SOL     OW16472   2.325   0.394   3.517 -0.1019 -0.0461  0.5517
 5263SOL    HW116473   2.334   0.314   3.465 -0.2879 -1.0377  1.9916
 5263SOL    HW216474   2.261   0.447   3.470  0.2536 -0.6019 -0.5876
 5264SOL     OW16475   0.947   4.446   3.496  0.0826  0.1576 -0.0947
 5264SOL    HW116476   0.905   4.529   3.474 -0.3199  0.0053  0.0864
 5264SOL    HW216477   0.951   4.445   3.591  2.1076  0.9526 -0.1156
 5265SOL     OW16478   3.687   6.408   2.330 -0.8273  0.5204  0.0111
 5265SOL    HW116479   3.688   6.400   2.425 -1.0490  0.5964  0.0206
 5265SOL    HW216480   3.598   6.435   2.309 -1.3881 -1.4723 -0.3793
 5266SOL     OW16481   3.847   0.735   6.171  0.0585  0.0792  0.7240
 5266SOL    HW116482   3.917   0.779   6.123 -0.2352 -0.4533 -0.2269
 5266SOL    HW216483   3.793   0.806   6.205 -0.5548  0.4744 -1.0006
 5267SOL     OW16484   5.365   2.675   0.553 -0.0553  0.2047  0.2960
 5267SOL    HW116485   5.404   2.721   0.478 -0.1003 -0.0478  0.1169
 5267SOL    HW216486   5.427   2.606   0.574 -1.1658 -1.2730 -1.0533
 5268SOL     OW16487   2.164   4.127   4.597  0.5021 -0.2966  0.3873
 5268SOL    HW116488   2.139   4.061   4.662  0.3791 -0.8858 -0.2483
 5268SOL    HW216489   2.214   4.078   4.531 -0.0071  0.1489 -0.3444
 5269SOL     OW16490   4.063   0.928   5.432  0.1006 -0.0726 -0.3929
 5269SOL    HW116491   4.036   0.980   5.508 -1.0184 -1.2488  0.0570
 5269SOL    HW216492   4.026   0.974   5.357 -3.3087 -1.5581  0.1857
 5270SOL     OW16493   2.404   3.935   1.234 -0.5610  0.7122 -0.3519
 5270SOL    HW116494   2.339   3.893   1.177  0.0778  1.7348 -1.9134
 5270SOL    HW216495   2.468   3.972   1.173  1.0321  0.4683  1.1107
 5271SOL     OW16496   0.395   3.203   2.232  0.2844 -0.1385 -0.3148
 5271SOL    HW116497   0.376   3.125   2.284 -2.2042 -0.5575 -1.7252
 5271SOL    HW216498   0.472   3.179   2.181 -0.0193 -1.4176 -0.2043
 5272SOL     OW16499   2.974   1.221   3.694  0.6387 -0.0731 -0.5345
 5272SOL    HW116500   3.045   1.243   3.755  0.1728 -0.5431  0.1987
 5272SOL    HW216501   2.902   1.278   3.721  0.3174 -0.5370 -0.4131
 5273SOL     OW16502   2.908   1.018   4.289 -0.9004  0.6281 -0.3879
 5273SOL    HW116503   2.987   0.964   4.291  0.2840  2.3072  1.0933
 5273SOL    HW216504   2.853   0.981   4.359  0.9132  2.6211  2.2783
 5274SOL     OW16505   5.684   1.415   6.049 -0.6455  0.2418 -0.5092
 5274SOL    HW116506   5.709   1.508   6.051 -0.8201  0.3046 -1.0278
 5274SOL    HW216507   5.608   1.412   5.991  0.6692 -0.5121 -2.2984
 5275SOL     OW16508   3.142   6.765   2.515 -0.2528  0.1362 -0.2684
 5275SOL    HW116509   3.100   6.719   2.588  1.0551  0.0012  0.4303
 5275SOL    HW216510   3.092   6.846   2.505 -0.2500  0.3120  1.0144
 5276SOL     OW16511   6.826   1.186   2.021  0.1525  0.1452  0.4747
 5276SOL    HW116512   6.779   1.126   2.078  1.8657  0.3291  2.1957
 5276SOL    HW216513   6.802   1.159   1.932 -0.8143 -1.6540  1.2313
 5277SOL     OW16514   6.127   6.342   2.738  0.0459  0.0228 -0.4787
 5277SOL    HW116515   6.032   6.351   2.734  0.1109  0.3109 -1.7237
 5277SOL    HW216516   6.144   6.254   2.702  0.2351 -0.1033 -0.0818
 5278SOL     OW16517   2.443   1.500   3.871 -0.3623  0.5914 -0.4218
 5278SOL    HW116518   2.358   1.544   3.871 -0.4173  0.4851 -0.3947
 5278SOL    HW216519   2.494   1.546   3.939 -0.4614  0.5320 -0.3071
 5279SOL     OW16520   5.051   1.034   3.400 -0.3687 -0.3825 -0.0297
 5279SOL    HW116521   5.046   1.125   3.430 -0.5425 -1.0054  1.9486
 5279SOL    HW216522   4.971   1.021   3.349 -0.2020  0.6452 -0.5819
 5280SOL     OW16523   1.685   3.785   3.879  0.3852  0.2612  0.9741
 5280SOL    HW116524   1.673   3.711   3.820 -0.5320  1.3942 -0.3489
 5280SOL    HW216525   1.780   3.791   3.892  0.8617  1.1906 -2.1331
 5281SOL     OW16526   6.270   3.216   3.756  0.3209  0.1816  0.0821
 5281SOL    HW116527   6.365   3.228   3.743  0.3458  2.6075  1.7559
 5281SOL    HW216528   6.263   3.168   3.838  0.0720 -0.4764 -0.3161
 5282SOL     OW16529   3.257   2.493   0.788 -0.6204  0.4369  0.5272
 5282SOL    HW116530   3.165   2.501   0.763 -0.7614 -1.4175  0.3571
 5282SOL    HW216531   3.263   2.410   0.835  1.3507 -0.6725 -1.4811
 5283SOL     OW16532   2.734   3.642   5.269  0.0414  0.2593 -0.1099
 5283SOL    HW116533   2.713   3.597   5.350  1.0430  0.6072  0.3630
 5283SOL    HW216534   2.728   3.735   5.291  0.7634  0.3580 -0.2978
 5284SOL     OW16535   3.575   0.008   3.310 -0.2427 -0.0183  0.0164
 5284SOL    HW116536   3.670   0.002   3.319 -0.4139 -1.2488  1.5054
 5284SOL    HW216537   3.544   0.031   3.398 -1.4380 -1.9434  0.1552
 5285SOL     OW16538   0.406   0.145   1.545  0.1006 -0.2767 -0.3093
 5285SOL    HW116539   0.463   0.217   1.569  0.7953 -1.0682  0.4652
 5285SOL    HW216540   0.427   0.127   1.453  0.5820 -0.1054 -0.2332
 5286SOL     OW16541   2.728   4.012   3.715  0.2785  0.1507 -0.1103
 5286SOL    HW116542   2.703   4.057   3.634  0.4576  0.8339  0.2028
 5286SOL    HW216543   2.703   3.921   3.701 -0.3597  0.3996 -0.6533
 5287SOL     OW16544   3.410   0.635   0.970 -0.2872 -0.2611 -0.0412
 5287SOL    HW116545   3.475   0.603   0.907  2.0919  0.5725  1.8537
 5287SOL    HW216546   3.394   0.726   0.944  3.2570  1.2121  2.3126
 5288SOL     OW16547   0.702   3.030   0.186  0.1434  0.2921 -0.5225
 5288SOL    HW116548   0.653   2.959   0.227  0.0017 -0.3792 -1.8199
 5288SOL    HW216549   0.793   3.002   0.189  0.1485  0.3042 -0.5646
 5289SOL     OW16550   2.223   3.474   3.894  0.5189 -0.1982 -0.4391
 5289SOL    HW116551   2.260   3.526   3.966  2.5873 -0.7519 -1.0396
 5289SOL    HW216552   2.179   3.401   3.938 -0.5001  0.8372  0.3237
 5290SOL     OW16553   4.487   3.364   6.818 -0.4766 -0.0555 -0.2963
 5290SOL    HW116554   4.512   3.422   6.889 -1.1917  1.6773 -1.3819
 5290SOL    HW216555   4.465   3.423   6.745 -1.1216 -1.6941 -1.5080
 5291SOL     OW16556   3.706   4.254   0.337  0.3694 -0.6137  0.1279
 5291SOL    HW116557   3.643   4.264   0.409 -1.0094 -2.1818 -0.7966
 5291SOL    HW216558   3.660   4.286   0.260  1.7321  0.7713 -0.1620
 5292SOL     OW16559   4.512   1.235   0.585 -0.2815  0.6286  0.6662
 5292SOL    HW116560   4.486   1.324   0.560  0.2236  0.3408 -1.0143
 5292SOL    HW216561   4.524   1.190   0.502 -0.0162 -0.8776  1.4916
 5293SOL     OW16562   1.884   4.558   3.738 -0.2450  0.3296 -0.0991
 5293SOL    HW116563   1.936   4.527   3.663  1.1370  1.6345  0.2748
 5293SOL    HW216564   1.795   4.529   3.719  0.3290 -0.6247 -1.5318
 5294SOL     OW16565   1.539   5.117   0.299 -0.3482 -0.3726  0.4099
 5294SOL    HW116566   1.596   5.172   0.353 -1.0595  0.0932  0.6971
 5294SOL    HW216567   1.587   5.034   0.292 -0.8538 -0.9741  2.9811
 5295SOL     OW16568   4.815   3.292   0.908 -0.5037 -0.6849  0.0321
 5295SOL    HW116569   4.822   3.299   1.003 -0.5105 -5.1326  0.5721
 5295SOL    HW216570   4.903   3.267   0.879 -0.4995  0.6037 -1.2072
 5296SOL     OW16571   6.557   3.098   2.826  0.4205  0.0986  0.6566
 5296SOL    HW116572   6.566   3.017   2.877  1.6572 -0.6111 -0.6257
 5296SOL    HW216573   6.598   3.165   2.881 -1.1381  0.0206  1.9914
 5297SOL     OW16574   4.309   1.188   0.371  0.2051 -0.5815 -0.4670
 5297SOL    HW116575   4.261   1.178   0.453 -0.9406 -0.2472 -1.0728
 5297SOL    HW216576   4.355   1.104   0.359 -0.8831 -1.2223 -0.2644
 5298SOL     OW16577   5.353   1.327   2.926 -0.4777  0.0792 -0.1237
 5298SOL    HW116578   5.333   1.241   2.890  2.1330 -1.4923  1.7603
 5298SOL    HW216579   5.286   1.342   2.993 -1.5529  0.0391 -1.1632
 5299SOL     OW16580   1.354   2.720   0.669  0.1623 -0.0663 -0.2083
 5299SOL    HW116581   1.272   2.702   0.623  0.5243  0.2585 -1.0042
 5299SOL    HW216582   1.403   2.776   0.609  1.2884 -0.8955 -0.0864
 5300SOL     OW16583   1.688   1.085   6.294 -0.0487 -0.3481  0.1628
 5300SOL    HW116584   1.627   1.156   6.272  0.2396  0.2540  1.2305
 5300SOL    HW216585   1.637   1.026   6.349  0.5418  0.6590  1.8888
 5301SOL     OW16586   6.588   1.824   6.646  0.1731 -0.5613 -0.0071
 5301SOL    HW116587   6.606   1.787   6.733  0.2400  0.1011  0.2666
 5301SOL    HW216588   6.510   1.778   6.616  0.2532 -0.9224  0.3265
 5302SOL     OW16589   4.786   1.061   1.129 -0.0587 -0.6996  0.0830
 5302SOL    HW116590   4.877   1.041   1.107  0.5727  1.6150  0.3647
 5302SOL    HW216591   4.737   1.038   1.050  0.7473 -1.8466 -0.1185
 5303SOL     OW16592   3.333   0.807   6.012 -0.7160 -0.4034 -0.2593
 5303SOL    HW116593   3.378   0.729   6.046  0.4392  0.8621  1.2501
 5303SOL    HW216594   3.282   0.840   6.087  0.4037  1.3927 -0.2317
 5304SOL     OW16595   4.866   5.085   3.923  0.4402  0.2066 -0.0105
 5304SOL    HW116596   4.948   5.110   3.966  0.2385 -0.0003  0.5136
 5304SOL    HW216597   4.811   5.162   3.929  0.1953 -0.0085  0.6623
 5305SOL     OW16598   1.247   1.839   4.334 -0.1713 -0.0887  0.2594
 5305SOL    HW116599   1.185   1.862   4.265 -0.5655 -1.3652  0.1653
 5305SOL    HW216600   1.228   1.748   4.355  0.0985  0.1999  1.9157
 5306SOL     OW16601   3.703   0.504   2.982  0.0851 -0.0397 -0.5867
 5306SOL    HW116602   3.778   0.564   2.980 -0.2256  0.4794  1.3605
 5306SOL    HW216603   3.628   0.559   2.959 -0.5396  1.0192  3.2768
 5307SOL     OW16604   6.704   4.972   2.580 -0.2695  0.0243  0.5716
 5307SOL    HW116605   6.728   4.899   2.523  1.0889  0.5892  0.3815
 5307SOL    HW216606   6.779   5.031   2.577 -0.4556  0.4158  2.3950
 5308SOL     OW16607   5.119   0.553   6.261 -0.4700 -0.5837 -0.7015
 5308SOL    HW116608   5.212   0.563   6.278 -0.7022 -0.2270  0.4322
 5308SOL    HW216609   5.084   0.642   6.264 -0.6680 -0.5548 -2.4170
 5309SOL     OW16610   6.582   3.009   2.564 -0.2662  0.1119  0.1319
 5309SOL    HW116611   6.589   3.053   2.649 -2.1398 -2.7164  1.9387
 5309SOL    HW216612   6.612   2.920   2.582  1.0567 -0.1219 -2.7333
 5310SOL     OW16613   0.608   2.687   3.809 -0.3195  0.5458 -0.0226
 5310SOL    HW116614   0.670   2.615   3.796  1.0682  1.6681  0.0974
 5310SOL    HW216615   0.636   2.729   3.891 -1.7401  0.6148  0.4621
 5311SOL     OW16616   6.856   4.922   2.163  0.3003  0.1542  0.5560
 5311SOL    HW116617   6.945   4.891   2.144  0.4152  0.5967  0.3608
 5311SOL    HW216618   6.809   4.910   2.081  0.4598  0.8908  0.3526
 5312SOL     OW16619   0.471   1.935   0.016  0.1470  0.3137  0.4530
 5312SOL    HW116620   0.494   2.027   0.003  1.0869  0.0737  0.3187
 5312SOL    HW216621   0.446   1.904  -0.072  1.4706  0.0228  0.1551
 5313SOL     OW16622   3.610   3.367   3.660 -0.2291  0.0823 -0.1424
 5313SOL    HW116623   3.660   3.300   3.613 -0.3102  0.1142 -0.2758
 5313SOL    HW216624   3.519   3.346   3.641 -0.2247  1.3065 -1.7245
 5314SOL     OW16625   0.529   2.318   3.548 -0.1665 -0.4574 -0.2578
 5314SOL    HW116626   0.467   2.336   3.477 -0.8874 -0.7661  0.2815
 5314SOL    HW216627   0.492   2.242   3.593 -1.0228  1.1178  1.8921
 5315SOL     OW16628   1.956   2.669   3.354  0.1624  0.0038  0.2388
 5315SOL    HW116629   1.878   2.670   3.298 -0.4147  0.0193  1.0196
 5315SOL    HW216630   1.935   2.731   3.425  2.2611  2.7683 -1.3311
 5316SOL     OW16631   2.298   5.175   0.170 -0.3774 -0.3346 -0.6955
 5316SOL    HW116632   2.203   5.160   0.177 -0.3391 -0.9799 -1.3985
 5316SOL    HW216633   2.334   5.088   0.151  0.7459 -0.7415  2.7047
 5317SOL     OW16634   5.039   6.103   2.204  0.0554 -0.4140  0.3825
 5317SOL    HW116635   4.977   6.165   2.166  1.1461 -0.4056 -1.4869
 5317SOL    HW216636   5.120   6.152   2.213  0.2690 -0.9013  1.1968
 5318SOL     OW16637   2.039   6.577   6.793 -0.0793 -0.4322  0.1621
 5318SOL    HW116638   2.109   6.618   6.741 -0.8913  1.5623  0.5574
 5318SOL    HW216639   2.073   6.577   6.882  0.1900 -1.2915  0.0675
 5319SOL     OW16640   6.621   0.046   0.866  0.1201  0.1255 -0.1523
 5319SOL    HW116641   6.641   0.035   0.959  0.5289 -0.5890 -0.3134
 5319SOL    HW216642   6.574   0.129   0.861  0.7239  0.5272  0.6000
 5320SOL     OW16643   3.291   6.396   6.112 -0.0430 -0.1961 -0.5324
 5320SOL    HW116644   3.280   6.402   6.207 -0.9112 -2.9667 -0.3630
 5320SOL    HW216645   3.383   6.418   6.097  0.8335 -2.1625  1.3222
 5321SOL     OW16646   0.234   0.836   0.511 -0.0206  0.4685  0.3876
 5321SOL    HW116647   0.214   0.742   0.511 -1.2799  0.7236  0.2542
 5321SOL    HW216648   0.177   0.873   0.578  0.3562  1.1622  0.3340
 5322SOL     OW16649   5.107   3.283   2.142  0.3601  0.6368 -0.1582
 5322SOL    HW116650   5.179   3.221   2.145  0.1833  0.3907 -0.7729
 5322SOL    HW216651   5.062   3.273   2.226  0.8279  0.5395  0.0814
 5323SOL     OW16652   2.509   4.720   3.224  0.0961 -0.3283 -0.2454
 5323SOL    HW116653   2.447   4.651   3.248  1.4416 -0.6781  2.6086
 5323SOL    HW216654   2.592   4.674   3.211  0.6134  0.5641 -0.1522
 5324SOL     OW16655   6.459   3.865   2.604 -0.4279 -0.5861  0.3348
 5324SOL    HW116656   6.520   3.796   2.576  0.0397  0.2368 -0.7521
 5324SOL    HW216657   6.494   3.893   2.689  0.5265 -0.3718 -0.1067
 5325SOL     OW16658   2.615   1.682   1.866  0.2505  0.2635 -0.4343
 5325SOL    HW116659   2.600   1.618   1.935  1.0372  0.5718  0.0377
 5325SOL    HW216660   2.687   1.736   1.898 -0.4339  1.4294 -0.8056
 5326SOL     OW16661   1.399   3.527   2.091 -0.1238  0.0676 -1.0612
 5326SOL    HW116662   1.425   3.605   2.140  0.3654 -0.2752 -0.7608
 5326SOL    HW216663   1.475   3.468   2.097 -2.0267 -2.4442  2.8270
 5327SOL     OW16664   6.138   4.082   1.786 -0.3196  0.2519  0.5026
 5327SOL    HW116665   6.190   4.020   1.736 -2.8950 -1.9606  0.2864
 5327SOL    HW216666   6.193   4.107   1.860  1.8729  0.0223 -0.9817
 5328SOL     OW16667   0.258   3.436   2.142 -0.0305 -0.2118  0.1778
 5328SOL    HW116668   0.166   3.416   2.159 -0.0098  1.2093  2.3592
 5328SOL    HW216669   0.304   3.354   2.157 -0.7040 -0.3668  1.5769
 5329SOL     OW16670   3.649   1.119   6.607  0.2329  0.1435 -1.0112
 5329SOL    HW116671   3.622   1.173   6.533 -2.5152 -0.6466 -0.6736
 5329SOL    HW216672   3.663   1.032   6.570  0.4857  0.1238 -0.8695
 5330SOL     OW16673   3.857   1.203   2.851  0.3667 -0.4760 -0.6752
 5330SOL    HW116674   3.834   1.288   2.890  0.5812 -0.0534 -1.4430
 5330SOL    HW216675   3.881   1.148   2.926  1.3426  0.4977 -0.2387
 5331SOL     OW16676   0.997   0.484   3.558 -0.0152 -0.4009  0.2618
 5331SOL    HW116677   1.010   0.389   3.562 -1.4763 -0.7737 -2.0941
 5331SOL    HW216678   1.074   0.517   3.512 -0.8248 -0.8746 -1.5216
 5332SOL     OW16679   3.398   2.558   3.130  0.0978 -0.0959 -0.2295
 5332SOL    HW116680   3.347   2.596   3.201 -0.2936 -0.1692 -0.4662
 5332SOL    HW216681   3.486   2.547   3.166  0.3759  1.5625 -0.3317
 5333SOL     OW16682   3.530   6.596   6.100  0.0521  0.0479  0.3076
 5333SOL    HW116683   3.614   6.602   6.146 -0.1022  1.0304  0.4945
 5333SOL    HW216684   3.475   6.663   6.141 -0.6251 -0.1638 -0.2252
 5334SOL     OW16685   4.187   5.502   0.947  0.1490 -0.4601  0.0909
 5334SOL    HW116686   4.117   5.560   0.977  0.6147  0.8566 -1.2611
 5334SOL    HW216687   4.256   5.512   1.013 -0.5061 -0.9443  0.8635
 5335SOL     OW16688   3.354   1.001   4.675  0.1790  0.5276 -0.2436
 5335SOL    HW116689   3.265   0.985   4.641 -0.2078  0.2187  0.8553
 5335SOL    HW216690   3.376   1.089   4.645 -0.6929  0.7878 -0.1480
 5336SOL     OW16691   6.540   1.335   1.126  0.1403 -0.4664  0.5360
 5336SOL    HW116692   6.562   1.379   1.044 -1.0103 -1.6303 -0.4402
 5336SOL    HW216693   6.451   1.363   1.146  0.9258  0.9802  2.2279
 5337SOL     OW16694   3.710   2.167   6.696 -0.3497  0.0660 -0.4118
 5337SOL    HW116695   3.770   2.093   6.693  0.0236  0.4025 -2.3376
 5337SOL    HW216696   3.632   2.132   6.739  0.5120 -0.8987  0.4168
 5338SOL     OW16697   3.955   5.464   1.275  0.6081  0.3882 -0.2048
 5338SOL    HW116698   3.993   5.384   1.238  1.5200  0.2172  1.0377
 5338SOL    HW216699   3.862   5.444   1.284  0.8327 -0.5731  0.1423
 5339SOL     OW16700   2.374   2.091   4.716 -0.0839  0.3670 -0.2227
 5339SOL    HW116701   2.375   1.997   4.737  0.5255  0.3561 -0.2668
 5339SOL    HW216702   2.317   2.097   4.639 -1.8411  0.3323  1.0200
 5340SOL     OW16703   2.772   3.209   6.271  0.0458 -0.2113 -0.5546
 5340SOL    HW116704   2.813   3.216   6.185  0.1455 -1.8980 -0.6763
 5340SOL    HW216705   2.843   3.227   6.333  0.2539 -0.1402 -0.8131
 5341SOL     OW16706   3.854   5.066   2.433 -0.0771 -0.0127  0.1485
 5341SOL    HW116707   3.759   5.074   2.433 -0.3751 -2.5233  1.8253
 5341SOL    HW216708   3.885   5.147   2.473 -1.3262  1.6391 -2.0396
 5342SOL     OW16709   0.798   6.392   5.062 -0.3692 -0.9069  0.5316
 5342SOL    HW116710   0.831   6.481   5.075 -1.2794 -0.7418  1.9320
 5342SOL    HW216711   0.734   6.400   4.992  0.2863 -0.6530 -0.0454
 5343SOL     OW16712   5.110   3.358   4.011  0.2791  0.0364  0.5449
 5343SOL    HW116713   5.177   3.385   3.948  0.2471 -2.2429 -0.5579
 5343SOL    HW216714   5.028   3.360   3.962 -0.0214 -0.0189  1.0399
 5344SOL     OW16715   4.010   0.112   2.141 -0.4211  0.3242 -0.2548
 5344SOL    HW116716   4.067   0.163   2.199 -1.1635 -0.8999  1.6822
 5344SOL    HW216717   4.043   0.023   2.148 -1.3236 -0.0558 -0.7358
 5345SOL     OW16718   2.038   4.423   2.380  0.0592 -0.3447  0.2565
 5345SOL    HW116719   2.099   4.408   2.308  0.1021 -0.6417  0.3534
 5345SOL    HW216720   1.951   4.407   2.342  0.1087 -0.9347  0.3784
 5346SOL     OW16721   1.014   1.004   6.323  0.0738 -0.6480 -0.8131
 5346SOL    HW116722   0.935   0.979   6.371 -0.4307 -0.3870 -1.4824
 5346SOL    HW216723   1.034   1.092   6.354 -0.4348 -0.3544 -1.2910
 5347SOL     OW16724   5.696   4.848   4.565  0.0483 -0.1869  0.0491
 5347SOL    HW116725   5.659   4.790   4.497 -0.9590  0.3773  0.0873
 5347SOL    HW216726   5.670   4.936   4.537 -0.6823  0.0302  1.3259
 5348SOL     OW16727   1.136   4.611   5.977 -0.7772  0.0976 -0.0836
 5348SOL    HW116728   1.114   4.666   6.052 -0.6019 -2.0629  1.6582
 5348SOL    HW216729   1.052   4.575   5.948 -0.8257  0.8053 -0.8654
 5349SOL     OW16730   0.326   4.041   4.739  0.5518 -0.2312  0.3350
 5349SOL    HW116731   0.270   4.098   4.792  0.7665 -0.4277  0.7721
 5349SOL    HW216732   0.387   4.001   4.801  0.4320 -0.9113  0.0300
 5350SOL     OW16733   5.979   5.126   6.870  0.1427 -0.0487 -0.0701
 5350SOL    HW116734   5.887   5.148   6.881  0.6326  2.3329 -0.1675
 5350SOL    HW216735   5.991   5.045   6.919 -1.8488 -0.0626  0.4601
 5351SOL     OW16736   0.051   6.588   5.155  0.0641  0.4806 -0.4134
 5351SOL    HW116737   0.063   6.573   5.249  0.0279 -1.4202 -0.6850
 5351SOL    HW216738   0.075   6.505   5.114  1.7491  1.7726 -2.2436
 5352SOL     OW16739   1.851   4.095   5.081 -0.2435 -0.0308 -0.0212
 5352SOL    HW116740   1.827   4.157   5.012  2.5595 -1.0811 -2.1457
 5352SOL    HW216741   1.779   4.099   5.143 -1.4690  3.2882 -1.4179
 5353SOL     OW16742   3.271   4.047   5.549  0.1920  0.1483  0.0201
 5353SOL    HW116743   3.217   4.066   5.626 -0.2090  0.8789 -0.4419
 5353SOL    HW216744   3.286   3.952   5.554 -0.1597  0.1243  0.7781
 5354SOL     OW16745   2.814   4.642   5.235 -0.3769 -0.0457  0.1783
 5354SOL    HW116746   2.817   4.716   5.173 -1.0972 -1.3803 -1.5461
 5354SOL    HW216747   2.794   4.682   5.319 -3.9494  1.5204 -1.1967
 5355SOL     OW16748   4.071   6.638   5.355  0.0358  0.1190 -0.1897
 5355SOL    HW116749   3.996   6.594   5.316  0.0308  0.3930 -0.4937
 5355SOL    HW216750   4.143   6.621   5.293  1.1626 -3.1374  1.7362
 5356SOL     OW16751   2.555   0.918   5.088 -0.3309 -0.5483  0.0023
 5356SOL    HW116752   2.477   0.973   5.081  0.2782  0.3739  0.2715
 5356SOL    HW216753   2.623   0.968   5.043  0.4470 -0.6622  1.0124
 5357SOL     OW16754   1.565   5.557   4.294  0.1653  0.4038  0.2278
 5357SOL    HW116755   1.660   5.559   4.283  0.1985 -0.3896  0.3206
 5357SOL    HW216756   1.530   5.560   4.205  0.2370  1.6863  0.2159
 5358SOL     OW16757   4.229   6.471   2.314  0.0019 -0.3954 -0.1385
 5358SOL    HW116758   4.312   6.449   2.273  1.7111  2.3041  1.6169
 5358SOL    HW216759   4.168   6.483   2.241  1.5276 -0.9013 -1.5444
 5359SOL     OW16760   1.223   6.156   4.869  0.3775  0.5352 -0.5985
 5359SOL    HW116761   1.295   6.164   4.932  0.5259 -0.3319 -0.6407
 5359SOL    HW216762   1.144   6.170   4.921  0.4933 -0.2598 -0.1861
 5360SOL     OW16763   2.372   4.937   6.536  0.6873 -0.4108 -0.3000
 5360SOL    HW116764   2.417   5.008   6.583 -0.4698  0.6340 -0.7193
 5360SOL    HW216765   2.350   4.975   6.451 -3.4011  0.1739  0.7966
 5361SOL     OW16766   5.432   1.916   1.100  0.4495 -0.5468  0.3152
 5361SOL    HW116767   5.491   1.850   1.136 -0.0752 -1.6449 -0.7609
 5361SOL    HW216768   5.471   1.939   1.016  1.3887  1.6050  1.2650
 5362SOL     OW16769   1.657   2.814   1.237 -0.2152  0.1032  0.1858
 5362SOL    HW116770   1.645   2.721   1.255  1.0977 -0.2504 -0.5968
 5362SOL    HW216771   1.714   2.845   1.307 -0.2423  0.1972  0.1672
 5363SOL     OW16772   6.610   2.548   0.973 -0.4683 -0.1271  0.4276
 5363SOL    HW116773   6.663   2.569   1.049 -1.9498 -0.4364  1.5866
 5363SOL    HW216774   6.601   2.453   0.976  1.2419 -0.4078 -1.3941
 5364SOL     OW16775   2.852   2.951   2.699  0.5588 -0.0985  0.2156
 5364SOL    HW116776   2.827   3.028   2.648 -0.4171  0.2208  1.1325
 5364SOL    HW216777   2.917   2.984   2.761  0.2371 -0.0325  0.5213
 5365SOL     OW16778   6.722   2.227   1.239 -0.1135  0.5224  0.2547
 5365SOL    HW116779   6.708   2.139   1.275 -0.6087 -0.9384 -3.1472
 5365SOL    HW216780   6.792   2.264   1.293 -0.5569 -1.5492  2.3972
 5366SOL     OW16781   2.161   0.893   4.857  0.1851 -0.0231  0.4655
 5366SOL    HW116782   2.090   0.874   4.796 -0.2623 -0.8078  1.2044
 5366SOL    HW216783   2.124   0.957   4.919 -0.1439 -0.9955  1.2983
 5367SOL     OW16784   6.127   1.406   0.239  0.1150 -0.5571  0.2117
 5367SOL    HW116785   6.144   1.500   0.238 -0.0209 -0.5247  0.6599
 5367SOL    HW216786   6.189   1.369   0.176  0.9239 -0.2921  0.8301
 5368SOL     OW16787   3.724   0.136   6.827  0.4565  0.2705 -0.0282
 5368SOL    HW116788   3.662   0.146   6.756 -2.2402  2.1683  2.3638
 5368SOL    HW216789   3.781   0.213   6.821  1.4317 -0.4894 -1.0808
 5369SOL     OW16790   4.985   2.831   2.441  0.0801  0.1276 -0.1840
 5369SOL    HW116791   4.918   2.893   2.469  0.2942  0.1718  0.2364
 5369SOL    HW216792   4.953   2.746   2.472  0.0388  0.0950 -0.3114
 5370SOL     OW16793   3.820   2.644   2.304  0.0176  0.0012  0.2756
 5370SOL    HW116794   3.732   2.671   2.330 -0.9807 -3.0574  0.3803
 5370SOL    HW216795   3.818   2.644   2.208 -0.1401 -0.2006  0.2794
 5371SOL     OW16796   0.748   2.045   2.361 -0.0672 -0.5153  0.2739
 5371SOL    HW116797   0.790   1.975   2.312 -0.8402 -0.2191 -0.8608
 5371SOL    HW216798   0.814   2.113   2.368  0.4928 -1.1165  0.8518
 5372SOL     OW16799   6.199   1.763   0.557 -0.3707 -0.0072 -0.2658
 5372SOL    HW116800   6.244   1.680   0.574 -0.3533  0.2183  0.8192
 5372SOL    HW216801   6.209   1.776   0.462 -0.9282 -1.5738 -0.5839
 5373SOL     OW16802   4.684   3.647   1.879 -0.3942  0.6355 -0.1290
 5373SOL    HW116803   4.764   3.696   1.899 -0.9985  1.0338  1.4015
 5373SOL    HW216804   4.675   3.585   1.951 -0.7497 -0.3655 -0.9982
 5374SOL     OW16805   1.851   6.716   0.794 -0.1807  0.0200  0.0696
 5374SOL    HW116806   1.943   6.743   0.784 -1.0124  2.2766 -3.2654
 5374SOL    HW216807   1.804   6.797   0.812 -1.6358 -1.0146  1.1499
 5375SOL     OW16808   1.501   1.777   3.327  0.4949  0.0486  0.6730
 5375SOL    HW116809   1.444   1.828   3.385 -2.2174 -2.4475  0.4517
 5375SOL    HW216810   1.557   1.727   3.387 -0.0334 -0.1070  1.0489
 5376SOL     OW16811   2.115   6.585   2.997  0.0885  0.1417 -0.0655
 5376SOL    HW116812   2.038   6.571   2.942  0.2336 -0.8920 -0.0225
 5376SOL    HW216813   2.087   6.558   3.085  0.8855 -1.5616 -0.3026
 5377SOL     OW16814   2.236   5.278   4.600  0.5756  0.5730 -0.2535
 5377SOL    HW116815   2.264   5.357   4.554  0.3521  1.1571  0.5882
 5377SOL    HW216816   2.234   5.210   4.533 -0.4475  1.5649 -1.2707
 5378SOL     OW16817   1.614   0.266   1.471 -0.4319 -0.0045 -0.0065
 5378SOL    HW116818   1.703   0.295   1.490  0.0917 -0.0272 -2.2042
 5378SOL    HW216819   1.562   0.347   1.470 -0.1173  0.1976 -0.2868
 5379SOL     OW16820   4.812   1.943   6.632 -0.0032 -0.7239 -0.7495
 5379SOL    HW116821   4.887   1.913   6.580 -0.5010 -4.4244  0.4333
 5379SOL    HW216822   4.851   1.993   6.703  1.2810 -1.6601 -0.7537
 5380SOL     OW16823   5.285   6.510   0.958  0.0162  0.1470 -0.3770
 5380SOL    HW116824   5.192   6.519   0.941 -0.2374 -0.1992  0.7760
 5380SOL    HW216825   5.321   6.477   0.875 -1.2460 -1.9352 -0.1570
 5381SOL     OW16826   5.865   5.188   3.885 -0.1317  0.0650 -0.1282
 5381SOL    HW116827   5.864   5.107   3.834 -2.1198  0.0796 -0.1969
 5381SOL    HW216828   5.912   5.251   3.830  0.9166 -0.8584 -0.3292
 5382SOL     OW16829   2.747   5.299   1.250 -0.0415  0.0901  0.1429
 5382SOL    HW116830   2.797   5.302   1.331  1.5164 -2.3914 -0.6249
 5382SOL    HW216831   2.666   5.252   1.273  1.4647 -2.8638 -0.1152
 5383SOL     OW16832   3.518   3.165   4.680  0.2684  0.4630 -0.6545
 5383SOL    HW116833   3.473   3.088   4.715  0.3606  1.2964  1.4443
 5383SOL    HW216834   3.479   3.178   4.593 -1.1684 -0.7636 -0.2403
 5384SOL     OW16835   6.620   1.090   6.217  0.9998 -0.4769 -0.3515
 5384SOL    HW116836   6.700   1.142   6.221  2.1260 -1.9826 -1.9388
 5384SOL    HW216837   6.559   1.143   6.166  1.8147 -0.3305 -1.1877
 5385SOL     OW16838   6.560   4.967   4.597  0.2699  0.4312 -0.2096
 5385SOL    HW116839   6.635   4.954   4.540  0.3527  0.1217 -0.0289
 5385SOL    HW216840   6.513   4.884   4.595 -0.1973  0.6924 -0.5042
 5386SOL     OW16841   5.157   1.253   0.388 -0.3452  0.3158 -0.2901
 5386SOL    HW116842   5.160   1.346   0.411 -0.3526  0.7329 -1.8318
 5386SOL    HW216843   5.065   1.228   0.400 -0.8912  1.1921 -2.1668
 5387SOL     OW16844   3.005   3.508   3.856 -0.1232  0.4114 -0.1541
 5387SOL    HW116845   2.982   3.416   3.842 -0.2336  0.2544  1.0043
 5387SOL    HW216846   3.052   3.533   3.776  1.4927 -1.1698  0.2577
 5388SOL     OW16847   3.557   3.927   6.723 -0.3885 -0.0513 -0.0469
 5388SOL    HW116848   3.483   3.933   6.784 -0.3222  3.3531 -0.1281
 5388SOL    HW216849   3.582   4.018   6.707  2.3584 -1.0139 -1.8502
 5389SOL     OW16850   6.185   4.235   6.407  0.7462  0.5948 -0.0940
 5389SOL    HW116851   6.216   4.153   6.446 -1.6656  0.5455  2.0175
 5389SOL    HW216852   6.252   4.299   6.431 -0.0524  0.3294  3.4107
 5390SOL     OW16853   3.887   3.757   0.845  0.6393  0.7022 -0.1401
 5390SOL    HW116854   3.811   3.729   0.793  1.0533  0.9213 -0.8795
 5390SOL    HW216855   3.889   3.852   0.835  0.9545  0.7046 -0.0418
 5391SOL     OW16856   4.064   4.509   1.185  0.3185 -0.3680 -0.2332
 5391SOL    HW116857   4.119   4.450   1.133  1.7888  1.4081 -0.7875
 5391SOL    HW216858   4.092   4.597   1.159 -1.7210  0.5993  0.6505
 5392SOL     OW16859   6.857   4.557   3.824  0.3426  0.5428  0.1121
 5392SOL    HW116860   6.794   4.598   3.882 -0.0655  0.6916 -0.4328
 5392SOL    HW216861   6.941   4.594   3.850  0.2898 -0.0338  1.1816
 5393SOL     OW16862   6.645   0.634   4.898  0.0757 -0.1207 -0.5322
 5393SOL    HW116863   6.591   0.707   4.929 -0.0807 -0.9370  1.2322
 5393SOL    HW216864   6.700   0.673   4.829 -0.0707  1.6471  0.2796
 5394SOL     OW16865   4.320   6.891   5.317  0.2764  0.4410 -0.7952
 5394SOL    HW116866   4.230   6.919   5.336 -0.0570  0.4335 -2.2393
 5394SOL    HW216867   4.368   6.909   5.397 -1.1798 -0.2744  0.2871
 5395SOL     OW16868   3.189   6.818   5.852  0.7672  0.4264 -0.4975
 5395SOL    HW116869   3.235   6.735   5.847 -1.7305 -1.1192  0.1514
 5395SOL    HW216870   3.135   6.820   5.772  0.7176  1.3662 -0.4489
 5396SOL     OW16871   5.830   1.206   6.603 -0.3226  0.2164 -0.0840
 5396SOL    HW116872   5.893   1.224   6.534  0.2135  1.5461  0.7055
 5396SOL    HW216873   5.745   1.223   6.563 -0.0555  0.4607 -0.5579
 5397SOL     OW16874   0.840   2.022   4.512 -0.3603  0.4478  0.4775
 5397SOL    HW116875   0.873   2.028   4.423 -1.2881 -0.1379  0.0837
 5397SOL    HW216876   0.776   2.093   4.519  0.1831  0.9128  0.9025
 5398SOL     OW16877   1.726   4.466   3.337 -0.2606 -0.1630  0.3579
 5398SOL    HW116878   1.663   4.529   3.371  1.2013  1.1608  0.7292
 5398SOL    HW216879   1.693   4.444   3.250 -0.8065  1.1203  0.2231
 5399SOL     OW16880   4.310   4.186   2.239 -0.2570  0.3363 -0.1927
 5399SOL    HW116881   4.340   4.097   2.220  0.5138  0.0336  2.1939
 5399SOL    HW216882   4.215   4.182   2.226  0.0976  0.3665 -4.2660
 5400SOL     OW16883   5.943   6.478   2.009 -0.1731 -0.1952  0.6566
 5400SOL    HW116884   5.940   6.445   1.919  0.0472  0.1902  0.5072
 5400SOL    HW216885   6.028   6.521   2.016 -0.5015  0.4519  0.8088
 5401SOL     OW16886   5.097   2.535   5.587 -0.6636  0.1905  0.7786
 5401SOL    HW116887   5.165   2.558   5.650  0.3139 -0.1379 -0.1294
 5401SOL    HW216888   5.134   2.462   5.537 -1.6663  0.0351  0.2334
 5402SOL     OW16889   4.409   5.251   0.072 -0.1595  0.4053 -0.0395
 5402SOL    HW116890   4.365   5.324   0.114 -1.2886  0.7191 -1.6509
 5402SOL    HW216891   4.496   5.284   0.051 -0.0197  0.6484  0.8841
 5403SOL     OW16892   4.125   0.254   2.358  0.6517 -0.1942  0.3311
 5403SOL    HW116893   4.182   0.182   2.385 -1.5867 -2.4233 -0.5362
 5403SOL    HW216894   4.059   0.260   2.427  0.3266  0.4664 -0.0284
 5404SOL     OW16895   4.262   0.598   3.323 -0.0253 -0.3914 -0.1658
 5404SOL    HW116896   4.296   0.597   3.412 -0.3906 -1.3661 -0.0269
 5404SOL    HW216897   4.230   0.687   3.310 -0.1482 -0.2967  0.7499
 5405SOL     OW16898   2.833   2.621   6.737  0.5530 -0.1920  0.2587
 5405SOL    HW116899   2.738   2.626   6.750  0.7394  1.0700  1.3775
 5405SOL    HW216900   2.856   2.533   6.767 -0.3365 -0.7906 -0.7150
 5406SOL     OW16901   0.666   6.111   3.685  0.2162 -0.0257 -0.1164
 5406SOL    HW116902   0.576   6.140   3.667 -0.2925 -0.8178  1.0145
 5406SOL    HW216903   0.713   6.192   3.706 -0.9552  0.1729  2.0975
 5407SOL     OW16904   1.977   4.414   6.136 -0.1526  0.5962  0.1464
 5407SOL    HW116905   2.032   4.338   6.118  2.2736  1.7621  1.9719
 5407SOL    HW216906   2.005   4.479   6.071  0.2679  1.0165  0.7385
 5408SOL     OW16907   0.575   4.245   6.816 -0.0496  0.1447  0.2159
 5408SOL    HW116908   0.518   4.169   6.806  0.9609 -0.5521 -0.4656
 5408SOL    HW216909   0.532   4.299   6.882 -0.7621 -1.0441  0.7569
 5409SOL     OW16910   3.597   1.229   1.436  0.1647 -0.2610 -0.0999
 5409SOL    HW116911   3.564   1.156   1.489 -0.6203  1.0756  1.3616
 5409SOL    HW216912   3.686   1.243   1.468 -0.3158  0.5591  0.9442
 5410SOL     OW16913   4.851   3.063   1.119  0.1252 -0.1789 -0.1945
 5410SOL    HW116914   4.863   2.989   1.178  1.0786 -0.5452 -0.8386
 5410SOL    HW216915   4.850   3.025   1.032  2.9370  0.7396 -0.7267
 5411SOL     OW16916   1.288   2.095   0.601  0.1890 -0.2115 -0.7194
 5411SOL    HW116917   1.365   2.081   0.657  0.1869 -0.5593 -0.8021
 5411SOL    HW216918   1.270   2.009   0.563 -1.5047 -0.6488  0.9144
 5412SOL     OW16919   0.621   5.635   6.405  0.2191  0.3219  0.1479
 5412SOL    HW116920   0.614   5.539   6.412 -0.4383  0.3799  0.2835
 5412SOL    HW216921   0.715   5.652   6.419  0.3701 -0.3137 -0.0322
 5413SOL     OW16922   2.268   2.843   0.148  0.3140 -0.2999  0.1117
 5413SOL    HW116923   2.263   2.783   0.222  0.7220 -0.7461 -0.2201
 5413SOL    HW216924   2.348   2.818   0.101  0.9953  1.0652  0.4667
 5414SOL     OW16925   0.134   3.591   3.582  0.1386  0.1710  0.2951
 5414SOL    HW116926   0.155   3.661   3.520 -1.3359  0.5691  0.1993
 5414SOL    HW216927   0.042   3.570   3.564 -0.0896 -0.2653  1.7988
 5415SOL     OW16928   5.171   0.153   4.420  0.4938 -0.3392  0.5638
 5415SOL    HW116929   5.087   0.122   4.455  0.3083 -0.4468  0.0449
 5415SOL    HW216930   5.221   0.180   4.496  0.9667 -2.6250  1.1585
 5416SOL     OW16931   2.138   5.612   4.089  0.6772  0.1579  0.2084
 5416SOL    HW116932   2.233   5.601   4.086  0.3929 -4.3824  0.7167
 5416SOL    HW216933   2.103   5.535   4.045 -2.8368  1.1055  0.9734
 5417SOL     OW16934   5.534   1.870   4.187 -0.2839  0.0082  0.0071
 5417SOL    HW116935   5.553   1.927   4.262 -0.2419 -0.8766  0.6836
 5417SOL    HW216936   5.461   1.816   4.217 -0.5859 -0.0254 -0.7768
 5418SOL     OW16937   3.569   4.710   5.053  0.0074  0.4796  0.2859
 5418SOL    HW116938   3.522   4.627   5.049 -3.8375  2.2737  2.6010
 5418SOL    HW216939   3.638   4.696   5.118 -1.1130 -0.7308  1.2562
 5419SOL     OW16940   1.470   0.624   4.282  0.4245  0.0226  0.1219
 5419SOL    HW116941   1.427   0.591   4.203  1.4641  0.4311 -0.6347
 5419SOL    HW216942   1.417   0.699   4.309  0.7244  0.5915 -0.8637
 5420SOL     OW16943   0.140   2.826   2.437 -0.1505  0.6718  0.2531
 5420SOL    HW116944   0.076   2.798   2.502 -1.0308  1.8800 -0.0867
 5420SOL    HW216945   0.132   2.762   2.366  1.5283 -1.2815  1.6794
 5421SOL     OW16946   4.345   4.360   3.468 -0.9200  0.0477  0.7858
 5421SOL    HW116947   4.411   4.389   3.531  0.4089 -0.5671 -0.2792
 5421SOL    HW216948   4.293   4.295   3.517  1.6204 -2.2721  0.6458
 5422SOL     OW16949   4.677   3.141   4.434  0.3868 -0.4450  0.5592
 5422SOL    HW116950   4.736   3.121   4.507  2.3612 -0.1155 -0.8598
 5422SOL    HW216951   4.672   3.061   4.383  1.5164  0.1493 -0.5582
 5423SOL     OW16952   6.357   6.885   4.059 -0.3466 -0.3696 -0.3039
 5423SOL    HW116953   6.276   6.860   4.103 -0.9214 -1.3613 -1.8410
 5423SOL    HW216954   6.411   6.806   4.060  0.0693 -0.0951 -0.4424
 5424SOL     OW16955   4.554   2.809   4.337 -0.3069 -0.2278 -0.5582
 5424SOL    HW116956   4.535   2.798   4.430  0.1575  1.9299 -0.1492
 5424SOL    HW216957   4.647   2.833   4.334 -0.7724  1.6526 -1.3518
 5425SOL     OW16958   3.119   1.513   3.089 -0.0387  0.1992  0.6717
 5425SOL    HW116959   3.076   1.449   3.145 -0.9379  1.2067  1.1580
 5425SOL    HW216960   3.184   1.555   3.146 -0.2130  0.4856  0.6593
 5426SOL     OW16961   2.676   1.798   3.006  0.0216 -0.5605 -0.0173
 5426SOL    HW116962   2.649   1.889   2.992 -1.3776 -0.6176  1.9181
 5426SOL    HW216963   2.755   1.788   2.952  1.1147  2.2609  0.8528
 5427SOL     OW16964   4.287   0.575   0.623  0.3316  0.1717 -0.2346
 5427SOL    HW116965   4.228   0.647   0.648  0.2787  0.5425 -1.3817
 5427SOL    HW216966   4.356   0.617   0.572 -0.8328 -0.8172 -2.7721
 5428SOL     OW16967   2.782   0.083   1.549 -0.3250  0.1304  0.5821
 5428SOL    HW116968   2.806   0.147   1.482 -1.4654  1.8756  1.7858
 5428SOL    HW216969   2.694   0.055   1.525 -0.1719 -0.3331  0.5535
 5429SOL     OW16970   1.774   4.665   3.006 -0.1242 -0.8463 -0.3000
 5429SOL    HW116971   1.811   4.577   2.996 -2.1832 -1.5739 -2.4962
 5429SOL    HW216972   1.803   4.712   2.928 -0.9801 -0.3475 -0.3298
 5430SOL     OW16973   2.531   2.222   4.005 -0.4422  0.5221 -0.3282
 5430SOL    HW116974   2.577   2.302   4.028 -1.3051  0.5790  1.3792
 5430SOL    HW216975   2.551   2.208   3.912  0.9680  1.8513 -0.2653
 5431SOL     OW16976   2.269   3.567   0.204  0.2034 -0.2592  0.2760
 5431SOL    HW116977   2.245   3.655   0.175 -3.1204 -0.9661  0.5239
 5431SOL    HW216978   2.255   3.512   0.127 -0.6432 -0.9602  0.9152
 5432SOL     OW16979   1.992   1.556   3.703 -0.2096  0.0939 -0.2066
 5432SOL    HW116980   2.034   1.499   3.639 -2.4658 -1.5597 -0.3391
 5432SOL    HW216981   1.921   1.599   3.655 -0.6545  0.4117  0.7041
 5433SOL     OW16982   5.684   1.409   0.026 -0.4972 -0.4416 -0.1048
 5433SOL    HW116983   5.722   1.417   0.114  0.6293  0.1095 -0.6211
 5433SOL    HW216984   5.608   1.353   0.038 -1.0663  0.5947  1.4307
 5434SOL     OW16985   0.940   2.216   6.168  0.5654  0.0875  0.1880
 5434SOL    HW116986   0.895   2.241   6.087 -1.6619 -0.0963  1.2657
 5434SOL    HW216987   0.954   2.122   6.159  1.1908  0.2330 -0.3734
 5435SOL     OW16988   6.519   3.348   2.240  0.1485  0.0364  0.5676
 5435SOL    HW116989   6.493   3.298   2.317 -1.0497  0.1177  0.2249
 5435SOL    HW216990   6.470   3.309   2.168  0.0438  0.9863  0.1144
 5436SOL     OW16991   5.538   5.877   0.045  0.3149 -0.1015  0.3461
 5436SOL    HW116992   5.577   5.960   0.073 -0.0020 -0.3560  1.6065
 5436SOL    HW216993   5.474   5.856   0.113 -2.6767  0.6917 -2.0063
 5437SOL     OW16994   6.542   6.196   4.196  0.3060 -0.2424 -0.1277
 5437SOL    HW116995   6.600   6.151   4.135  1.3401  0.1477  0.5336
 5437SOL    HW216996   6.550   6.147   4.278  0.6542  0.5171  0.3076
 5438SOL     OW16997   0.445   5.240   4.470 -0.3916 -0.5278  0.0271
 5438SOL    HW116998   0.471   5.298   4.399 -0.0357  0.5799  1.0262
 5438SOL    HW216999   0.410   5.298   4.537 -1.7210 -1.6416  0.3423
 5439SOL     OW17000   1.132   5.492   2.542  0.4210 -0.0588 -0.0606
 5439SOL    HW117001   1.099   5.570   2.499  1.5117  0.8612  0.7136
 5439SOL    HW217002   1.060   5.429   2.537 -0.6515  1.1494 -0.2559
 5440SOL     OW17003   2.084   1.473   2.927  0.4515  0.8093  0.1679
 5440SOL    HW117004   2.079   1.538   2.998 -1.6301  0.3374  0.5075
 5440SOL    HW217005   2.033   1.511   2.856  0.6763  0.3052 -0.2674
 5441SOL     OW17006   1.625   1.490   0.521 -0.2021  0.7704  0.2095
 5441SOL    HW117007   1.589   1.544   0.450  0.8867  1.8071  0.4267
 5441SOL    HW217008   1.719   1.487   0.504 -0.0791  0.0137  0.9483
 5442SOL     OW17009   6.817   4.876   5.768 -0.1395  0.6460  0.0872
 5442SOL    HW117010   6.822   4.781   5.784  0.3662  0.6767  0.1396
 5442SOL    HW217011   6.865   4.889   5.686  1.8727  1.1372  1.2693
 5443SOL     OW17012   0.259   4.597   3.883  0.4267  0.1696 -0.0423
 5443SOL    HW117013   0.262   4.532   3.953 -0.2413 -0.2722 -0.4123
 5443SOL    HW217014   0.273   4.681   3.928  1.7821 -0.2526  0.3727
 5444SOL     OW17015   1.255   3.876   2.093 -0.0615  0.1463 -0.0581
 5444SOL    HW117016   1.194   3.885   2.167  1.2904 -0.0790  1.1337
 5444SOL    HW217017   1.211   3.816   2.033 -1.7928  1.3981 -0.1235
 5445SOL     OW17018   2.201   1.633   3.867 -0.0611 -0.0879  0.3769
 5445SOL    HW117019   2.234   1.713   3.826  1.1305  0.0580  1.5301
 5445SOL    HW217020   2.155   1.587   3.797  1.3977  0.4088 -0.9646
 5446SOL     OW17021   6.794   5.467   1.969  0.1159  0.2538 -0.2500
 5446SOL    HW117022   6.826   5.557   1.962  0.2708  0.1112 -1.5760
 5446SOL    HW217023   6.709   5.469   1.925 -0.6822  0.1117  1.2089
 5447SOL     OW17024   3.443   1.145   3.870 -0.0562  0.5742 -0.1494
 5447SOL    HW117025   3.495   1.113   3.943 -1.9347  0.9128  1.4017
 5447SOL    HW217026   3.485   1.108   3.792  1.5784 -0.3617  1.1257
 5448SOL     OW17027   2.909   2.624   4.544  0.4807 -0.3335  0.1171
 5448SOL    HW117028   2.860   2.694   4.503  0.3510  0.5332  1.6738
 5448SOL    HW217029   2.842   2.561   4.573  0.5617 -0.8687 -0.8187
 5449SOL     OW17030   3.377   4.854   5.194  0.5092 -0.0143 -0.4216
 5449SOL    HW117031   3.421   4.795   5.133  0.0298  0.2175 -1.0140
 5449SOL    HW217032   3.324   4.797   5.250 -0.8751 -0.1060 -1.7531
 5450SOL     OW17033   0.931   5.572   5.997 -0.0773  0.1765 -0.6099
 5450SOL    HW117034   0.851   5.603   6.040 -0.4315 -0.6456 -0.6498
 5450SOL    HW217035   0.920   5.477   5.993  0.2236  0.1807 -1.9819
 5451SOL     OW17036   4.969   5.149   0.883  0.2410 -0.4815 -0.2990
 5451SOL    HW117037   4.988   5.243   0.886  0.9914 -0.6554  1.0149
 5451SOL    HW217038   5.052   5.108   0.861 -0.2100 -0.8262 -1.4330
 5452SOL     OW17039   3.595   3.726   5.350 -0.3840 -0.2771  0.1463
 5452SOL    HW117040   3.587   3.671   5.428 -0.7334 -0.7756 -0.2384
 5452SOL    HW217041   3.604   3.665   5.278  0.1101  0.1857 -0.1989
 5453SOL     OW17042   5.711   5.456   1.880  0.3317 -0.3369 -0.2260
 5453SOL    HW117043   5.616   5.457   1.877  0.3078 -1.8616 -1.7794
 5453SOL    HW217044   5.737   5.548   1.880 -1.1288  0.1036  0.6545
 5454SOL     OW17045   6.414   2.541   3.456  0.0269 -0.0011 -0.3974
 5454SOL    HW117046   6.471   2.617   3.468  0.3310 -0.4606  1.3644
 5454SOL    HW217047   6.426   2.516   3.365  1.2398  1.0103 -0.5475
 5455SOL     OW17048   2.562   2.549   4.590  0.7748  0.3403 -0.0535
 5455SOL    HW117049   2.591   2.636   4.617 -1.3916  0.6820  1.3948
 5455SOL    HW217050   2.511   2.565   4.510  1.0521  0.2742 -0.2465
 5456SOL     OW17051   3.026   4.773   1.519  0.0148 -0.3236 -0.5042
 5456SOL    HW117052   2.933   4.793   1.533  0.3512  0.4490  0.7542
 5456SOL    HW217053   3.065   4.856   1.495  1.1511  0.3842  3.2737
 5457SOL     OW17054   5.727   5.633   2.957  0.4478 -0.1459  0.3199
 5457SOL    HW117055   5.641   5.672   2.945  0.2464 -0.4897  0.6349
 5457SOL    HW217056   5.726   5.555   2.900  0.4681 -0.2783  0.5015
 5458SOL     OW17057   3.082   0.681   0.765 -0.6273  0.1593  0.2856
 5458SOL    HW117058   3.131   0.600   0.780 -0.2105  0.0652 -1.4672
 5458SOL    HW217059   3.061   0.712   0.854 -2.6030 -2.9145  1.0602
 5459SOL     OW17060   1.462   2.327   1.414  0.0232 -0.1910  0.1130
 5459SOL    HW117061   1.400   2.386   1.372  1.9256  0.3460 -2.1637
 5459SOL    HW217062   1.408   2.267   1.466 -2.1385  1.8524  0.3599
 5460SOL     OW17063   4.256   5.924   1.078 -0.2118 -0.4842  0.3410
 5460SOL    HW117064   4.268   6.010   1.037 -0.5012  0.6384  2.4439
 5460SOL    HW217065   4.162   5.910   1.079 -0.3451  0.3157  2.0862
 5461SOL     OW17066   6.835   4.141   3.907  0.0050  0.3438  0.6574
 5461SOL    HW117067   6.763   4.084   3.878  0.6514 -1.1304  1.7862
 5461SOL    HW217068   6.824   4.222   3.857 -4.0254  1.2708  2.6687
 5462SOL     OW17069   3.660   5.961   3.674  0.0055  0.0758 -0.0673
 5462SOL    HW117070   3.738   6.001   3.713  0.8765 -0.4327 -1.2209
 5462SOL    HW217071   3.591   6.026   3.686  0.8761  1.0045  0.0164
 5463SOL     OW17072   3.402   5.806   5.075 -0.0705 -0.4469  0.7034
 5463SOL    HW117073   3.465   5.762   5.018 -1.9337  0.0583 -1.9118
 5463SOL    HW217074   3.370   5.737   5.133  1.3819 -1.1416  0.7242
 5464SOL     OW17075   5.636   4.003   4.728 -0.0360  0.0275 -0.0778
 5464SOL    HW117076   5.633   3.908   4.739  1.2044 -0.6347 -3.8001
 5464SOL    HW217077   5.565   4.022   4.666 -0.3719  1.5892  0.7374
 5465SOL     OW17078   6.705   3.557   2.287  0.3732 -0.0486 -0.2162
 5465SOL    HW117079   6.638   3.561   2.354 -0.0225  0.9152 -0.6597
 5465SOL    HW217080   6.676   3.487   2.228 -0.4000  0.5326 -0.5505
 5466SOL     OW17081   4.530   6.880   0.187 -0.3951  0.2748 -0.4143
 5466SOL    HW117082   4.616   6.891   0.226 -1.6189  2.0292  2.0894
 5466SOL    HW217083   4.531   6.939   0.110 -0.4620  3.3875  1.7686
 5467SOL     OW17084   1.084   3.276   4.733 -0.1322 -0.7675  0.3029
 5467SOL    HW117085   1.075   3.355   4.680  0.0407 -0.3420  0.8883
 5467SOL    HW217086   1.134   3.215   4.678  0.9819  0.0537  0.3584
 5468SOL     OW17087   6.714   1.001   2.198  0.7635  0.1915  0.1518
 5468SOL    HW117088   6.680   1.041   2.278 -1.1132 -0.6271 -0.1772
 5468SOL    HW217089   6.744   0.914   2.225  0.3491  0.0049  0.0219
 5469SOL     OW17090   1.381   1.153   6.147 -0.3016  0.1678  0.4282
 5469SOL    HW117091   1.443   1.224   6.128  1.4964 -1.4269  0.1121
 5469SOL    HW217092   1.342   1.177   6.231  1.2677  0.8621  0.9934
 5470SOL     OW17093   2.390   3.423   5.229 -0.2660 -0.3464 -0.6887
 5470SOL    HW117094   2.330   3.383   5.166 -2.2952 -0.7654  1.3919
 5470SOL    HW217095   2.374   3.375   5.310  3.2627 -0.7718 -0.0890
 5471SOL     OW17096   2.922   0.508   2.263  0.3498 -0.0707 -0.6118
 5471SOL    HW117097   2.907   0.570   2.192  2.3590  0.1335 -0.9139
 5471SOL    HW217098   2.848   0.447   2.259 -0.9962  1.5481 -1.0975
 5472SOL     OW17099   5.992   4.424   0.287  0.6387 -0.3050 -0.0432
 5472SOL    HW117100   6.005   4.401   0.195 -0.7590  0.1395 -0.3794
 5472SOL    HW217101   5.909   4.382   0.311  0.3063  0.6756  0.6042
 5473SOL     OW17102   6.704   0.377   1.448 -0.2193  0.3523 -0.4201
 5473SOL    HW117103   6.701   0.292   1.404  0.6719  1.2663 -2.4074
 5473SOL    HW217104   6.791   0.380   1.488  0.0045  0.5502 -0.9046
 5474SOL     OW17105   6.741   1.500   0.908 -0.7733 -0.0610 -0.7665
 5474SOL    HW117106   6.776   1.581   0.871 -0.4672 -0.7353 -1.9929
 5474SOL    HW217107   6.723   1.522   1.000  1.3666  0.7546 -0.4858
 5475SOL     OW17108   4.055   3.193   5.159  0.3635 -0.2669  0.2290
 5475SOL    HW117109   3.964   3.177   5.134 -0.2183  0.6911  1.5860
 5475SOL    HW217110   4.097   3.224   5.079 -0.9775  1.0891  0.0146
 5476SOL     OW17111   0.801   6.462   6.499  0.4119 -0.5565 -0.0196
 5476SOL    HW117112   0.874   6.470   6.561  0.6204 -0.5749 -0.2612
 5476SOL    HW217113   0.818   6.531   6.434 -0.8369  0.7738  0.9886
 5477SOL     OW17114   1.895   1.124   0.262 -0.4059 -0.0754 -0.0999
 5477SOL    HW117115   1.917   1.138   0.170 -0.8414 -1.2860 -0.4164
 5477SOL    HW217116   1.940   1.194   0.309 -0.3962  0.7210 -1.2586
 5478SOL     OW17117   2.467   2.148   5.865  0.1771 -0.2286  0.1989
 5478SOL    HW117118   2.409   2.164   5.940 -0.3494  1.3703 -0.5087
 5478SOL    HW217119   2.555   2.153   5.902 -0.0826 -1.1458  1.0018
 5479SOL     OW17120   2.676   0.911   0.558 -0.2006  0.0377 -0.8531
 5479SOL    HW117121   2.688   0.831   0.608 -0.8072 -0.4392 -1.4577
 5479SOL    HW217122   2.667   0.980   0.625  1.6699 -0.1571 -0.3286
 5480SOL     OW17123   2.549   4.545   6.331 -0.0492 -0.2109 -0.2748
 5480SOL    HW117124   2.642   4.559   6.349  0.4178 -1.1139 -1.7587
 5480SOL    HW217125   2.516   4.631   6.307  0.0811  0.3577  1.4113
 5481SOL     OW17126   2.370   6.265   3.607  0.0808  0.5421  0.2566
 5481SOL    HW117127   2.439   6.256   3.541 -1.2776  1.9500 -1.4551
 5481SOL    HW217128   2.377   6.355   3.638  3.1941 -1.0139  5.1407
 5482SOL     OW17129   6.315   1.555   1.629 -0.1419 -0.5894 -0.1218
 5482SOL    HW117130   6.335   1.505   1.550 -2.1047  2.2536 -2.6094
 5482SOL    HW217131   6.363   1.637   1.619 -2.4156  0.8609  0.3003
 5483SOL     OW17132   2.445   3.716   0.806 -0.0319 -0.0201 -0.0634
 5483SOL    HW117133   2.479   3.687   0.890 -1.1790 -0.6807  0.1996
 5483SOL    HW217134   2.474   3.649   0.744  1.2286  0.7235 -0.2956
 5484SOL     OW17135   1.749   5.915   3.813 -0.3652  0.3995 -0.6043
 5484SOL    HW117136   1.812   5.861   3.764  1.4977  0.8213  1.1969
 5484SOL    HW217137   1.676   5.856   3.830 -0.3473 -0.2284 -2.4318
 5485SOL     OW17138   5.505   0.870   0.415  0.2335  0.5516  0.3387
 5485SOL    HW117139   5.597   0.893   0.405  0.4731 -0.6121 -0.3378
 5485SOL    HW217140   5.458   0.932   0.360  0.8041 -0.1318 -0.9594
 5486SOL     OW17141   0.864   3.487   6.630 -0.1723 -0.0021  0.1566
 5486SOL    HW117142   0.793   3.485   6.566 -0.4489  0.7565  0.4373
 5486SOL    HW217143   0.884   3.580   6.642  0.3261 -0.1687  0.6811
 5487SOL     OW17144   1.851   6.894   2.359  0.0481 -0.3922 -0.2327
 5487SOL    HW117145   1.843   6.850   2.443  0.3144  1.0165  0.5586
 5487SOL    HW217146   1.776   6.862   2.308 -0.3236 -0.9819  0.6549
 5488SOL     OW17147   4.150   0.533   5.613 -0.7794  0.5447  0.0729
 5488SOL    HW117148   4.165   0.464   5.549 -0.4186  0.9802 -0.3218
 5488SOL    HW217149   4.064   0.512   5.651 -1.1310  0.4323 -0.7471
 5489SOL     OW17150   5.061   5.199   0.298  0.0699  0.0620  0.3452
 5489SOL    HW117151   5.127   5.133   0.280 -0.6973 -0.2277 -1.6257
 5489SOL    HW217152   4.993   5.154   0.348 -0.1846 -0.5033 -0.5051
 5490SOL     OW17153   5.985   5.080   4.100  0.0973 -0.2714 -1.1194
 5490SOL    HW117154   6.072   5.043   4.080 -0.5579 -1.3644 -2.0711
 5490SOL    HW217155   5.962   5.129   4.021  0.6856  1.7536 -0.1095
 5491SOL     OW17156   1.432   4.352   2.520 -0.3093 -0.3327  0.3056
 5491SOL    HW117157   1.376   4.278   2.496 -1.6930  0.4239  1.0855
 5491SOL    HW217158   1.451   4.339   2.613 -1.8142  1.0148  0.8617
 5492SOL     OW17159   3.640   3.725   6.321 -0.4289  0.3827 -0.1448
 5492SOL    HW117160   3.566   3.779   6.296 -1.1224  0.5595  2.1013
 5492SOL    HW217161   3.715   3.785   6.321 -1.0877  1.3027  1.7460
 5493SOL     OW17162   3.006   0.088   4.384  0.6159  0.5296 -0.2686
 5493SOL    HW117163   2.936   0.039   4.427  1.1213 -0.0824 -0.1285
 5493SOL    HW217164   3.086   0.044   4.411  1.0224  0.9053 -0.8371
 5494SOL     OW17165   1.277   2.589   1.735  0.3450 -0.1230  0.5533
 5494SOL    HW117166   1.338   2.656   1.765 -0.3696 -0.0494  1.9524
 5494SOL    HW217167   1.220   2.634   1.673  1.0888  0.0495 -0.0149
 5495SOL     OW17168   0.689   5.409   3.651  0.4321  0.4066  0.1314
 5495SOL    HW117169   0.728   5.493   3.674  0.3480 -0.2480  3.0837
 5495SOL    HW217170   0.760   5.360   3.610  1.2965  0.9441  0.9589
 5496SOL     OW17171   4.348   2.723   2.739 -0.2621  0.7640  0.2560
 5496SOL    HW117172   4.415   2.785   2.770 -0.1083  1.1105 -0.7405
 5496SOL    HW217173   4.384   2.637   2.760  1.0283  0.9020 -1.2465
 5497SOL     OW17174   4.764   5.293   5.784  0.0713 -0.1143 -0.1956
 5497SOL    HW117175   4.699   5.228   5.809  1.1258 -1.6413 -1.2468
 5497SOL    HW217176   4.825   5.296   5.859  0.4531 -0.9269 -0.4718
 5498SOL     OW17177   6.159   6.757   4.200  0.5859 -0.3212  0.0109
 5498SOL    HW117178   6.118   6.689   4.147 -0.6169  0.0844  0.3911
 5498SOL    HW217179   6.115   6.752   4.285  1.5321 -0.0553  0.5407
 5499SOL     OW17180   1.974   5.898   0.119  0.1958  0.6407  0.0312
 5499SOL    HW117181   1.913   5.889   0.192  0.0893  1.2919  0.0314
 5499SOL    HW217182   1.946   5.832   0.056 -0.7246  1.1547 -0.1089
 5500SOL     OW17183   6.655   6.012   6.158  0.1978 -0.2654 -0.2525
 5500SOL    HW117184   6.732   5.989   6.210  0.9655 -0.4646 -1.4211
 5500SOL    HW217185   6.666   5.963   6.077 -0.0299  1.3560 -1.3225
 5501SOL     OW17186   2.816   2.339   5.707  0.0626  0.2598  0.5692
 5501SOL    HW117187   2.745   2.312   5.649  0.4600  2.2094 -0.9291
 5501SOL    HW217188   2.896   2.308   5.664  0.3348  1.2868  0.3256
 5502SOL     OW17189   6.656   3.650   5.618 -0.1414  0.7182 -0.2300
 5502SOL    HW117190   6.612   3.713   5.675 -0.3988 -0.3495  0.7827
 5502SOL    HW217191   6.585   3.599   5.579  0.1202 -0.0895  0.3215
 5503SOL     OW17192   5.278   0.472   5.131 -0.0508  0.7176  0.7901
 5503SOL    HW117193   5.224   0.534   5.083  0.5733 -0.8307 -2.1548
 5503SOL    HW217194   5.366   0.510   5.130  0.1461  0.2525 -0.1707
 5504SOL     OW17195   2.061   2.142   5.751  0.0717  0.5596  0.0995
 5504SOL    HW117196   2.019   2.228   5.761 -0.4940  0.2247  0.7277
 5504SOL    HW217197   2.065   2.128   5.656 -0.9274  0.7602  0.0152
 5505SOL     OW17198   4.006   6.200   2.278  0.2700  0.3684 -0.3954
 5505SOL    HW117199   4.013   6.290   2.245  0.0435  0.7201  0.4773
 5505SOL    HW217200   4.024   6.208   2.372  1.2614 -0.6611 -0.4936
 5506SOL     OW17201   0.495   1.867   1.810 -0.2740  0.3263  0.4549
 5506SOL    HW117202   0.583   1.896   1.835 -0.2400  0.7992 -0.1847
 5506SOL    HW217203   0.441   1.946   1.814 -0.4844  0.2093  0.0492
 5507SOL     OW17204   1.884   2.989   3.864  0.1328 -0.2321 -0.1302
 5507SOL    HW117205   1.838   2.936   3.929 -0.1606  1.1314  0.8204
 5507SOL    HW217206   1.977   2.978   3.886  0.0718 -0.3734  0.0577
 5508SOL     OW17207   5.534   2.212   5.822  0.0446  0.0867  0.3288
 5508SOL    HW117208   5.504   2.247   5.738 -0.9824  1.1800  1.1222
 5508SOL    HW217209   5.476   2.138   5.839  0.4568 -0.3317 -0.0621
 5509SOL     OW17210   0.430   1.582   1.104  0.2331 -0.6363 -0.1070
 5509SOL    HW117211   0.525   1.596   1.109 -0.1250  2.7475 -0.1054
 5509SOL    HW217212   0.417   1.494   1.140  3.4490 -1.8154 -1.4336
 5510SOL     OW17213   1.587   6.380   2.692  1.0140 -0.0137  0.4000
 5510SOL    HW117214   1.567   6.457   2.638 -1.4418 -0.6285  0.2901
 5510SOL    HW217215   1.658   6.336   2.646  0.6991  0.8221 -0.9539
 5511SOL     OW17216   4.581   6.481   4.894  0.1174  0.6342  0.1035
 5511SOL    HW117217   4.508   6.543   4.897 -0.0702  0.4696 -0.7716
 5511SOL    HW217218   4.545   6.400   4.931  0.1606  0.8485  0.6170
 5512SOL     OW17219   2.198   3.789   2.936 -0.0018 -0.2676 -0.0510
 5512SOL    HW117220   2.103   3.794   2.923 -0.1155 -0.8966  0.5272
 5512SOL    HW217221   2.213   3.703   2.974  0.4510  0.8768  2.6422
 5513SOL     OW17222   2.550   3.973   3.440 -0.1949 -0.3488 -0.5976
 5513SOL    HW117223   2.556   3.897   3.498 -3.1896 -0.5508 -0.4062
 5513SOL    HW217224   2.604   3.950   3.364  1.3150 -1.3687  0.7129
 5514SOL     OW17225   4.220   4.325   6.735  0.0181 -0.7292  0.4475
 5514SOL    HW117226   4.312   4.309   6.756  0.6093  1.2936 -0.4608
 5514SOL    HW217227   4.173   4.257   6.785  2.0017 -2.2377  0.4077
 5515SOL     OW17228   4.824   5.248   6.334  0.2802  0.2477  0.3819
 5515SOL    HW117229   4.850   5.178   6.394  0.4213 -0.1015 -0.0886
 5515SOL    HW217230   4.773   5.204   6.266 -0.6512  0.7701  0.7207
 5516SOL     OW17231   5.879   1.777   4.093 -0.6094  0.3894 -0.0961
 5516SOL    HW117232   5.915   1.782   4.004  1.7940 -1.7652  0.6284
 5516SOL    HW217233   5.805   1.716   4.085  0.4911 -0.9725 -0.4491
 5517SOL     OW17234   4.934   0.992   0.585 -0.4126  0.7884 -0.2755
 5517SOL    HW117235   4.914   1.066   0.528 -3.3101  1.3518  1.2939
 5517SOL    HW217236   5.026   1.006   0.611 -0.8242  3.8385 -0.0809
 5518SOL     OW17237   1.897   5.834   1.454  0.5402  0.3001  0.3124
 5518SOL    HW117238   1.809   5.866   1.471  0.9122  2.6232 -1.5637
 5518SOL    HW217239   1.888   5.774   1.380  0.4940  0.2042  0.3954
 5519SOL     OW17240   0.918   5.063   1.697  0.1346 -0.1637  0.5754
 5519SOL    HW117241   0.948   5.043   1.608 -1.0081 -0.4315  0.2352
 5519SOL    HW217242   0.848   4.999   1.713 -0.0041  0.2074  1.4834
 5520SOL     OW17243   2.580   1.765   4.823 -0.2411 -0.0149  0.3853
 5520SOL    HW117244   2.632   1.844   4.838  0.0172 -0.1088  0.0010
 5520SOL    HW217245   2.599   1.740   4.732 -2.1199  0.8094 -0.2968
 5521SOL     OW17246   6.238   5.031   4.892  0.0963 -0.0847 -0.3059
 5521SOL    HW117247   6.212   5.087   4.819  0.0492  0.8370  0.3886
 5521SOL    HW217248   6.157   4.988   4.920 -0.3411  1.2300  0.5640
 5522SOL     OW17249   6.093   4.170   5.330 -0.0433  0.1786 -0.0122
 5522SOL    HW117250   6.070   4.085   5.369  2.3237 -0.7492 -0.5139
 5522SOL    HW217251   6.070   4.161   5.237  0.7597 -0.1322 -0.1814
 5523SOL     OW17252   2.354   3.086   0.972 -0.2312  0.0148 -0.0451
 5523SOL    HW117253   2.267   3.123   0.986 -0.3800 -0.4181  0.2229
 5523SOL    HW217254   2.349   3.044   0.886  0.1458  1.1802 -0.6533
 5524SOL     OW17255   6.332   6.498   6.883 -0.0362 -0.2683 -0.2750
 5524SOL    HW117256   6.274   6.479   6.808 -1.2633  0.6375  0.4057
 5524SOL    HW217257   6.291   6.452   6.956  0.5481 -0.2423  0.0696
 5525SOL     OW17258   1.592   5.647   2.516 -0.4861  0.2851 -0.5295
 5525SOL    HW117259   1.593   5.552   2.505 -0.0359  0.0852  1.0086
 5525SOL    HW217260   1.607   5.681   2.428  2.2673 -1.1251 -0.7205
 5526SOL     OW17261   5.391   0.547   6.283  0.4915  0.2268  0.3833
 5526SOL    HW117262   5.460   0.602   6.320  0.8078 -0.2720  0.5507
 5526SOL    HW217263   5.435   0.465   6.261  0.0899  0.1504 -0.1524
 5527SOL     OW17264   5.819   5.360   0.551  0.7384  0.4426 -0.2416
 5527SOL    HW117265   5.850   5.345   0.640 -0.6175 -1.0377  0.0200
 5527SOL    HW217266   5.759   5.435   0.559 -0.3197 -0.4320  0.3520
 5528SOL     OW17267   4.507   1.086   6.618 -0.0647 -0.2200  0.0599
 5528SOL    HW117268   4.562   1.155   6.580 -0.7842  1.2337  1.5252
 5528SOL    HW217269   4.554   1.005   6.599  1.1480  0.7282 -1.1611
 5529SOL     OW17270   5.227   6.034   3.351 -0.1134 -0.4955 -0.1775
 5529SOL    HW117271   5.254   6.017   3.261  3.0130  0.3366  0.4741
 5529SOL    HW217272   5.309   6.041   3.400 -1.6876 -1.0685  2.7950
 5530SOL     OW17273   3.285   6.347   3.267  0.0335 -0.3138  0.2098
 5530SOL    HW117274   3.235   6.392   3.199 -0.5511 -1.0304  0.1502
 5530SOL    HW217275   3.366   6.320   3.223  0.1538  0.2141  0.1066
 5531SOL     OW17276   6.023   2.211   2.668 -0.2791 -0.2081 -0.4272
 5531SOL    HW117277   6.099   2.189   2.723 -0.1786 -0.7829 -0.7965
 5531SOL    HW217278   5.948   2.176   2.716 -0.5170  1.7294  0.7392
 5532SOL     OW17279   5.157   6.502   6.873 -0.1409  0.0414 -0.1891
 5532SOL    HW117280   5.065   6.488   6.852 -0.4230  1.4851 -0.0373
 5532SOL    HW217281   5.204   6.440   6.818 -1.1922 -0.7430 -0.2446
 5533SOL     OW17282   3.628   2.742   2.013 -0.1836  0.1373 -0.1411
 5533SOL    HW117283   3.698   2.677   2.007  1.0083  1.4839 -1.6861
 5533SOL    HW217284   3.572   2.724   1.937 -0.4508  0.2679  0.0228
 5534SOL     OW17285   0.729   4.709   4.588 -0.1023 -0.2103 -0.1891
 5534SOL    HW117286   0.728   4.785   4.646 -2.0436 -0.2025 -0.1480
 5534SOL    HW217287   0.732   4.634   4.647  0.6272 -0.1905 -0.1911
 5535SOL     OW17288   4.613   2.161   2.544  0.3001 -0.8121 -0.1289
 5535SOL    HW117289   4.562   2.113   2.610  0.3906 -0.6742  0.0444
 5535SOL    HW217290   4.699   2.173   2.585  0.2172 -0.3246 -0.0850
 5536SOL     OW17291   2.981   6.184   1.291  0.2923 -0.2210  0.3331
 5536SOL    HW117292   2.964   6.199   1.384 -0.8485  1.1699 -0.0659
 5536SOL    HW217293   3.032   6.260   1.264 -2.0283  1.0285 -0.8225
 5537SOL     OW17294   1.849   1.759   5.487  0.4812 -0.7370  0.4723
 5537SOL    HW117295   1.759   1.780   5.464  1.0845  0.0123 -1.3586
 5537SOL    HW217296   1.842   1.678   5.538 -1.2988 -0.0351  1.4383
 5538SOL     OW17297   5.656   4.183   0.941 -0.7666  0.3369  0.0270
 5538SOL    HW117298   5.618   4.176   1.028  0.3741  0.0560  0.5116
 5538SOL    HW217299   5.634   4.272   0.913 -1.7488  0.1927  0.2938
 5539SOL     OW17300   5.616   4.536   5.310 -0.4129  0.0069  0.2891
 5539SOL    HW117301   5.554   4.514   5.240 -0.2796 -1.4700  0.6029
 5539SOL    HW217302   5.702   4.513   5.273 -0.1114  1.2135  0.1842
 5540SOL     OW17303   5.212   0.348   2.381  0.4572  0.1404  0.1335
 5540SOL    HW117304   5.256   0.275   2.339 -1.2923 -0.0910 -1.4406
 5540SOL    HW217305   5.248   0.426   2.338 -0.7377 -0.0560 -1.3090
 5541SOL     OW17306   0.767   3.606   2.581  0.0645  0.3026  0.1216
 5541SOL    HW117307   0.709   3.541   2.543 -0.1371  0.1954  0.6144
 5541SOL    HW217308   0.710   3.680   2.601  0.2439  0.5233 -0.1667
 5542SOL     OW17309   0.625   0.616   4.514  0.3410  0.0070  0.1390
 5542SOL    HW117310   0.574   0.536   4.525  2.9778 -1.6266  1.8376
 5542SOL    HW217311   0.572   0.684   4.555 -1.3057 -1.1767  0.0691
 5543SOL     OW17312   3.569   2.721   4.259  0.1181  0.6683 -0.2751
 5543SOL    HW117313   3.611   2.659   4.200  0.0134  0.6563 -0.3367
 5543SOL    HW217314   3.640   2.778   4.288 -0.0394  1.4895 -1.4318
 5544SOL     OW17315   4.063   5.383   3.617  0.2000  0.0087  0.4440
 5544SOL    HW117316   4.016   5.429   3.685  0.2691  0.0766  0.4468
 5544SOL    HW217317   4.146   5.430   3.609  1.0191 -1.1312  1.6494
 5545SOL     OW17318   2.813   2.850   3.412  0.4175 -0.4365  0.0664
 5545SOL    HW117319   2.770   2.766   3.395  1.1068 -0.3557 -2.4128
 5545SOL    HW217320   2.756   2.893   3.477 -0.2509 -2.5368  0.9673
 5546SOL     OW17321   4.969   3.874   6.065  0.8041  0.3368  0.4614
 5546SOL    HW117322   4.886   3.871   6.112  0.2770  1.9774 -0.2805
 5546SOL    HW217323   5.035   3.854   6.131  0.0802  2.3605  1.9052
 5547SOL     OW17324   5.532   4.870   3.673  0.4019  0.1494  0.1294
 5547SOL    HW117325   5.458   4.903   3.725  0.9993  1.0348  0.4354
 5547SOL    HW217326   5.517   4.775   3.668 -1.6748  0.4659 -1.2389
 5548SOL     OW17327   2.667   6.094   0.347  0.5899 -0.6778  0.0543
 5548SOL    HW117328   2.636   6.007   0.372  0.0119 -0.4974 -0.0295
 5548SOL    HW217329   2.761   6.092   0.364  0.4202 -0.9932  0.9723
 5549SOL     OW17330   2.727   6.516   5.332 -0.1086  0.1330 -0.8294
 5549SOL    HW117331   2.633   6.509   5.346 -0.4156  1.8635 -1.6998
 5549SOL    HW217332   2.748   6.607   5.353  1.5351 -0.4238  0.1279
 5550SOL     OW17333   4.244   5.340   3.049 -0.7527  0.0473  0.1549
 5550SOL    HW117334   4.276   5.400   3.116 -0.5746 -1.2072  1.2385
 5550SOL    HW217335   4.244   5.391   2.969  1.1144  0.9762  0.6858
 5551SOL     OW17336   0.813   3.585   4.364  0.0514  0.2357  0.1559
 5551SOL    HW117337   0.731   3.633   4.357 -0.7483 -0.7682  2.1277
 5551SOL    HW217338   0.790   3.494   4.346  0.4043 -0.2885  2.1077
 5552SOL     OW17339   2.646   4.683   3.817  0.0212 -0.3117  0.6099
 5552SOL    HW117340   2.628   4.677   3.911 -0.6753  0.4181  0.5318
 5552SOL    HW217341   2.736   4.717   3.812 -0.0343 -0.0980  1.0167
 5553SOL     OW17342   4.305   5.843   1.384 -0.2593 -0.5261  0.2030
 5553SOL    HW117343   4.230   5.785   1.367 -1.5049  0.9234  0.5136
 5553SOL    HW217344   4.350   5.849   1.300 -1.6123  0.0669 -0.5215
 5554SOL     OW17345   2.118   1.277   2.020 -0.5668  0.2851 -0.2175
 5554SOL    HW117346   2.111   1.191   2.062  0.4751  0.2353 -0.1232
 5554SOL    HW217347   2.168   1.260   1.941 -0.3699  0.8039 -0.2043
 5555SOL     OW17348   6.340   5.078   3.406  0.7077  0.5388  0.2367
 5555SOL    HW117349   6.321   5.056   3.497  0.0654 -1.1738 -0.2623
 5555SOL    HW217350   6.425   5.122   3.409  1.5546 -1.0712  1.5204
 5556SOL     OW17351   1.097   5.922   6.002  0.0620  1.0791  0.5572
 5556SOL    HW117352   1.187   5.943   5.980  0.9732 -2.7705 -0.1743
 5556SOL    HW217353   1.096   5.915   6.097  0.7344  0.5359  0.5332
 5557SOL     OW17354   6.539   0.416   6.137  0.6458 -0.1205  0.1627
 5557SOL    HW117355   6.530   0.361   6.215 -0.3972  0.1386  0.2440
 5557SOL    HW217356   6.574   0.358   6.070  0.3667 -0.6683  0.4848
 5558SOL     OW17357   6.008   4.965   2.286 -0.3342  0.1981 -0.0254
 5558SOL    HW117358   6.097   4.994   2.303 -0.1775 -0.3662  0.1500
 5558SOL    HW217359   5.954   5.017   2.345 -0.1814  0.9387 -0.5341
 5559SOL     OW17360   2.903   3.253   4.565  0.3012  0.0965 -0.5318
 5559SOL    HW117361   2.827   3.215   4.610  0.5496  0.3537  0.1215
 5559SOL    HW217362   2.868   3.330   4.521  0.4089  1.0178  0.8977
 5560SOL     OW17363   1.513   5.135   1.637  0.1390 -0.1252 -0.4879
 5560SOL    HW117364   1.473   5.191   1.703 -0.4935  0.0006 -0.9745
 5560SOL    HW217365   1.540   5.195   1.568 -1.1197 -0.4649 -1.3020
 5561SOL     OW17366   2.776   3.155   4.086  0.2518 -0.0033  0.7326
 5561SOL    HW117367   2.725   3.220   4.039 -0.0027 -1.8176 -1.6911
 5561SOL    HW217368   2.711   3.100   4.129  0.3511 -0.0707  0.7974
 5562SOL     OW17369   1.705   6.598   5.629 -0.5098  0.0218 -0.1569
 5562SOL    HW117370   1.691   6.519   5.681 -0.2353 -0.5722 -0.9717
 5562SOL    HW217371   1.633   6.656   5.654 -1.0286 -0.6933  0.0515
 5563SOL     OW17372   2.408   6.783   5.554  0.3550 -0.9201 -0.0318
 5563SOL    HW117373   2.438   6.862   5.509  0.6620  0.0190  1.7328
 5563SOL    HW217374   2.488   6.740   5.583  0.1931  0.0498  2.1100
 5564SOL     OW17375   5.129   6.581   3.270 -0.1030 -0.3723  0.4309
 5564SOL    HW117376   5.201   6.589   3.332 -0.9920  0.6968  1.3897
 5564SOL    HW217377   5.147   6.501   3.222  4.4284  2.1906 -2.9669
 5565SOL     OW17378   0.811   6.095   0.048 -0.3188  0.2240  0.0585
 5565SOL    HW117379   0.828   6.178   0.005  1.2419 -0.9611 -1.7396
 5565SOL    HW217380   0.768   6.041  -0.018  0.2011 -0.9510  0.6355
 5566SOL     OW17381   6.129   4.694   6.298 -0.1763 -0.4823  0.2778
 5566SOL    HW117382   6.080   4.771   6.326 -0.9847 -0.5992 -0.7608
 5566SOL    HW217383   6.077   4.619   6.329  0.8582 -0.6431  1.7201
 5567SOL     OW17384   4.699   0.891   4.001 -0.1510 -0.7884 -0.0771
 5567SOL    HW117385   4.764   0.924   4.063  0.7519  0.1971 -1.4741
 5567SOL    HW217386   4.622   0.945   4.016  0.2828 -0.1058 -0.2204
 5568SOL     OW17387   5.242   5.865   2.249  0.5460 -0.7006 -0.3661
 5568SOL    HW117388   5.323   5.904   2.282  1.0523 -1.0531 -1.1854
 5568SOL    HW217389   5.190   5.940   2.219 -0.0941 -0.3223  1.5123
 5569SOL     OW17390   5.416   2.742   5.537  0.2411 -0.3809  0.4162
 5569SOL    HW117391   5.465   2.665   5.565  0.6104 -0.4457 -0.3784
 5569SOL    HW217392   5.404   2.793   5.617  1.0383 -0.6830  0.7422
 5570SOL     OW17393   5.397   4.310   6.424 -0.4424  0.4162  0.1220
 5570SOL    HW117394   5.434   4.255   6.493 -1.4436  0.6692  0.8849
 5570SOL    HW217395   5.473   4.347   6.380  0.2618 -1.6464 -0.4983
 5571SOL     OW17396   6.888   5.770   4.969  0.3682 -0.0960 -0.0328
 5571SOL    HW117397   6.964   5.807   5.015  1.0070 -0.4662 -0.7727
 5571SOL    HW217398   6.922   5.742   4.885 -0.8846  1.0211 -0.9579
 5572SOL     OW17399   1.197   0.668   3.433  0.2617 -0.6658 -0.2358
 5572SOL    HW117400   1.221   0.645   3.344  0.2848 -0.0701 -0.3840
 5572SOL    HW217401   1.280   0.679   3.479  0.2509 -1.0963 -0.0989
 5573SOL     OW17402   2.978   5.946   6.658 -0.0046 -0.5593  0.0447
 5573SOL    HW117403   2.941   6.012   6.717 -0.5022  1.3048 -2.1958
 5573SOL    HW217404   3.071   5.967   6.654  0.3772 -1.7946  1.4276
 5574SOL     OW17405   2.029   4.713   0.535  0.4932 -0.3213 -0.8648
 5574SOL    HW117406   2.059   4.700   0.624 -1.7168 -2.8595 -0.3609
 5574SOL    HW217407   2.099   4.762   0.492  2.1571 -0.1174  1.8965
 5575SOL     OW17408   0.618   5.359   5.251 -0.3044 -0.1481 -0.4450
 5575SOL    HW117409   0.691   5.392   5.199 -0.5834  3.0273  0.9386
 5575SOL    HW217410   0.659   5.317   5.327  0.0813  0.1084 -0.5131
 5576SOL     OW17411   3.810   3.758   3.555  0.2161  0.0448 -0.2974
 5576SOL    HW117412   3.888   3.703   3.548  0.1402 -0.1041 -0.0125
 5576SOL    HW217413   3.739   3.703   3.520  0.2587  0.2237 -0.6664
 5577SOL     OW17414   0.283   5.743   3.495 -0.2554  0.1900 -0.2694
 5577SOL    HW117415   0.349   5.678   3.518 -2.7059 -2.5064 -0.2824
 5577SOL    HW217416   0.287   5.749   3.399 -1.8780 -2.3359 -0.6163
 5578SOL     OW17417   4.402   6.157   5.273 -0.2685 -0.7551  0.4214
 5578SOL    HW117418   4.391   6.062   5.279 -1.6727 -0.6261  0.2204
 5578SOL    HW217419   4.318   6.188   5.239  0.2223  0.5506  0.3758
 5579SOL     OW17420   3.717   0.445   1.396 -0.2084 -0.2576  0.1723
 5579SOL    HW117421   3.701   0.489   1.479 -2.5945 -0.7664  0.0695
 5579SOL    HW217422   3.750   0.358   1.421 -1.4860 -0.6344  0.6755
 5580SOL     OW17423   5.116   5.888   3.695  0.2489 -0.1973  0.2537
 5580SOL    HW117424   5.211   5.880   3.701  0.2826  0.1124  0.1438
 5580SOL    HW217425   5.099   5.893   3.601  0.2488  1.1989  0.3085
 5581SOL     OW17426   1.333   4.305   0.533 -0.0180  0.1836  0.0561
 5581SOL    HW117427   1.426   4.322   0.542  0.3832 -1.9182  0.5417
 5581SOL    HW217428   1.305   4.361   0.460  1.6550  0.7211 -0.2140
 5582SOL     OW17429   1.943   3.761   6.168 -0.3830 -0.1966 -0.2571
 5582SOL    HW117430   1.918   3.778   6.077  0.7844 -0.8554 -0.7159
 5582SOL    HW217431   2.003   3.686   6.163  0.3991  0.3236  0.9569
 5583SOL     OW17432   1.288   3.920   4.031 -0.0690  0.2384  0.1267
 5583SOL    HW117433   1.262   3.828   4.024  1.0575 -0.4090  3.0233
 5583SOL    HW217434   1.384   3.917   4.041 -0.1223  1.5931  1.4580
 5584SOL     OW17435   2.851   1.210   2.027  0.7822  0.1302  0.0452
 5584SOL    HW117436   2.807   1.283   2.070  1.3774  0.5811 -0.0951
 5584SOL    HW217437   2.901   1.168   2.097  0.4341 -0.1545  0.1278
 5585SOL     OW17438   6.752   3.820   3.732  0.4225 -0.1437  0.1965
 5585SOL    HW117439   6.801   3.898   3.707  1.5149 -0.6827  0.5979
 5585SOL    HW217440   6.742   3.771   3.650  1.4268 -0.4864  0.2535
 5586SOL     OW17441   0.867   3.093   4.694  0.3796 -0.2758 -0.5282
 5586SOL    HW117442   0.863   3.187   4.710 -0.2248 -0.5885  1.2867
 5586SOL    HW217443   0.777   3.063   4.698  0.2642 -0.6279 -3.4863
 5587SOL     OW17444   2.342   1.082   2.677 -0.1157 -0.3382 -0.0295
 5587SOL    HW117445   2.287   1.006   2.697  0.2470 -0.5851  0.0411
 5587SOL    HW217446   2.299   1.124   2.602 -1.0470  0.1410  0.7541
 5588SOL     OW17447   4.155   1.516   0.049  0.0171 -0.0135 -0.7576
 5588SOL    HW117448   4.144   1.424   0.025  1.6799 -0.4386  0.0133
 5588SOL    HW217449   4.225   1.548  -0.008  1.1635  0.0657  0.6262
 5589SOL     OW17450   0.139   6.764   2.303  0.1369 -0.0887 -0.5103
 5589SOL    HW117451   0.231   6.753   2.280  0.2310  0.0788 -0.2167
 5589SOL    HW217452   0.092   6.709   2.239  0.2522  1.7836 -2.3136
 5590SOL     OW17453   3.615   4.287   1.749  0.2548  0.2206 -0.3645
 5590SOL    HW117454   3.610   4.309   1.842 -2.3196 -0.6018 -0.2222
 5590SOL    HW217455   3.643   4.367   1.706 -1.3649  1.5080  0.8681
 5591SOL     OW17456   2.035   0.528   4.737 -0.2570  0.6883  0.2179
 5591SOL    HW117457   1.945   0.496   4.733 -0.0489  0.1415 -2.4317
 5591SOL    HW217458   2.079   0.472   4.800 -1.6367  0.6515  1.1825
 5592SOL     OW17459   5.162   4.244   5.630 -0.1721 -0.3041 -0.1680
 5592SOL    HW117460   5.254   4.263   5.614  0.5083 -0.9261  2.5139
 5592SOL    HW217461   5.126   4.326   5.664 -0.4249 -0.2853 -0.4746
 5593SOL     OW17462   0.179   0.563   0.392  0.7610 -0.0791  0.1497
 5593SOL    HW117463   0.087   0.556   0.420  1.3338  0.0916  2.2078
 5593SOL    HW217464   0.174   0.594   0.301 -1.2147 -0.4065  0.0975
 5594SOL     OW17465   4.278   2.536   1.648  0.5386  0.2083  0.3183
 5594SOL    HW117466   4.318   2.612   1.691  1.0204 -0.4902  1.1411
 5594SOL    HW217467   4.262   2.474   1.720  0.6827 -0.6904 -0.4125
 5595SOL     OW17468   5.367   6.876   5.318  0.5349  0.2002 -0.0084
 5595SOL    HW117469   5.334   6.879   5.408 -1.1946  0.8995 -0.6156
 5595SOL    HW217470   5.297   6.915   5.266  2.1413  1.2290 -1.4935
 5596SOL     OW17471   1.391   3.179   2.287  0.1411 -0.5402  0.1999
 5596SOL    HW117472   1.482   3.162   2.309 -0.5040 -1.0206  2.9320
 5596SOL    HW217473   1.358   3.094   2.255  0.4812 -0.5178 -0.2213
 5597SOL     OW17474   5.857   0.107   4.190  0.1684  0.3085 -0.1933
 5597SOL    HW117475   5.798   0.183   4.191  1.5322  1.4253 -0.7163
 5597SOL    HW217476   5.895   0.108   4.102  0.0579 -1.1373 -0.2769
 5598SOL     OW17477   4.919   6.240   5.015 -0.2935 -0.2860  0.3187
 5598SOL    HW117478   4.931   6.225   4.922 -0.3795 -1.6986  0.5164
 5598SOL    HW217479   4.908   6.335   5.023 -0.1941 -0.1409 -1.0856
 5599SOL     OW17480   5.315   1.824   1.513  0.1981  0.9196 -0.4408
 5599SOL    HW117481   5.279   1.845   1.427 -1.7042  0.1970  0.1216
 5599SOL    HW217482   5.245   1.848   1.574 -0.2329 -2.4512  0.5939
 5600SOL     OW17483   0.684   4.651   2.114 -0.5772 -0.0403 -0.2817
 5600SOL    HW117484   0.768   4.606   2.115 -1.3681 -1.5728  0.8964
 5600SOL    HW217485   0.694   4.723   2.176 -0.2614 -0.4761  0.1748
 5601SOL     OW17486   1.235   5.818   5.452  0.1647 -0.2178 -0.2450
 5601SOL    HW117487   1.210   5.864   5.532 -1.4382 -0.4978 -0.5412
 5601SOL    HW217488   1.197   5.870   5.381  1.0665 -0.2908 -0.7997
 5602SOL     OW17489   3.115   2.889   0.003  0.0820  0.4838  0.4248
 5602SOL    HW117490   3.152   2.810  -0.034 -1.4203 -1.4121  2.6974
 5602SOL    HW217491   3.170   2.909   0.079 -0.6910  0.4562  1.0039
 5603SOL     OW17492   6.085   4.388   2.528 -0.1835  0.3311 -0.2054
 5603SOL    HW117493   6.092   4.411   2.620 -0.6316 -0.4860  0.0449
 5603SOL    HW217494   6.141   4.451   2.483  0.2715  0.5515  0.6483
 5604SOL     OW17495   0.761   6.699   3.366 -0.4343 -0.2702 -0.0133
 5604SOL    HW117496   0.764   6.625   3.427  0.4578 -0.1808  0.0693
 5604SOL    HW217497   0.832   6.682   3.304  0.1475  0.7805  0.3312
 5605SOL     OW17498   6.361   3.985   3.435  0.7746  0.0451 -0.4648
 5605SOL    HW117499   6.418   4.061   3.423 -1.0831  1.2397 -2.5108
 5605SOL    HW217500   6.302   4.010   3.506  1.2120 -0.1812 -0.0179
 5606SOL     OW17501   5.239   5.278   4.225  0.0358 -0.3921 -0.2051
 5606SOL    HW117502   5.188   5.260   4.304 -0.9126  1.0926 -0.4511
 5606SOL    HW217503   5.317   5.325   4.256 -0.1005 -0.2297 -0.1132
 5607SOL     OW17504   0.725   5.657   6.128  0.0269 -0.1729 -0.1740
 5607SOL    HW117505   0.690   5.713   6.059 -1.9825 -1.7946 -0.5853
 5607SOL    HW217506   0.649   5.635   6.182  1.1838 -0.6310  1.3298
 5608SOL     OW17507   5.926   1.635   0.560 -0.3536 -0.0714 -0.1777
 5608SOL    HW117508   6.012   1.676   0.565 -0.1803 -0.4325 -0.2026
 5608SOL    HW217509   5.878   1.689   0.496 -0.2106  0.2392 -0.0251
 5609SOL     OW17510   2.293   5.063   0.843 -0.3250 -0.0400  0.3380
 5609SOL    HW117511   2.369   5.107   0.882  0.8932  1.1971 -3.0929
 5609SOL    HW217512   2.303   4.971   0.868  1.7441  0.2714  0.8135
 5610SOL     OW17513   1.650   0.522   2.233 -0.7991 -0.2500 -0.1013
 5610SOL    HW117514   1.692   0.448   2.275 -2.8902 -1.2746  0.2683
 5610SOL    HW217515   1.639   0.587   2.302 -0.4967 -0.2682 -0.0365
 5611SOL     OW17516   3.041   5.766   4.143 -0.4334 -0.2750 -0.1601
 5611SOL    HW117517   3.033   5.850   4.098  0.3066 -0.1217 -0.0315
 5611SOL    HW217518   3.047   5.789   4.235  2.2021 -0.2323 -0.2471
 5612SOL     OW17519   6.310   1.969   6.181  0.5705  0.4710 -0.3022
 5612SOL    HW117520   6.353   1.931   6.258  1.0555  2.9362  0.7252
 5612SOL    HW217521   6.381   2.009   6.131  0.4535 -2.0259 -2.7719
 5613SOL     OW17522   2.050   4.979   5.366 -0.2854  0.9765 -0.1183
 5613SOL    HW117523   2.044   5.019   5.280 -0.6752 -0.2903 -0.6977
 5613SOL    HW217524   1.973   5.012   5.414 -2.1147 -1.0647 -1.4704
 5614SOL     OW17525   3.611   4.666   2.141 -0.2834 -0.4759 -0.0081
 5614SOL    HW117526   3.698   4.634   2.117 -0.6784 -1.2410 -0.4550
 5614SOL    HW217527   3.563   4.587   2.168 -0.8556 -0.0677  0.1896
 5615SOL     OW17528   0.368   4.221   5.819 -0.0878 -0.1100  0.5392
 5615SOL    HW117529   0.284   4.266   5.808  1.0885  1.9798 -0.7503
 5615SOL    HW217530   0.427   4.289   5.853  1.6175 -0.8091 -0.8118
 5616SOL     OW17531   2.949   1.877   2.396 -0.2706  0.0201  0.1160
 5616SOL    HW117532   2.891   1.890   2.321 -0.8794  2.7467  0.9130
 5616SOL    HW217533   3.029   1.923   2.373  0.0270 -0.2383  0.6104
 5617SOL     OW17534   4.429   5.499   6.200  0.0019  0.0579 -0.1746
 5617SOL    HW117535   4.475   5.476   6.281  1.4271 -0.2711 -1.0472
 5617SOL    HW217536   4.352   5.442   6.199  1.0834 -1.4740 -0.0663
 5618SOL     OW17537   6.113   1.513   2.360 -0.7069 -0.2138 -0.6433
 5618SOL    HW117538   6.025   1.478   2.343 -1.4207  1.7086 -1.1084
 5618SOL    HW217539   6.128   1.575   2.289 -0.6543  2.4986  1.5953
 5619SOL     OW17540   2.823   6.225   0.737 -0.9270  1.1318  0.1384
 5619SOL    HW117541   2.752   6.250   0.678 -2.0064  1.1652  1.3906
 5619SOL    HW217542   2.826   6.130   0.733 -1.8056  1.0578  0.8917
 5620SOL     OW17543   6.329   6.858   6.012 -0.0451 -0.1045 -0.2707
 5620SOL    HW117544   6.236   6.874   5.996  0.2177  1.2882 -0.5301
 5620SOL    HW217545   6.372   6.881   5.930  0.8801  3.0316  0.9452
 5621SOL     OW17546   4.213   4.176   5.183  0.2749  0.0852  0.2181
 5621SOL    HW117547   4.228   4.174   5.089  1.0589  0.6147  0.3280
 5621SOL    HW217548   4.136   4.121   5.196 -0.9229  1.4178 -0.9243
 5622SOL     OW17549   3.824   5.169   1.864 -1.0649 -0.0616 -0.0560
 5622SOL    HW117550   3.747   5.202   1.817 -1.5181  0.9189  1.3377
 5622SOL    HW217551   3.798   5.083   1.896 -1.0754 -0.3364 -0.7832
 5623SOL     OW17552   2.744   0.892   5.991  0.7136  0.1953  0.6005
 5623SOL    HW117553   2.737   0.988   5.993  1.1070  0.2847 -0.7345
 5623SOL    HW217554   2.830   0.874   6.028  0.1281  0.2432  2.0513
 5624SOL     OW17555   1.478   1.835   5.303  0.5096 -0.0649  0.4005
 5624SOL    HW117556   1.497   1.767   5.367 -0.1971 -0.1726  0.5039
 5624SOL    HW217557   1.558   1.887   5.298  0.9980 -0.8134  0.4299
 5625SOL     OW17558   3.561   1.740   2.478  0.2860  0.1189 -0.1355
 5625SOL    HW117559   3.479   1.759   2.523 -0.5601 -0.2671 -1.4669
 5625SOL    HW217560   3.535   1.698   2.396  1.7703  0.7266 -0.9706
 5626SOL     OW17561   0.676   1.747   4.622  0.1510 -0.2401  0.0390
 5626SOL    HW117562   0.761   1.722   4.583  0.2822 -0.9599  0.7446
 5626SOL    HW217563   0.645   1.819   4.568  1.5297  0.4777  0.1597
 5627SOL     OW17564   5.010   2.834   2.174  0.1790  0.1750  0.2095
 5627SOL    HW117565   5.016   2.857   2.267 -0.7541  0.0164  0.3148
 5627SOL    HW217566   4.986   2.741   2.174 -4.5305  1.1482 -0.0555
 5628SOL     OW17567   5.252   6.588   0.569 -0.4431 -0.4944  0.1304
 5628SOL    HW117568   5.191   6.648   0.612 -0.1427  0.7616 -1.1117
 5628SOL    HW217569   5.338   6.610   0.607 -0.3285 -0.0819 -0.3472
 5629SOL     OW17570   4.826   4.937   6.313  0.3551 -0.0481  0.0086
 5629SOL    HW117571   4.748   4.929   6.258 -0.2418  1.5167  0.5717
 5629SOL    HW217572   4.802   4.895   6.395  0.2303  0.1170  0.0569
 5630SOL     OW17573   0.935   6.021   3.235 -0.1208  0.1462 -0.1904
 5630SOL    HW117574   0.897   5.995   3.319  0.8792  0.2153  0.3089
 5630SOL    HW217575   0.992   5.947   3.212  0.9677  0.8675  0.0892
 5631SOL     OW17576   0.005   1.336   0.624 -0.4250  0.8065 -0.0248
 5631SOL    HW117577   0.065   1.306   0.556  1.5744  1.9414  1.1363
 5631SOL    HW217578  -0.006   1.429   0.607  1.2773  1.4468  1.9343
 5632SOL     OW17579   1.930   0.808   0.535  0.1136 -0.0718  0.2250
 5632SOL    HW117580   1.859   0.744   0.531 -0.5204  0.6362 -2.3450
 5632SOL    HW217581   2.009   0.756   0.546 -0.6753 -0.9608  1.9949
 5633SOL     OW17582   2.747   6.418   2.494 -0.5656 -0.6275  0.0932
 5633SOL    HW117583   2.697   6.352   2.542 -2.7564  0.3226 -0.7119
 5633SOL    HW217584   2.712   6.414   2.405  1.6114 -0.6204 -0.8303
 5634SOL     OW17585   6.727   1.431   5.186  0.0498  0.1898  0.3997
 5634SOL    HW117586   6.684   1.378   5.119  0.0984  1.6057 -0.8076
 5634SOL    HW217587   6.690   1.519   5.173  1.6680  0.9475  0.7907
 5635SOL     OW17588   0.282   3.826   3.663  0.1799 -0.0439  0.0464
 5635SOL    HW117589   0.255   3.734   3.668  0.2876 -0.0584  0.4446
 5635SOL    HW217590   0.346   3.828   3.592  0.3998 -0.3355  0.2322
 5636SOL     OW17591   5.022   4.383   3.565  0.2592  0.2986 -0.1227
 5636SOL    HW117592   4.998   4.374   3.472  4.0053  1.9780 -1.4593
 5636SOL    HW217593   4.972   4.315   3.609 -1.4428 -0.8211 -3.4048
 5637SOL     OW17594   6.765   0.078   1.725 -0.5138  0.0912 -0.3888
 5637SOL    HW117595   6.835   0.082   1.660 -0.6464 -0.0128 -0.5384
 5637SOL    HW217596   6.704   0.012   1.692 -1.4881  1.2891 -1.0803
 5638SOL     OW17597   0.973   6.562   4.177  0.3062 -0.7078  0.0989
 5638SOL    HW117598   0.991   6.581   4.270  0.1014  0.0693 -0.0137
 5638SOL    HW217599   1.015   6.635   4.130 -1.6463  0.2268 -0.2722
 5639SOL     OW17600   0.195   1.089   6.249  0.3621 -0.3710  0.1697
 5639SOL    HW117601   0.161   1.000   6.248  1.3735 -0.7899 -2.1801
 5639SOL    HW217602   0.152   1.130   6.325  1.8930 -3.5817  3.0694
 5640SOL     OW17603   5.244   2.370   0.122  0.7251  0.0222 -0.2477
 5640SOL    HW117604   5.253   2.445   0.181 -2.8604  0.8699 -0.5520
 5640SOL    HW217605   5.268   2.404   0.036  0.4367  0.4438 -0.1658
 5641SOL     OW17606   4.311   5.665   0.504 -0.5908 -0.5161 -0.4450
 5641SOL    HW117607   4.335   5.718   0.428 -0.7962 -2.2800 -1.7952
 5641SOL    HW217608   4.361   5.704   0.577  2.9535 -1.2558 -2.2333
 5642SOL     OW17609   3.276   4.413   5.173  0.1853  0.2944  0.1157
 5642SOL    HW117610   3.199   4.453   5.133  0.2387  1.3466  1.0031
 5642SOL    HW217611   3.241   4.360   5.244  0.2449  0.2850  0.1380
 5643SOL     OW17612   0.062   0.706   4.562  0.2545 -0.0605 -0.0396
 5643SOL    HW117613   0.027   0.620   4.539  2.0059 -0.2712 -2.2535
 5643SOL    HW217614   0.025   0.765   4.496  0.1453  0.6616  0.6445
 5644SOL     OW17615   4.581   2.401   3.811  0.5496 -0.3004 -0.2830
 5644SOL    HW117616   4.552   2.387   3.901  0.2975  1.6038 -0.0299
 5644SOL    HW217617   4.623   2.487   3.812 -1.2331  0.7081 -2.3787
 5645SOL     OW17618   6.590   4.644   2.910 -0.2533 -0.2838 -0.0751
 5645SOL    HW117619   6.510   4.684   2.943  0.7959  0.6901  1.3811
 5645SOL    HW217620   6.624   4.593   2.983  1.5865  1.0713  0.0692
 5646SOL     OW17621   4.687   4.563   1.221 -0.1319 -0.2353  0.1260
 5646SOL    HW117622   4.758   4.522   1.271 -0.2021  1.1384  1.4284
 5646SOL    HW217623   4.723   4.576   1.134  0.4355 -1.5524  0.1400
 5647SOL     OW17624   6.370   3.813   5.446  0.3747 -0.5900 -0.2432
 5647SOL    HW117625   6.278   3.834   5.462  0.3906 -1.3169  0.9159
 5647SOL    HW217626   6.409   3.808   5.533  2.5008  3.6924 -0.6784
 5648SOL     OW17627   6.014   0.945   5.915 -0.4063  0.4713  0.2995
 5648SOL    HW117628   6.052   1.030   5.892 -0.7040  0.0067 -2.1660
 5648SOL    HW217629   6.086   0.883   5.905 -0.4859  0.2678  0.9402
 5649SOL     OW17630   4.398   5.340   4.906  0.1093 -0.5948 -0.1567
 5649SOL    HW117631   4.347   5.312   4.982  0.6988 -1.0530  0.0818
 5649SOL    HW217632   4.356   5.420   4.876 -0.4155 -0.6736  0.3643
 5650SOL     OW17633   0.788   6.528   4.512  0.1576  0.1138 -0.1976
 5650SOL    HW117634   0.814   6.439   4.486  2.0251  0.1709  1.2445
 5650SOL    HW217635   0.837   6.585   4.453  0.6279  0.1965  0.2688
 5651SOL     OW17636   3.942   0.557   1.274 -0.9124 -0.4163  0.0747
 5651SOL    HW117637   3.864   0.527   1.321 -0.2429 -2.3011  0.0906
 5651SOL    HW217638   3.918   0.551   1.182 -1.7363  1.8881  0.0741
 5652SOL     OW17639   4.919   2.083   4.282  0.2869 -0.2930  0.6741
 5652SOL    HW117640   5.000   2.113   4.324  0.7698 -0.7040  0.0617
 5652SOL    HW217641   4.949   2.035   4.205 -0.5819  2.1939 -1.3607
 5653SOL     OW17642   6.370   4.711   1.562 -0.3112 -0.4199 -0.2796
 5653SOL    HW117643   6.360   4.655   1.485  2.5049  0.0680 -1.1180
 5653SOL    HW217644   6.418   4.658   1.625 -0.0604  0.1288 -0.0016
 5654SOL     OW17645   3.458   5.022   0.846  0.2518  0.4174 -0.5961
 5654SOL    HW117646   3.461   5.095   0.785 -0.6655  0.4270 -0.6551
 5654SOL    HW217647   3.549   5.003   0.867  0.4757  2.9223  1.0520
 5655SOL     OW17648   0.352   5.881   0.631 -0.3649  1.2247  0.6931
 5655SOL    HW117649   0.386   5.941   0.564  0.4214  0.1980  0.1290
 5655SOL    HW217650   0.384   5.795   0.603 -0.0661  0.7609  2.3763
 5656SOL     OW17651   5.169   0.794   3.781  0.4459  0.0593 -0.7532
 5656SOL    HW117652   5.222   0.715   3.774  2.7404  1.5243 -1.0251
 5656SOL    HW217653   5.122   0.784   3.864  2.5220 -0.5657  0.4206
 5657SOL     OW17654   4.261   0.464   2.103  0.5729  0.2883  0.1896
 5657SOL    HW117655   4.312   0.535   2.141  0.6669 -1.3514  3.4650
 5657SOL    HW217656   4.312   0.385   2.121 -2.2703 -1.2509  2.2257
 5658SOL     OW17657   4.961   0.910   5.986 -0.0564  0.4861  0.2778
 5658SOL    HW117658   5.041   0.867   5.953  0.5955  1.2267  0.8517
 5658SOL    HW217659   4.962   0.893   6.080 -1.4913 -0.9420  0.0806
 5659SOL     OW17660   2.762   4.810   1.599 -0.5284 -0.0340  0.5757
 5659SOL    HW117661   2.699   4.875   1.633  0.0924  1.2799 -0.6731
 5659SOL    HW217662   2.707   4.739   1.566 -1.3300  0.6664  0.3579
 5660SOL     OW17663   3.960   4.689   5.984  0.3113 -0.1953 -0.1049
 5660SOL    HW117664   4.027   4.651   6.041 -1.1110 -1.5965  0.7082
 5660SOL    HW217665   3.887   4.710   6.043 -0.5245 -0.0406 -1.1530
 5661SOL     OW17666   6.547   4.433   2.701  0.0041 -0.0866  0.0279
 5661SOL    HW117667   6.568   4.506   2.760  1.6884 -1.9943  2.0006
 5661SOL    HW217668   6.614   4.438   2.632  0.8304 -0.3595  0.7834
 5662SOL     OW17669   6.112   4.636   2.200 -0.3880 -0.1656 -0.2838
 5662SOL    HW117670   6.096   4.705   2.263 -1.5650  0.3292 -1.0833
 5662SOL    HW217671   6.035   4.579   2.207  0.5276 -1.3812  0.3144
 5663SOL     OW17672   1.551   3.540   5.056 -0.2223  0.1963 -0.0014
 5663SOL    HW117673   1.491   3.468   5.075 -2.1960  1.7179 -0.1937
 5663SOL    HW217674   1.634   3.497   5.036 -1.1032 -1.9664  0.7263
 5664SOL     OW17675   1.404   2.351   5.420  0.3445  0.0384 -0.2228
 5664SOL    HW117676   1.366   2.279   5.370 -0.6250  1.3150 -1.3999
 5664SOL    HW217677   1.488   2.318   5.450 -0.4787 -1.9032  0.0894
 5665SOL     OW17678   2.330   0.820   3.030  0.1519  0.7459 -0.0251
 5665SOL    HW117679   2.240   0.844   3.006  0.0314  0.0444 -0.2914
 5665SOL    HW217680   2.362   0.770   2.955  0.0345 -0.8128  0.9322
 5666SOL     OW17681   3.485   1.955   3.453  0.4759  0.3354 -0.5307
 5666SOL    HW117682   3.527   1.881   3.409 -0.2270  0.4655 -1.4589
 5666SOL    HW217683   3.446   2.006   3.382 -1.6272 -0.0152  0.3058
 5667SOL     OW17684   1.164   4.384   6.253 -0.3501  0.5044 -0.2527
 5667SOL    HW117685   1.076   4.363   6.285 -0.8612  2.6284 -0.0709
 5667SOL    HW217686   1.159   4.371   6.158 -0.8779  0.6286 -0.2468
 5668SOL     OW17687   2.798   5.153   3.616  0.2547 -0.1571  1.1459
 5668SOL    HW117688   2.808   5.076   3.561  1.6682  0.6363  0.2359
 5668SOL    HW217689   2.888   5.183   3.632 -0.2820  1.5362  1.1414
 5669SOL     OW17690   2.777   3.836   4.997  0.4233  0.7224 -0.0361
 5669SOL    HW117691   2.794   3.857   5.089  1.7536  0.2876 -0.1709
 5669SOL    HW217692   2.818   3.907   4.948 -0.2286  0.9206 -0.3132
 5670SOL     OW17693   5.358   0.423   1.150 -0.0887 -0.1473  0.3545
 5670SOL    HW117694   5.405   0.455   1.074  0.4653 -0.8172  0.4063
 5670SOL    HW217695   5.292   0.490   1.168  1.9180  1.6925  1.3099
 5671SOL     OW17696   4.470   1.448   2.303 -0.1323 -0.1983  0.3696
 5671SOL    HW117697   4.407   1.520   2.298  2.1925  2.1415  1.7528
 5671SOL    HW217698   4.468   1.420   2.395 -1.1377 -2.1234 -0.1855
 5672SOL     OW17699   4.395   3.819   4.568  0.2179  0.1848  0.0500
 5672SOL    HW117700   4.300   3.812   4.563  0.0715  2.1085 -0.5448
 5672SOL    HW217701   4.418   3.888   4.506  2.0262 -0.3483  0.0639
 5673SOL     OW17702   4.140   2.470   1.134 -0.1818  0.6615  0.6537
 5673SOL    HW117703   4.171   2.498   1.220  0.1275 -0.8446  1.0560
 5673SOL    HW217704   4.069   2.410   1.151 -2.0081  2.4396 -0.2423
 5674SOL     OW17705   0.751   6.381   1.560 -0.1820  0.3115 -0.0822
 5674SOL    HW117706   0.827   6.439   1.564  0.9087 -1.0474 -0.2861
 5674SOL    HW217707   0.711   6.400   1.475  0.7457  0.0957 -0.5848
 5675SOL     OW17708   1.670   5.700   6.652 -0.0351 -0.3935 -0.5268
 5675SOL    HW117709   1.589   5.656   6.678 -0.2727  0.2172 -0.1886
 5675SOL    HW217710   1.727   5.631   6.620 -0.5754 -0.8735 -0.4580
 5676SOL     OW17711   2.971   6.686   0.229 -0.2566  0.3741 -0.2719
 5676SOL    HW117712   2.975   6.614   0.291 -0.2738  0.0244 -0.6733
 5676SOL    HW217713   3.046   6.672   0.171 -0.6434  0.2974 -0.7599
 5677SOL     OW17714   5.286   6.542   2.215 -0.0412  0.2855 -0.0399
 5677SOL    HW117715   5.375   6.518   2.240 -0.5516 -3.0203 -0.8341
 5677SOL    HW217716   5.291   6.559   2.121 -0.1537  0.6898  0.0265
 5678SOL     OW17717   0.757   4.468   1.603 -0.1142 -0.7321 -0.0925
 5678SOL    HW117718   0.826   4.401   1.608  0.9604  0.3614  0.2137
 5678SOL    HW217719   0.757   4.509   1.689  0.7975  1.1412 -0.9374
 5679SOL     OW17720   3.028   2.311   5.458  0.3281  0.4842  0.2178
 5679SOL    HW117721   2.933   2.312   5.457  0.2925 -0.7887  0.8628
 5679SOL    HW217722   3.053   2.403   5.468 -0.7839  1.0383 -1.6007
 5680SOL     OW17723   3.174   3.816   4.414  0.2453  0.1066  0.0045
 5680SOL    HW117724   3.126   3.743   4.376  0.1162  0.3867 -0.3783
 5680SOL    HW217725   3.261   3.810   4.375  0.2883  0.0498  0.1103
 5681SOL     OW17726   4.676   5.351   0.052  0.9564 -0.0345  0.1537
 5681SOL    HW117727   4.689   5.444   0.071 -1.3376  0.2982  0.3237
 5681SOL    HW217728   4.719   5.337  -0.032 -2.2611  2.2692 -2.0851
 5682SOL     OW17729   3.697   4.729   4.086  0.2646 -0.2324  0.0507
 5682SOL    HW117730   3.711   4.799   4.023 -0.6345  1.0421  1.1967
 5682SOL    HW217731   3.682   4.651   4.033  2.2934  0.1960 -1.2489
 5683SOL     OW17732   0.740   3.355   1.178  0.2028  0.3949 -0.1426
 5683SOL    HW117733   0.741   3.446   1.207  1.8267  0.3501  0.0139
 5683SOL    HW217734   0.738   3.304   1.259  1.7248  0.2948 -0.1407
 5684SOL     OW17735   1.419   6.277   1.769  0.0117  0.6221  0.0954
 5684SOL    HW117736   1.435   6.208   1.834 -0.7006 -0.0399 -0.4165
 5684SOL    HW217737   1.455   6.243   1.688 -0.3868  0.8221 -0.1718
 5685SOL     OW17738   6.583   2.242   2.986 -1.0020 -0.2850  0.3667
 5685SOL    HW117739   6.503   2.294   2.994 -0.5782  0.2444  1.2974
 5685SOL    HW217740   6.634   2.265   3.063 -0.6664 -1.8689  0.6471
 5686SOL     OW17741   2.449   5.255   4.114  0.3040 -0.3766 -0.1392
 5686SOL    HW117742   2.484   5.305   4.040  0.7566  0.6714  0.7498
 5686SOL    HW217743   2.507   5.180   4.122 -0.3905 -1.1101 -1.5039
 5687SOL     OW17744   1.023   1.372   0.109  0.3980 -0.8206  0.0018
 5687SOL    HW117745   1.027   1.430   0.033 -1.6288 -2.5327 -1.5607
 5687SOL    HW217746   1.012   1.430   0.184 -1.9698  0.8691 -1.5180
 5688SOL     OW17747   5.129   0.179   4.939 -0.6746  0.6870  0.1842
 5688SOL    HW117748   5.039   0.163   4.969 -0.3052 -1.4224  0.3150
 5688SOL    HW217749   5.149   0.104   4.882  1.4900  0.3309  1.3236
 5689SOL     OW17750   5.869   0.012   6.180 -0.0773 -0.7276  0.7095
 5689SOL    HW117751   5.813   0.022   6.257  1.2548  4.5240  1.3941
 5689SOL    HW217752   5.813   0.036   6.106  0.4420  2.1041  1.1234
 5690SOL     OW17753   4.474   0.206   0.659  0.2097  0.0756  0.4569
 5690SOL    HW117754   4.472   0.214   0.564 -0.1893  0.9018  0.5323
 5690SOL    HW217755   4.393   0.160   0.681  0.0800  0.3014  0.4421
 5691SOL     OW17756   1.178   6.104   6.402 -0.2295  0.1536 -0.0505
 5691SOL    HW117757   1.185   6.184   6.350  0.6568 -0.7995 -1.4679
 5691SOL    HW217758   1.257   6.103   6.455 -0.7335  0.7050  0.7377
 5692SOL     OW17759   2.352   4.895   5.248 -0.0870  0.3771 -0.0359
 5692SOL    HW117760   2.331   4.830   5.181  0.5740  0.6179 -0.4822
 5692SOL    HW217761   2.408   4.848   5.310 -0.1353  0.3415 -0.0196
 5693SOL     OW17762   0.000   2.847   2.788  0.5058 -0.1210 -0.0631
 5693SOL    HW117763  -0.041   2.874   2.870  0.4048 -1.6385  0.4251
 5693SOL    HW217764   0.053   2.922   2.761 -0.0250  0.6598  1.0163
 5694SOL     OW17765   4.162   0.774   1.164 -0.3866  0.2766 -0.0137
 5694SOL    HW117766   4.103   0.706   1.133 -0.5240  1.0534 -1.5591
 5694SOL    HW217767   4.145   0.780   1.258 -1.1667 -1.0347 -0.0520
 5695SOL     OW17768   2.232   1.837   3.707 -0.1205  0.6474 -0.1328
 5695SOL    HW117769   2.213   1.927   3.681  0.7662  1.3762  1.5785
 5695SOL    HW217770   2.303   1.809   3.650 -0.6829  0.8591 -0.9572
 5696SOL     OW17771   2.653   0.805   4.740  0.4680  0.8677  0.3350
 5696SOL    HW117772   2.580   0.852   4.781  1.1760  3.1442 -0.8446
 5696SOL    HW217773   2.696   0.759   4.812 -1.9496 -0.3732  1.1048
 5697SOL     OW17774   1.944   5.095   2.654 -0.4467 -0.2626 -0.4027
 5697SOL    HW117775   1.945   5.094   2.559  2.7011  0.1983 -0.4706
 5697SOL    HW217776   1.988   5.014   2.680  2.2739  1.3467  0.4626
 5698SOL     OW17777   1.565   5.536   1.685  0.1269 -0.3071  0.7568
 5698SOL    HW117778   1.563   5.606   1.751 -0.2113 -0.2015  0.6381
 5698SOL    HW217779   1.523   5.575   1.609  1.1667 -0.1858  0.2369
 5699SOL     OW17780   3.741   2.013   2.216 -0.0466  0.3677  0.0758
 5699SOL    HW117781   3.830   2.036   2.242  0.2045  1.1383 -1.3518
 5699SOL    HW217782   3.733   1.920   2.237  1.5551 -0.0285 -0.9190
 5700SOL     OW17783   3.121   2.038   4.384  0.1597  0.0576  0.1791
 5700SOL    HW117784   3.198   2.083   4.419 -0.6605 -0.3439  2.7040
 5700SOL    HW217785   3.112   1.961   4.439 -2.0653  0.1285 -0.0152
 5701SOL     OW17786   2.179   1.609   0.067 -0.2372  0.0057 -0.5324
 5701SOL    HW117787   2.101   1.579   0.114 -0.9756 -0.7387 -2.1830
 5701SOL    HW217788   2.237   1.534   0.067  1.5100  1.1451  2.5402
 5702SOL     OW17789   4.806   0.854   2.568 -0.1770 -0.4012 -0.2429
 5702SOL    HW117790   4.809   0.799   2.490 -1.2677 -0.5768 -0.1753
 5702SOL    HW217791   4.844   0.800   2.637 -1.2957 -1.1201 -0.1622
 5703SOL     OW17792   3.657   5.305   5.493 -0.7283  0.0660  0.6393
 5703SOL    HW117793   3.743   5.320   5.533 -0.6694  3.9883 -0.5804
 5703SOL    HW217794   3.675   5.291   5.400 -1.3674  1.6872  0.2355
 5704SOL     OW17795   5.235   2.994   2.103 -0.1558 -0.2369  0.0744
 5704SOL    HW117796   5.162   2.932   2.106  0.1166 -0.7891 -2.3838
 5704SOL    HW217797   5.311   2.944   2.131 -0.2001 -0.5764 -0.4076
 5705SOL     OW17798   0.911   3.928   1.596 -0.2085 -0.0898  0.3576
 5705SOL    HW117799   0.875   3.981   1.667  0.4438 -0.1118  0.7179
 5705SOL    HW217800   0.843   3.927   1.530 -1.5793 -1.5790  1.7213
 5706SOL     OW17801   0.729   4.058   5.547 -0.1265  0.2694 -0.1864
 5706SOL    HW117802   0.794   4.062   5.618 -0.2669 -1.3244  0.0640
 5706SOL    HW217803   0.676   4.137   5.559  1.0902  1.0562  0.2474
 5707SOL     OW17804   0.076   4.471   1.542 -0.1241  0.0972 -0.1019
 5707SOL    HW117805   0.098   4.449   1.632  1.4556  2.7166  0.2573
 5707SOL    HW217806  -0.014   4.506   1.547 -0.6290 -1.1734  0.1483
 5708SOL     OW17807   6.715   4.616   6.468 -0.4201 -0.1982 -0.4167
 5708SOL    HW117808   6.697   4.701   6.508  0.4543  0.9592 -2.3353
 5708SOL    HW217809   6.639   4.598   6.414 -0.8828 -0.9665  0.4686
 5709SOL     OW17810   1.326   4.420   5.831  0.2344  0.6231 -0.1223
 5709SOL    HW117811   1.318   4.342   5.885 -0.7564  0.7648 -0.0525
 5709SOL    HW217812   1.281   4.488   5.880 -0.5162  0.8026 -1.0223
 5710SOL     OW17813   1.936   2.877   2.067 -0.3196 -0.3587  0.0994
 5710SOL    HW117814   1.864   2.932   2.096 -1.2657 -1.3478 -0.3259
 5710SOL    HW217815   2.014   2.932   2.078 -1.1966  0.9546 -0.0458
 5711SOL     OW17816   4.844   2.201   3.888 -0.1094 -0.4980 -0.3194
 5711SOL    HW117817   4.771   2.227   3.831 -0.2294 -0.0246  0.0434
 5711SOL    HW217818   4.843   2.265   3.959  0.7412 -0.4075 -0.3795
 5712SOL     OW17819   3.416   0.317   3.390 -0.0463 -0.7219 -0.3134
 5712SOL    HW117820   3.450   0.359   3.469 -0.1315 -2.1576  0.5281
 5712SOL    HW217821   3.486   0.326   3.326 -0.4211  1.4923 -0.4951
 5713SOL     OW17822   2.995   1.054   2.263  0.4170  0.0604  0.8035
 5713SOL    HW117823   3.071   1.002   2.237  0.7730  0.0825  1.7357
 5713SOL    HW217824   2.924   0.990   2.269  0.0743  0.2096 -1.1200
 5714SOL     OW17825   5.683   5.744   6.739 -0.4393  0.0446  0.1039
 5714SOL    HW117826   5.666   5.789   6.822  0.1977 -0.0744  0.3007
 5714SOL    HW217827   5.640   5.658   6.749  0.5873 -0.4073  0.7505
 5715SOL     OW17828   0.924   2.573   6.856  0.5483  0.3073 -0.1649
 5715SOL    HW117829   0.930   2.662   6.891  3.9090 -0.6077  2.0514
 5715SOL    HW217830   0.977   2.520   6.915  1.1836 -2.6697 -3.1014
 5716SOL     OW17831   6.106   3.866   3.240 -0.7525  0.1151  0.4882
 5716SOL    HW117832   6.109   3.811   3.318 -2.1633 -0.6195  0.0662
 5716SOL    HW217833   6.088   3.954   3.273 -1.5989 -0.2363  0.9921
 5717SOL     OW17834   0.444   5.041   4.088 -0.0546 -0.3875 -0.2950
 5717SOL    HW117835   0.420   5.077   4.002 -1.6995  0.9455  0.6656
 5717SOL    HW217836   0.533   5.074   4.103 -0.1522  0.2553 -1.0228
 5718SOL     OW17837   4.114   3.243   4.312 -0.1701  0.0022  0.1095
 5718SOL    HW117838   4.166   3.232   4.392  0.0189 -1.3663 -0.1734
 5718SOL    HW217839   4.126   3.160   4.265 -3.7063 -0.9986  0.6729
 5719SOL     OW17840   4.559   6.144   1.007  0.4312 -0.6033 -0.1129
 5719SOL    HW117841   4.491   6.190   1.056  0.1628 -2.7839  1.7318
 5719SOL    HW217842   4.595   6.210   0.948  0.5603  2.1587  2.7913
 5720SOL     OW17843   6.359   2.741   6.176  0.2536 -0.2908  0.4905
 5720SOL    HW117844   6.444   2.772   6.145  0.5260  0.0881  1.5801
 5720SOL    HW217845   6.307   2.821   6.187 -1.1572 -0.6283 -2.5746
 5721SOL     OW17846   4.274   1.899   4.237 -0.0077 -0.3228  0.0898
 5721SOL    HW117847   4.187   1.860   4.247 -0.7243  0.5972 -1.9563
 5721SOL    HW217848   4.283   1.957   4.313 -0.3686 -1.7684  1.3001
 5722SOL     OW17849   0.479   3.766   6.623 -0.6121  0.1126 -0.2204
 5722SOL    HW117850   0.440   3.841   6.667 -0.8435 -0.6607  0.9302
 5722SOL    HW217851   0.474   3.695   6.687  0.8940 -0.5169 -0.7513
 5723SOL     OW17852   4.417   6.865   3.315  0.2032 -0.8480  0.3948
 5723SOL    HW117853   4.506   6.831   3.319  0.2618 -0.8984 -0.9149
 5723SOL    HW217854   4.393   6.860   3.223 -0.1943  1.6019  0.2755
 5724SOL     OW17855   4.505   2.015   2.742  0.6694 -0.0695 -0.0232
 5724SOL    HW117856   4.534   2.057   2.823 -0.1879  1.4175 -0.4432
 5724SOL    HW217857   4.552   1.931   2.740  0.4238 -0.3213  2.1765
 5725SOL     OW17858   0.733   1.901   0.734 -0.0089  0.1449 -0.3072
 5725SOL    HW117859   0.823   1.901   0.701 -0.2324  0.7687 -0.9478
 5725SOL    HW217860   0.720   1.814   0.770  1.3531  0.5123  1.1694
 5726SOL     OW17861   3.468   3.267   2.329 -0.1272  0.6081 -0.7850
 5726SOL    HW117862   3.503   3.179   2.344  0.7431  1.0995  0.2472
 5726SOL    HW217863   3.458   3.273   2.234 -2.3102 -1.3696 -0.7747
 5727SOL     OW17864   6.035   4.505   5.946  0.1230  0.2318  0.2548
 5727SOL    HW117865   6.082   4.488   6.028  2.0079 -0.9040 -1.0074
 5727SOL    HW217866   6.103   4.529   5.884 -1.2915  1.2003 -1.0008
 5728SOL     OW17867   4.530   6.057   6.653  0.1699  0.4712  0.1781
 5728SOL    HW117868   4.605   6.082   6.707 -0.3137  2.0145  0.1719
 5728SOL    HW217869   4.458   6.046   6.716 -0.0560  0.9039  0.0009
 5729SOL     OW17870   6.363   0.597   6.871  0.5268  0.0044 -0.2184
 5729SOL    HW117871   6.424   0.630   6.805  0.1137  0.1645 -0.5251
 5729SOL    HW217872   6.302   0.670   6.886 -1.6020 -1.1915 -2.3231
 5730SOL     OW17873   4.260   0.943   3.720  0.3662  0.1917  0.0527
 5730SOL    HW117874   4.261   1.028   3.766  1.2458  0.8037 -1.0516
 5730SOL    HW217875   4.278   0.879   3.789 -1.1863  0.7895  1.0751
 5731SOL     OW17876   5.643   5.362   3.971  0.5909  0.0557  0.0357
 5731SOL    HW117877   5.703   5.412   4.025  1.5676 -0.6123 -0.3975
 5731SOL    HW217878   5.699   5.318   3.906 -0.1903 -1.6725  0.4550
 5732SOL     OW17879   0.453   3.836   1.886 -0.3205  0.1120  0.2013
 5732SOL    HW117880   0.530   3.879   1.924 -0.0944  1.7408 -1.9002
 5732SOL    HW217881   0.417   3.783   1.957  2.5827 -0.5136  1.3228
 5733SOL     OW17882   6.866   3.070   3.338  0.2264 -0.4002  0.4228
 5733SOL    HW117883   6.873   3.083   3.432 -3.0375 -1.2025  0.8754
 5733SOL    HW217884   6.794   3.126   3.311  1.5351  0.3510 -1.7958
 5734SOL     OW17885   6.845   1.605   0.585  0.0048 -0.3924  0.2653
 5734SOL    HW117886   6.764   1.640   0.549  0.5182  0.3591 -0.1711
 5734SOL    HW217887   6.858   1.654   0.666 -1.5898 -2.6378  2.0456
 5735SOL     OW17888   2.601   5.038   6.755  0.1012 -0.2431 -0.1793
 5735SOL    HW117889   2.567   5.127   6.752 -0.6727 -0.5422 -1.0918
 5735SOL    HW217890   2.573   5.004   6.840  1.6397  0.8257  0.7959
 5736SOL     OW17891   0.755   3.164   1.658 -0.4530  0.9343  0.6788
 5736SOL    HW117892   0.719   3.075   1.656 -2.6772  1.7502  1.2096
 5736SOL    HW217893   0.830   3.158   1.717  0.6253 -0.9307 -0.7387
 5737SOL     OW17894   2.913   1.002   2.673 -0.7640 -0.0254 -0.7399
 5737SOL    HW117895   2.933   0.923   2.722  1.6685  1.1396  0.3446
 5737SOL    HW217896   2.821   0.994   2.650 -0.8795 -2.6067  0.3139
 5738SOL     OW17897   1.988   4.768   2.608  0.1251 -0.8164  0.1146
 5738SOL    HW117898   1.896   4.762   2.579 -0.3211 -1.5333  1.6162
 5738SOL    HW217899   2.029   4.826   2.543 -1.9734  1.6284  0.8144
 5739SOL     OW17900   1.303   2.185   6.341  0.3249  0.3579 -0.0392
 5739SOL    HW117901   1.283   2.111   6.284  0.3272 -1.1491  1.8340
 5739SOL    HW217902   1.240   2.253   6.316  1.0560  0.2333 -2.5779
 5740SOL     OW17903   6.831   1.667   4.595 -0.7396  0.0024  0.3685
 5740SOL    HW117904   6.751   1.680   4.544 -0.0837 -0.0262 -0.7053
 5740SOL    HW217905   6.824   1.728   4.668 -1.0547  1.0829 -0.5411
 5741SOL     OW17906   2.895   4.133   4.564 -0.0367 -0.1153 -0.2238
 5741SOL    HW117907   2.891   4.122   4.469  0.9372 -0.6350 -0.2202
 5741SOL    HW217908   2.981   4.100   4.589  0.9012  2.5878  0.5020
 5742SOL     OW17909   4.671   6.894   6.833 -0.0207 -0.3749 -0.1979
 5742SOL    HW117910   4.759   6.914   6.863 -0.1675  0.8580 -0.5330
 5742SOL    HW217911   4.630   6.980   6.819 -1.4471 -0.9025  0.4646
 5743SOL     OW17912   0.328   3.192   0.954 -0.2653 -0.5427 -0.0125
 5743SOL    HW117913   0.313   3.279   0.919  1.0659 -0.8590 -1.4885
 5743SOL    HW217914   0.396   3.204   1.021  0.2233 -0.4972 -0.5135
 5744SOL     OW17915   3.407   2.342   3.740  0.7221 -0.2622 -0.3324
 5744SOL    HW117916   3.457   2.273   3.697  1.2878  0.1031 -0.2605
 5744SOL    HW217917   3.472   2.405   3.770  0.1726  0.7791 -1.2164
 5745SOL     OW17918   4.346   1.084   6.827 -0.0662 -0.4184 -0.2153
 5745SOL    HW117919   4.402   1.086   6.748  1.9454  1.3599  1.1460
 5745SOL    HW217920   4.383   1.013   6.880  0.6280  0.4414  0.4744
 5746SOL     OW17921   2.374   2.059   2.354  0.2112  0.0668  0.2482
 5746SOL    HW117922   2.398   2.058   2.262 -0.3415 -1.7136  0.0878
 5746SOL    HW217923   2.285   2.024   2.356  0.1194  0.3352  1.4262
 5747SOL     OW17924   2.214   0.358   3.790  0.4145  0.5396  1.1350
 5747SOL    HW117925   2.221   0.270   3.752 -2.1829  0.4732  0.6636
 5747SOL    HW217926   2.229   0.417   3.716  1.6763  0.5298  1.3563
 5748SOL     OW17927   4.404   2.118   6.857  0.6248 -0.0836 -0.5802
 5748SOL    HW117928   4.326   2.136   6.911  1.3032 -2.0955  1.2326
 5748SOL    HW217929   4.450   2.202   6.853 -0.2926  0.5113  0.6109
 5749SOL     OW17930   5.311   6.446   1.222 -0.1929  0.7063 -0.4119
 5749SOL    HW117931   5.316   6.450   1.126 -1.3873 -0.6339 -0.5665
 5749SOL    HW217932   5.402   6.441   1.250  0.1536  0.3808 -1.5219
 5750SOL     OW17933   1.959   1.180   2.471  0.6033 -0.1395  0.4042
 5750SOL    HW117934   1.957   1.139   2.557  0.8308 -0.7562  0.1239
 5750SOL    HW217935   1.881   1.236   2.469 -0.2407 -1.2738  0.4644
 5751SOL     OW17936   4.432   0.031   1.034  0.2543 -0.5388 -0.1735
 5751SOL    HW117937   4.339   0.037   1.011  0.0115 -0.0104  0.9117
 5751SOL    HW217938   4.453   0.117   1.070  1.0709 -0.7858 -0.0504
 5752SOL     OW17939   5.321   4.956   6.038 -0.0357  0.3230 -0.4468
 5752SOL    HW117940   5.294   4.947   5.947 -0.4924  1.4484 -0.4362
 5752SOL    HW217941   5.239   4.964   6.087  0.2254  0.6743 -0.0555
 5753SOL     OW17942   1.616   3.664   5.788 -0.4280 -0.9323  0.0392
 5753SOL    HW117943   1.635   3.708   5.871  0.8718  1.8771 -1.5811
 5753SOL    HW217944   1.626   3.571   5.807  0.2360 -0.3741  2.9121
 5754SOL     OW17945   5.544   6.640   3.206  0.4596 -0.1494 -0.2682
 5754SOL    HW117946   5.475   6.643   3.272  0.3969 -1.4194 -0.2469
 5754SOL    HW217947   5.624   6.659   3.255  0.1162  1.7824 -0.3753
 5755SOL     OW17948   4.367   0.118   2.920  0.0446  0.0925 -0.5351
 5755SOL    HW117949   4.434   0.114   2.852  0.3412  1.2827 -0.3365
 5755SOL    HW217950   4.383   0.201   2.965 -0.0806 -0.7000  1.0618
 5756SOL     OW17951   4.458   1.286   1.834  0.0976  0.0538 -0.1159
 5756SOL    HW117952   4.496   1.350   1.774 -0.3486 -1.1001 -1.6817
 5756SOL    HW217953   4.532   1.231   1.860  0.4505  1.0336  1.1052
 5757SOL     OW17954   2.068   0.222   0.331  0.0535 -0.0580  0.5148
 5757SOL    HW117955   2.062   0.154   0.398 -0.7159 -0.8061 -0.2852
 5757SOL    HW217956   1.992   0.278   0.347  0.9242  0.9047  1.4474
 5758SOL     OW17957   3.617   0.854   3.722  0.0436  0.4156 -0.0668
 5758SOL    HW117958   3.648   0.790   3.657  0.0005 -0.9312  1.1730
 5758SOL    HW217959   3.666   0.934   3.703  0.2255 -0.0214 -1.5702
 5759SOL     OW17960   6.684   5.116   4.213  0.7702  0.1027 -0.2224
 5759SOL    HW117961   6.695   5.073   4.298 -0.3101  0.2633  0.0172
 5759SOL    HW217962   6.738   5.195   4.219  0.1333  0.4899  0.5995
 5760SOL     OW17963   1.293   4.587   5.236 -0.1690 -0.2637 -0.5253
 5760SOL    HW117964   1.369   4.570   5.180 -0.1390 -1.8933 -0.0220
 5760SOL    HW217965   1.245   4.505   5.237 -1.3685  0.4162  0.0682
 5761SOL     OW17966   2.082   4.161   5.204  0.0824 -0.5733  0.1167
 5761SOL    HW117967   1.995   4.158   5.165 -0.0422  2.8967 -0.2272
 5761SOL    HW217968   2.066   4.161   5.298 -0.4503  1.0503  0.0625
 5762SOL     OW17969   5.570   6.775   3.509 -0.4650 -0.1739  0.1744
 5762SOL    HW117970   5.660   6.808   3.510 -1.4081  2.7572 -0.5454
 5762SOL    HW217971   5.522   6.836   3.566 -1.7893 -2.6375  1.9096
 5763SOL     OW17972   6.336   4.317   6.826  0.0055  0.5142 -0.1407
 5763SOL    HW117973   6.424   4.304   6.792 -0.4584  1.9901 -2.1104
 5763SOL    HW217974   6.304   4.228   6.844  2.2685  0.0204  1.8003
 5764SOL     OW17975   6.373   0.856   0.728 -0.2508  0.2949 -0.3413
 5764SOL    HW117976   6.342   0.890   0.644  0.5157  1.0730 -0.3236
 5764SOL    HW217977   6.303   0.878   0.790 -0.7341 -0.1174 -0.7341
 5765SOL     OW17978   5.414   2.525   6.830  0.3104 -0.1130  0.1390
 5765SOL    HW117979   5.424   2.585   6.903  0.9396  0.4994 -0.4302
 5765SOL    HW217980   5.501   2.488   6.816 -0.5020 -3.1082  2.0486
 5766SOL     OW17981   5.883   1.227   6.871 -0.5067  0.4693 -0.6389
 5766SOL    HW117982   5.843   1.313   6.877  0.7024  0.9874  0.2142
 5766SOL    HW217983   5.865   1.198   6.781 -2.2270  0.9322 -0.4648
 5767SOL     OW17984   0.928   0.136   4.441 -0.0861 -0.0435 -0.4832
 5767SOL    HW117985   0.872   0.062   4.419 -1.2948  1.2227 -1.8354
 5767SOL    HW217986   0.872   0.213   4.431  1.1347  1.0889  0.8744
 5768SOL     OW17987   3.935   6.645   3.978  0.1836 -0.2001  0.5401
 5768SOL    HW117988   3.976   6.710   4.035 -0.2348 -0.2669  0.9202
 5768SOL    HW217989   3.980   6.563   3.999  0.8674 -0.0077 -0.0986
 5769SOL     OW17990   3.114   0.490   2.664  0.1537  0.2453  0.1726
 5769SOL    HW117991   3.167   0.567   2.644 -1.2105  1.7537  2.0020
 5769SOL    HW217992   3.103   0.445   2.580  0.3855  2.4523 -1.0975
 5770SOL     OW17993   1.885   3.276   0.450 -0.5534 -0.1720  0.1926
 5770SOL    HW117994   1.962   3.332   0.452 -0.5983 -0.1134  0.3334
 5770SOL    HW217995   1.876   3.250   0.358 -0.3751 -0.1681  0.1744
 5771SOL     OW17996   3.826   3.276   5.394  0.0272  0.3159 -0.5303
 5771SOL    HW117997   3.821   3.181   5.392  1.7508  0.0879  1.8524
 5771SOL    HW217998   3.740   3.306   5.365 -0.7061 -1.9542 -0.8653
 5772SOL     OW17999   2.342   5.626   1.822 -0.5590 -0.3068  0.6351
 5772SOL    HW118000   2.388   5.607   1.740  0.3270 -2.4389  1.5655
 5772SOL    HW218001   2.254   5.589   1.809 -1.0094  0.8713  0.0786
 5773SOL     OW18002   4.666   1.035   4.537  0.1305 -0.4486  0.2107
 5773SOL    HW118003   4.720   0.967   4.497 -0.5576 -1.6575  1.2695
 5773SOL    HW218004   4.604   1.060   4.469  0.5391 -0.7015 -0.2605
 5774SOL     OW18005   4.370   6.238   1.519  0.1747  0.1340  0.1269
 5774SOL    HW118006   4.324   6.200   1.444  1.1820 -1.7491  0.3996
 5774SOL    HW218007   4.301   6.258   1.582 -0.4279 -1.5211  0.0545
 5775SOL     OW18008   5.081   1.830   2.417  0.1671 -0.3525  0.4837
 5775SOL    HW118009   5.028   1.894   2.463  0.6313  0.3127  0.0983
 5775SOL    HW218010   5.040   1.822   2.331  0.6842  0.1595  0.1870
 5776SOL     OW18011   4.519   5.961   5.635 -0.1767  0.0479  0.3674
 5776SOL    HW118012   4.533   5.973   5.729  1.0542 -0.3651  0.2499
 5776SOL    HW218013   4.505   6.050   5.602  1.0627  0.3841  0.6983
 5777SOL     OW18014   4.133   1.266   6.887  0.2088  0.5835  0.0438
 5777SOL    HW118015   4.207   1.207   6.898  0.8056  1.3313  0.1588
 5777SOL    HW218016   4.059   1.221   6.929  0.2531 -0.7961 -1.3114
 5778SOL     OW18017   5.878   6.443   5.509  0.5093  0.1517 -1.0330
 5778SOL    HW118018   5.874   6.504   5.435 -1.3336  0.3383 -0.8312
 5778SOL    HW218019   5.898   6.498   5.585 -0.5533  0.4549 -0.9494
 5779SOL     OW18020   2.219   4.114   4.979  0.3149 -1.0009  0.2713
 5779SOL    HW118021   2.209   4.208   4.966 -0.3096 -0.8099  1.8664
 5779SOL    HW218022   2.185   4.098   5.067 -0.3094 -2.8441 -0.2513
 5780SOL     OW18023   4.870   4.017   2.774  0.2076 -0.6907  0.5129
 5780SOL    HW118024   4.811   4.069   2.719  0.5941  0.3169  1.0199
 5780SOL    HW218025   4.870   3.930   2.734  0.8907  0.1318 -1.3770
 5781SOL     OW18026   0.380   4.360   0.421 -0.3709 -0.1673 -0.1487
 5781SOL    HW118027   0.376   4.304   0.498 -0.4343  0.8127  0.5830
 5781SOL    HW218028   0.433   4.311   0.358 -0.2662 -0.9506  0.5381
 5782SOL     OW18029   3.533   1.004   0.666 -0.1082  0.2677 -0.6729
 5782SOL    HW118030   3.600   1.059   0.624 -1.6089  1.5923 -1.4631
 5782SOL    HW218031   3.481   1.066   0.718  1.1892 -1.1959  2.6569
 5783SOL     OW18032   2.202   2.431   0.700 -0.2623 -0.0499 -0.9901
 5783SOL    HW118033   2.273   2.478   0.658  1.0855 -0.8023  0.3674
 5783SOL    HW218034   2.133   2.497   0.713  1.0460  1.2410 -0.3557
 5784SOL     OW18035   3.519   6.436   0.287 -0.1508  0.1562 -0.7501
 5784SOL    HW118036   3.540   6.409   0.198  1.6754  0.1266 -0.3533
 5784SOL    HW218037   3.599   6.478   0.319 -0.7976  0.2543  0.8509
 5785SOL     OW18038   3.885   0.957   2.112  0.0615 -0.5427 -0.4782
 5785SOL    HW118039   3.947   0.898   2.155  1.3097  1.8917  1.2764
 5785SOL    HW218040   3.935   0.997   2.042  0.4062  1.0770  0.6433
 5786SOL     OW18041   0.384   6.597   6.882 -0.2928  0.3134  0.1833
 5786SOL    HW118042   0.479   6.590   6.883 -0.2356  0.4218 -1.8045
 5786SOL    HW218043   0.355   6.535   6.949  1.1677  0.5840  1.1057
 5787SOL     OW18044   5.924   0.645   2.825  0.2613  0.2305  0.0709
 5787SOL    HW118045   5.897   0.701   2.898 -0.1352  0.6793 -0.4148
 5787SOL    HW218046   5.853   0.582   2.814 -0.3896  1.1015 -0.8859
 5788SOL     OW18047   5.135   2.485   3.294 -0.2050 -0.0014 -1.2642
 5788SOL    HW118048   5.091   2.510   3.212 -1.1448  2.8440 -0.0259
 5788SOL    HW218049   5.228   2.492   3.273 -0.4289  1.3631 -1.9787
 5789SOL     OW18050   6.678   3.154   4.584  0.2148  0.2595 -0.1936
 5789SOL    HW118051   6.684   3.063   4.555 -2.5496  0.7055 -2.6709
 5789SOL    HW218052   6.731   3.202   4.520  0.5590  0.5353  0.2944
 5790SOL     OW18053   6.575   3.604   1.577 -0.3860  0.5586  0.3162
 5790SOL    HW118054   6.663   3.568   1.589 -0.3745  0.5576  0.2258
 5790SOL    HW218055   6.588   3.698   1.572 -0.1952  0.4689 -1.4387
 5791SOL     OW18056   4.207   3.752   5.976 -0.2931 -0.2327  0.7111
 5791SOL    HW118057   4.224   3.675   5.922  2.5683  0.5228  0.4205
 5791SOL    HW218058   4.191   3.822   5.914  1.2094  0.2494  0.8331
 5792SOL     OW18059   3.314   4.539   4.226  0.4722 -0.2470 -0.2138
 5792SOL    HW118060   3.344   4.469   4.168  0.8270 -2.3534  2.3254
 5792SOL    HW218061   3.218   4.529   4.228  0.4421 -0.0391 -0.5819
 5793SOL     OW18062   3.173   2.752   4.605 -0.7660 -0.0820 -0.6431
 5793SOL    HW118063   3.115   2.823   4.574 -1.6961  0.4384  2.0357
 5793SOL    HW218064   3.252   2.761   4.551 -0.9849  2.7963 -0.6519
 5794SOL     OW18065   4.481   2.929   2.110  0.2065 -0.0456 -0.1047
 5794SOL    HW118066   4.403   2.875   2.101  0.4717 -0.5159  0.3600
 5794SOL    HW218067   4.554   2.867   2.106  0.4592 -0.0316  2.3688
 5795SOL     OW18068   5.548   4.160   1.727  0.6675  0.0224  0.0314
 5795SOL    HW118069   5.506   4.217   1.792  0.0136  0.3480 -0.6616
 5795SOL    HW218070   5.574   4.082   1.777  2.3269  1.2350  1.1735
 5796SOL     OW18071   4.526   2.178   6.136  0.1680 -0.2751  0.3726
 5796SOL    HW118072   4.519   2.133   6.221  1.2405 -0.6053  0.2985
 5796SOL    HW218073   4.530   2.271   6.158 -1.4874 -0.2196  0.5637
 5797SOL     OW18074   4.764   4.112   0.540 -0.7460  0.1961 -0.3550
 5797SOL    HW118075   4.683   4.117   0.489 -0.7839 -0.1533 -0.3297
 5797SOL    HW218076   4.744   4.051   0.611 -0.3652 -0.1268 -0.5229
 5798SOL     OW18077   6.409   1.155   6.502 -0.5704 -0.2041  0.1603
 5798SOL    HW118078   6.318   1.127   6.492 -0.5298  0.1327 -1.2979
 5798SOL    HW218079   6.456   1.112   6.430 -0.2464  2.4040 -1.3023
 5799SOL     OW18080   0.243   5.935   3.680  0.1908  0.3076 -0.3972
 5799SOL    HW118081   0.249   5.868   3.612 -0.4169 -0.4041  0.2235
 5799SOL    HW218082   0.310   5.910   3.744 -0.5833 -0.2076  0.2384
 5800SOL     OW18083   1.476   6.533   3.389 -0.3918 -0.0925  0.8980
 5800SOL    HW118084   1.402   6.474   3.402 -0.9848  0.4867  0.2604
 5800SOL    HW218085   1.503   6.518   3.298  0.0410 -0.0388  1.0141
 5801SOL     OW18086   5.695   4.448   3.059  0.3312  0.2375 -0.2570
 5801SOL    HW118087   5.753   4.376   3.085  0.0346 -0.2100 -0.8308
 5801SOL    HW218088   5.641   4.412   2.989  0.7562  1.2696 -1.1419
 5802SOL     OW18089   6.162   0.417   0.085  0.4344  0.0810  0.3557
 5802SOL    HW118090   6.144   0.382  -0.002  0.9279  0.1930  0.2031
 5802SOL    HW218091   6.238   0.474   0.073  0.8033 -0.2748  0.9485
 5803SOL     OW18092   5.465   5.567   2.893 -0.2707 -0.0473 -0.4744
 5803SOL    HW118093   5.487   5.486   2.938 -2.4848  0.8217  2.5234
 5803SOL    HW218094   5.415   5.540   2.816  1.6225 -1.5347 -1.2417
 5804SOL     OW18095   1.534   6.278   6.732  0.3617 -0.6913  0.6543
 5804SOL    HW118096   1.558   6.199   6.781  2.1485 -0.2167  0.5966
 5804SOL    HW218097   1.577   6.349   6.778  0.5697 -0.0135 -0.5473
 5805SOL     OW18098   5.572   0.844   2.919  0.3715 -0.3032 -0.1620
 5805SOL    HW118099   5.656   0.890   2.913 -0.6681  1.6871 -0.2513
 5805SOL    HW218100   5.587   0.777   2.987  2.3120 -0.7335 -0.9250
 5806SOL     OW18101   5.106   1.143   5.917 -0.4067  0.2668 -0.1916
 5806SOL    HW118102   5.062   1.059   5.906 -0.2735  0.4402 -2.6226
 5806SOL    HW218103   5.197   1.126   5.893  0.0792  0.7065  1.2381
 5807SOL     OW18104   1.216   3.202   5.408  0.1687  0.4715 -0.1435
 5807SOL    HW118105   1.148   3.252   5.453  0.2858  1.0238 -0.5723
 5807SOL    HW218106   1.170   3.153   5.340  0.3860  2.1091 -1.5167
 5808SOL     OW18107   1.031   4.115   6.814 -0.5180 -0.3069  0.1806
 5808SOL    HW118108   0.961   4.155   6.762 -1.6548  0.5567  2.2455
 5808SOL    HW218109   0.986   4.079   6.891  1.1696 -0.6915  1.0422
 5809SOL     OW18110   2.143   5.864   2.483  0.0283 -0.2898  0.1942
 5809SOL    HW118111   2.122   5.931   2.418  1.8024  0.4451  0.3149
 5809SOL    HW218112   2.062   5.850   2.531 -0.4663  1.5399 -0.0578
 5810SOL     OW18113   2.961   3.961   0.785  0.2829 -0.1893  0.7828
 5810SOL    HW118114   3.005   3.930   0.706 -0.4380 -0.5005  0.5002
 5810SOL    HW218115   2.908   3.888   0.814  2.8816 -1.2683  3.3741
 5811SOL     OW18116   5.448   4.927   3.129 -0.7631  0.3547  0.1698
 5811SOL    HW118117   5.370   4.931   3.075 -1.2889  0.3472  0.9149
 5811SOL    HW218118   5.439   4.999   3.191 -0.0920  0.4614  0.1560
 5812SOL     OW18119   1.490   2.932   1.625  0.5249  0.0175 -0.1731
 5812SOL    HW118120   1.541   2.858   1.659 -0.4991 -0.4179  0.4836
 5812SOL    HW218121   1.460   2.903   1.539 -0.4209 -0.6317  0.3507
 5813SOL     OW18122   2.469   5.873   2.743 -0.3431 -0.5947 -0.3954
 5813SOL    HW118123   2.473   5.870   2.839 -1.8221 -0.6230 -0.3083
 5813SOL    HW218124   2.440   5.962   2.724 -1.5378 -1.0487 -0.7363
 5814SOL     OW18125   5.420   6.388   0.751  0.0391 -0.0028 -0.3579
 5814SOL    HW118126   5.392   6.365   0.663  0.3709  1.0488 -0.7535
 5814SOL    HW218127   5.516   6.389   0.747  0.0454  0.7503 -0.1857
 5815SOL     OW18128   1.147   5.137   0.615 -0.0428 -0.1747 -0.4642
 5815SOL    HW118129   1.175   5.128   0.524  0.9912 -1.6601 -0.0408
 5815SOL    HW218130   1.136   5.047   0.646 -0.4365  0.3009  0.8671
 5816SOL     OW18131   0.016   1.645   3.966 -0.1614 -1.0354  0.1359
 5816SOL    HW118132  -0.074   1.675   3.953  0.2612  0.3615  0.2154
 5816SOL    HW218133   0.016   1.604   4.052 -0.8693 -1.7080 -0.1679
 5817SOL     OW18134   2.641   2.947   5.749  0.0835  0.3189 -0.5698
 5817SOL    HW118135   2.657   2.936   5.843 -0.3194  1.2847 -0.3734
 5817SOL    HW218136   2.661   3.039   5.733  0.5332  0.0632 -1.5220
 5818SOL     OW18137   3.064   4.607   5.020  0.7570 -0.0491  0.2457
 5818SOL    HW118138   2.970   4.589   5.031  0.9861 -0.7056  1.2139
 5818SOL    HW218139   3.080   4.683   5.076  0.7857  0.1328 -0.0078
 5819SOL     OW18140   1.942   0.130   6.137 -0.3064  0.0390  0.0088
 5819SOL    HW118141   1.863   0.141   6.190 -0.4458  0.6232 -0.3006
 5819SOL    HW218142   1.972   0.041   6.155 -0.8006 -0.0417  0.4494
 5820SOL     OW18143   4.165   6.470   5.006 -0.4968 -0.5156 -0.3444
 5820SOL    HW118144   4.216   6.536   5.052  0.8861 -1.8255  0.0716
 5820SOL    HW218145   4.100   6.520   4.957 -1.3099  1.0076  2.1103
 5821SOL     OW18146   5.335   6.573   3.891 -0.4580  0.4208  0.1945
 5821SOL    HW118147   5.313   6.629   3.816 -1.0965  0.8566  0.6946
 5821SOL    HW218148   5.375   6.632   3.955  0.7105 -0.0707 -0.0468
 5822SOL     OW18149   6.077   3.693   2.185  0.1138 -0.3217  0.5010
 5822SOL    HW118150   6.020   3.617   2.199  1.7087 -1.1871  3.1307
 5822SOL    HW218151   6.166   3.656   2.188  0.8904  1.3165 -0.9131
 5823SOL     OW18152   1.509   3.883   5.286 -0.4980  0.0417 -0.6227
 5823SOL    HW118153   1.418   3.898   5.263 -1.3870 -0.9853  1.8994
 5823SOL    HW218154   1.524   3.937   5.363  1.2136  0.5383 -1.2499
 5824SOL     OW18155   3.316   0.856   0.832  0.7150 -0.4925  0.0731
 5824SOL    HW118156   3.240   0.814   0.791  0.7680 -1.2364  0.7046
 5824SOL    HW218157   3.292   0.949   0.838 -0.1588 -0.7223  0.2930
 5825SOL     OW18158   2.897   0.388   3.786  0.0815  0.2357 -0.3955
 5825SOL    HW118159   2.822   0.377   3.844 -0.2534  2.8410 -0.2321
 5825SOL    HW218160   2.973   0.384   3.844 -0.1457  1.0279 -0.0376
 5826SOL     OW18161   6.286   5.161   4.321 -0.1200  0.4662  0.3841
 5826SOL    HW118162   6.253   5.071   4.329 -0.1443  0.5238  0.9785
 5826SOL    HW218163   6.212   5.211   4.285 -0.0150  0.1978 -0.2189
 5827SOL     OW18164   1.380   6.001   5.221  0.6028 -0.7006  0.1598
 5827SOL    HW118165   1.399   6.024   5.312  0.0592  1.5949 -0.2465
 5827SOL    HW218166   1.286   6.015   5.212  0.9422  1.0608 -1.2172
 5828SOL     OW18167   4.384   4.131   6.481  0.2412  0.3995 -0.3027
 5828SOL    HW118168   4.310   4.174   6.439  0.8076  0.0957 -1.7013
 5828SOL    HW218169   4.459   4.186   6.459  0.6671 -0.1834 -0.3619
 5829SOL     OW18170   4.662   3.176   5.399  0.0347  0.1179 -0.2744
 5829SOL    HW118171   4.692   3.087   5.420  1.0088  0.7649  1.2985
 5829SOL    HW218172   4.566   3.170   5.400  0.0909 -0.9261 -0.2568
 5830SOL     OW18173   4.872   2.758   0.507 -0.3749  0.3385 -0.0643
 5830SOL    HW118174   4.823   2.809   0.571 -0.2301  0.2995  0.0799
 5830SOL    HW218175   4.819   2.679   0.494 -0.0502  0.0094  0.5601
 5831SOL     OW18176   3.896   5.936   6.430 -0.2815 -0.1461 -0.3076
 5831SOL    HW118177   3.975   5.890   6.461  0.6435 -0.3065 -2.6893
 5831SOL    HW218178   3.832   5.867   6.417 -0.0622 -0.3147 -0.5056
 5832SOL     OW18179   2.741   0.810   0.086  0.1391 -0.0357 -0.5709
 5832SOL    HW118180   2.811   0.781   0.027  0.1645  0.3207 -0.7186
 5832SOL    HW218181   2.678   0.855   0.029 -0.0288 -0.0273 -0.3832
 5833SOL     OW18182   2.626   1.025   0.802 -0.4474  0.0048  0.3908
 5833SOL    HW118183   2.687   1.096   0.822 -0.6744  0.9395 -1.9323
 5833SOL    HW218184   2.558   1.032   0.868 -0.7097  2.2795 -0.0491
 5834SOL     OW18185   2.714   5.094   1.029 -0.0357  0.1333 -0.5817
 5834SOL    HW118186   2.728   5.136   1.114  0.4826 -0.8715 -0.1448
 5834SOL    HW218187   2.774   5.019   1.029 -0.6223 -0.3650 -1.4917
 5835SOL     OW18188   1.776   0.836   3.289  0.0509  0.1512 -0.1406
 5835SOL    HW118189   1.783   0.903   3.221 -0.2756  0.2279 -0.1009
 5835SOL    HW218190   1.830   0.870   3.361 -0.2206  0.4366 -0.0705
 5836SOL     OW18191   5.340   3.323   3.084  0.3772 -0.5531  0.8415
 5836SOL    HW118192   5.415   3.350   3.138  0.1710  0.4653  0.6202
 5836SOL    HW218193   5.377   3.311   2.996  0.0551  1.1980  0.4446
 5837SOL     OW18194   2.119   1.078   1.550  0.2364 -0.2439  0.1995
 5837SOL    HW118195   2.154   1.167   1.551 -1.0670  0.2993 -0.2704
 5837SOL    HW218196   2.117   1.052   1.642 -1.4632  1.0831  0.5768
 5838SOL     OW18197   4.057   3.891   1.862 -0.3170  0.0903  0.1248
 5838SOL    HW118198   4.006   3.811   1.852 -0.5569  0.3677 -1.0091
 5838SOL    HW218199   3.992   3.957   1.888 -0.2860  0.1234  0.1179
 5839SOL     OW18200   1.587   4.373   0.550 -0.1734 -0.6136  0.3872
 5839SOL    HW118201   1.622   4.457   0.577 -0.8527  0.3980 -1.6242
 5839SOL    HW218202   1.653   4.337   0.491 -0.9244 -0.3328 -0.6539
 5840SOL     OW18203   6.458   4.320   6.160  0.2602 -0.1563 -0.4367
 5840SOL    HW118204   6.524   4.287   6.098  0.8801 -1.5677  0.8955
 5840SOL    HW218205   6.507   4.335   6.241 -1.1290 -1.8081  0.7728
 5841SOL     OW18206   1.479   2.370   5.110  0.4326  0.1922  0.5152
 5841SOL    HW118207   1.459   2.463   5.123 -2.1826  0.4161 -3.2275
 5841SOL    HW218208   1.408   2.324   5.154  1.5936 -0.1102  2.1558
 5842SOL     OW18209   0.280   6.581   4.583 -0.2533  0.1089  0.1848
 5842SOL    HW118210   0.212   6.538   4.634 -2.1850  3.0698  0.3226
 5842SOL    HW218211   0.236   6.610   4.503  0.5380  2.9155  0.6831
 5843SOL     OW18212   2.327   5.433   0.290 -0.1459 -0.5588  0.1468
 5843SOL    HW118213   2.277   5.409   0.368  1.0302 -1.7762  0.5509
 5843SOL    HW218214   2.318   5.358   0.232 -1.1822  0.4238 -1.0173
 5844SOL     OW18215   3.795   1.736   1.748 -0.1863  0.2624 -0.0202
 5844SOL    HW118216   3.847   1.663   1.782  1.3730  0.5701 -1.5941
 5844SOL    HW218217   3.827   1.812   1.796 -1.1101  0.0900  0.9073
 5845SOL     OW18218   3.122   3.998   4.645 -0.4882  0.2838 -0.5695
 5845SOL    HW118219   3.102   3.960   4.730  0.3924  0.4001 -0.3034
 5845SOL    HW218220   3.119   3.924   4.584  0.8422 -0.1669 -0.1159
 5846SOL     OW18221   4.652   1.036   3.730  0.3263  0.1046  0.3094
 5846SOL    HW118222   4.709   1.112   3.718  1.3686 -1.0891 -3.5472
 5846SOL    HW218223   4.708   0.960   3.714 -1.5523 -1.2918 -0.0516
 5847SOL     OW18224   0.495   4.053   2.587  0.6689  0.0423  0.1737
 5847SOL    HW118225   0.405   4.075   2.611  0.5901 -1.1936  1.1329
 5847SOL    HW218226   0.491   4.029   2.495 -0.2223 -1.0895  0.4827
 5848SOL     OW18227   3.141   3.915   5.043 -0.0335 -0.2262  0.0190
 5848SOL    HW118228   3.129   3.868   4.960 -1.2371 -1.0544  0.6410
 5848SOL    HW218229   3.192   3.855   5.097  0.8190  0.3479 -0.1234
 5849SOL     OW18230   2.133   6.677   2.712  0.8024  0.5374 -0.3551
 5849SOL    HW118231   2.185   6.606   2.749 -0.0768  0.5224  0.9306
 5849SOL    HW218232   2.042   6.645   2.716  0.3826  1.7620  0.3790
 5850SOL     OW18233   6.102   5.758   2.416  0.5679  0.0023  0.1454
 5850SOL    HW118234   6.141   5.670   2.412  1.0905  0.2144  0.5223
 5850SOL    HW218235   6.129   5.799   2.333  1.1632  0.1495  0.4038
 5851SOL     OW18236   1.980   6.662   1.715 -0.1806  0.3135  0.1887
 5851SOL    HW118237   1.948   6.572   1.728  0.1284  0.3953  1.6607
 5851SOL    HW218238   1.900   6.715   1.708 -0.4518  0.3354  2.5665
 5852SOL     OW18239   5.403   1.042   6.250 -0.2541  0.4030 -0.1445
 5852SOL    HW118240   5.408   1.135   6.272  0.2800  0.5332 -0.8198
 5852SOL    HW218241   5.483   1.023   6.202 -0.1045 -0.5342  0.4296
 5853SOL     OW18242   3.505   4.841   3.334 -0.3832  0.3813  0.0420
 5853SOL    HW118243   3.409   4.843   3.329 -0.5851  2.5114  2.3536
 5853SOL    HW218244   3.526   4.908   3.399  2.6966 -0.1528 -0.2720
 5854SOL     OW18245   2.902   0.265   5.291  0.0387 -0.5618 -0.4208
 5854SOL    HW118246   2.854   0.218   5.222 -0.3029  0.3794 -0.8411
 5854SOL    HW218247   2.984   0.217   5.301 -0.1991 -1.0985 -1.0128
 5855SOL     OW18248   2.756   0.882   2.921 -0.4261  0.0374 -0.5096
 5855SOL    HW118249   2.809   0.805   2.901  1.6371  1.6674 -1.6800
 5855SOL    HW218250   2.710   0.901   2.839 -1.2332 -0.1156 -0.1102
 5856SOL     OW18251   0.949   1.870   3.804  0.6666  0.0998  0.2392
 5856SOL    HW118252   0.949   1.775   3.794  0.8249 -0.0517  1.5053
 5856SOL    HW218253   0.935   1.884   3.898 -3.3239  1.4048 -0.3476
 5857SOL     OW18254   3.744   5.369   4.204  0.5086  0.2634  0.2627
 5857SOL    HW118255   3.733   5.392   4.112 -0.4524  0.2571  0.3618
 5857SOL    HW218256   3.682   5.426   4.250  0.1565 -0.5195  0.7838
 5858SOL     OW18257   4.637   6.594   2.761  0.4111 -0.7397 -0.5751
 5858SOL    HW118258   4.633   6.672   2.705  0.8870 -0.2447  0.0566
 5858SOL    HW218259   4.725   6.560   2.749  0.0867 -1.4080 -1.1274
 5859SOL     OW18260   1.295   5.228   5.619  0.3788 -0.4151  0.8936
 5859SOL    HW118261   1.329   5.278   5.545 -1.4030  1.3825  1.2265
 5859SOL    HW218262   1.317   5.281   5.696  0.7693 -1.4662  1.5411
 5860SOL     OW18263   4.004   4.095   1.552 -0.1747 -0.0141  0.1308
 5860SOL    HW118264   4.044   4.168   1.599 -2.1323  0.0239  1.8733
 5860SOL    HW218265   4.068   4.024   1.560 -0.0573  0.2420  2.2519
 5861SOL     OW18266   4.676   1.276   2.977 -0.2709  0.2292 -0.2031
 5861SOL    HW118267   4.691   1.344   2.911  1.9625 -0.2287 -0.2456
 5861SOL    HW218268   4.641   1.324   3.053  1.7699  1.5735 -0.0281
 5862SOL     OW18269   3.784   2.281   2.086 -0.3231  0.3295 -0.5594
 5862SOL    HW118270   3.845   2.256   2.016  0.3816  0.0398  0.1391
 5862SOL    HW218271   3.721   2.209   2.091  0.6697 -0.5164  0.2697
 5863SOL     OW18272   6.137   2.538   0.923 -0.5982 -0.0865  0.8836
 5863SOL    HW118273   6.205   2.551   0.856 -0.6606 -1.4415  0.5200
 5863SOL    HW218274   6.185   2.537   1.006 -0.4996  1.4368  0.8646
 5864SOL     OW18275   6.097   1.782   1.410  0.1707  0.2488  0.2840
 5864SOL    HW118276   6.053   1.701   1.386 -0.1974  0.7664 -0.8645
 5864SOL    HW218277   6.164   1.794   1.343  1.0933  0.2335  1.1836
 5865SOL     OW18278   1.131   3.959   2.354  0.0395 -0.9056 -0.1726
 5865SOL    HW118279   1.047   3.996   2.381  0.3127  0.3495 -0.9305
 5865SOL    HW218280   1.121   3.865   2.365 -1.5440 -0.7940 -0.4502
 5866SOL     OW18281   6.087   4.887   1.094 -0.2802 -0.2125  0.3800
 5866SOL    HW118282   6.024   4.822   1.063 -0.6468  0.9061 -1.3799
 5866SOL    HW218283   6.112   4.857   1.182 -2.1649 -1.4508  0.5451
 5867SOL     OW18284   6.602   3.488   3.179 -0.1918 -0.3994 -0.3009
 5867SOL    HW118285   6.635   3.565   3.133  0.1700  0.2258  0.9526
 5867SOL    HW218286   6.512   3.511   3.202 -0.1286 -0.3996 -0.0483
 5868SOL     OW18287   0.849   4.611   6.008 -0.1997  0.1364 -0.4581
 5868SOL    HW118288   0.879   4.674   6.073 -0.7042  0.6013 -0.6727
 5868SOL    HW218289   0.844   4.661   5.926  1.2219 -0.6308 -1.0506
 5869SOL     OW18290   0.239   3.730   2.664 -0.3279  0.2864 -0.3396
 5869SOL    HW118291   0.179   3.736   2.590  0.3487 -1.4115 -1.0924
 5869SOL    HW218292   0.297   3.657   2.642  1.3804  1.2047  0.8075
 5870SOL     OW18293   3.498   1.437   5.490 -0.1030 -0.0571 -0.1055
 5870SOL    HW118294   3.474   1.449   5.582  1.0217  1.2871  0.0464
 5870SOL    HW218295   3.575   1.381   5.492 -0.2081 -0.2069 -0.2423
 5871SOL     OW18296   4.260   6.097   0.825 -0.5041 -0.1148 -0.2524
 5871SOL    HW118297   4.195   6.030   0.802 -0.4043 -0.3228  0.0641
 5871SOL    HW218298   4.342   6.063   0.790 -0.5006 -0.0291 -0.3275
 5872SOL     OW18299   5.805   3.441   4.484 -0.1332  0.0610  0.1053
 5872SOL    HW118300   5.870   3.460   4.552  1.5063 -0.1918 -1.3144
 5872SOL    HW218301   5.761   3.524   4.469 -0.3326  0.1840  1.2557
 5873SOL     OW18302   2.697   6.848   1.269 -0.1726  0.0562  0.0266
 5873SOL    HW118303   2.777   6.802   1.296 -0.1699 -0.3542 -0.6642
 5873SOL    HW218304   2.722   6.897   1.191 -0.0696  1.5968  0.9735
 5874SOL     OW18305   4.072   5.205   2.557  0.6862  0.3709 -0.1636
 5874SOL    HW118306   4.124   5.235   2.483  0.2580  0.8976 -0.2535
 5874SOL    HW218307   4.092   5.266   2.628  2.4180 -1.1104  0.7184
 5875SOL     OW18308   6.598   5.257   1.286  0.1863 -0.6645  0.3372
 5875SOL    HW118309   6.598   5.328   1.350  1.6951 -0.5595  0.2605
 5875SOL    HW218310   6.664   5.282   1.221  0.5172 -1.9663  0.1335
 5876SOL     OW18311   2.171   4.811   1.469 -0.2916  0.5301 -0.1877
 5876SOL    HW118312   2.123   4.869   1.410  1.1993  0.2325 -1.7803
 5876SOL    HW218313   2.261   4.844   1.466  0.1272 -0.4847  0.6836
 5877SOL     OW18314   4.927   6.692   4.853  0.0730  0.3131 -0.0804
 5877SOL    HW118315   4.921   6.598   4.835 -0.8561  0.4190 -0.3775
 5877SOL    HW218316   4.941   6.697   4.948 -0.2980 -0.1242  0.0042
 5878SOL     OW18317   0.494   4.201   1.977 -0.2886 -0.3032 -0.1152
 5878SOL    HW118318   0.521   4.289   1.951 -1.1875  0.0287  0.0324
 5878SOL    HW218319   0.449   4.166   1.901  1.6547 -1.3675 -0.8413
 5879SOL     OW18320   2.310   5.439   3.773  0.0808  0.3103  0.0301
 5879SOL    HW118321   2.334   5.532   3.772  1.3212  0.1816  3.6933
 5879SOL    HW218322   2.392   5.393   3.756 -0.7982 -0.3083 -3.4528
 5880SOL     OW18323   4.153   2.101   4.011 -0.1980  0.3280 -0.7029
 5880SOL    HW118324   4.078   2.161   4.014 -0.8956 -0.5340 -0.4740
 5880SOL    HW218325   4.178   2.090   4.103  0.0025  0.3585 -0.7544
 5881SOL     OW18326   1.030   6.274   1.415  0.0334 -0.1789 -0.1197
 5881SOL    HW118327   1.103   6.330   1.391 -0.7832  1.0763  0.2643
 5881SOL    HW218328   0.957   6.306   1.363 -0.8005  0.0431  1.1453
 5882SOL     OW18329   4.466   4.894   0.370  0.0563  0.2457 -0.4090
 5882SOL    HW118330   4.527   4.961   0.399  0.3231  0.2403 -0.9430
 5882SOL    HW218331   4.416   4.936   0.300 -1.3818  0.6458  0.8065
 5883SOL     OW18332   0.395   0.963   3.804  0.2790 -0.0708  0.2257
 5883SOL    HW118333   0.426   1.052   3.786  0.2009 -0.3620 -1.5964
 5883SOL    HW218334   0.471   0.918   3.841  0.2684  0.7798  1.3151
 5884SOL     OW18335   2.634   6.651   0.847  0.3525  0.3402 -0.0979
 5884SOL    HW118336   2.671   6.698   0.772  0.0082  0.7164 -0.0395
 5884SOL    HW218337   2.702   6.590   0.874  1.2767  1.6265  0.5683
 5885SOL     OW18338   4.371   4.975   1.632 -0.2430  0.0555 -0.5926
 5885SOL    HW118339   4.367   4.898   1.575  0.6878 -0.1623 -0.3855
 5885SOL    HW218340   4.452   5.019   1.608  2.1343 -1.9551  2.8783
 5886SOL     OW18341   2.960   2.431   6.117 -0.6871 -0.1714 -0.1564
 5886SOL    HW118342   2.944   2.454   6.208  0.7975  1.3096 -0.2276
 5886SOL    HW218343   2.982   2.338   6.120  0.1380  0.0379  1.1157
 5887SOL     OW18344   0.432   1.922   6.627  0.1312  0.1370  0.8942
 5887SOL    HW118345   0.438   1.847   6.568 -0.6530 -0.6886  1.8282
 5887SOL    HW218346   0.523   1.944   6.648  0.3671 -0.8186  0.9163
 5888SOL     OW18347   4.468   0.933   1.159  0.2778 -0.2235 -0.0097
 5888SOL    HW118348   4.529   0.925   1.232 -0.1390  1.1427  0.5372
 5888SOL    HW218349   4.422   0.849   1.157  1.4606 -0.8936  0.2074
 5889SOL     OW18350   1.935   4.728   5.308  0.3511  0.2693  0.1203
 5889SOL    HW118351   2.000   4.794   5.331  1.0686 -0.4275  0.1718
 5889SOL    HW218352   1.896   4.702   5.391 -1.7078  2.3374 -0.1031
 5890SOL     OW18353   0.271   1.975   5.600 -0.3479 -0.1334 -0.1816
 5890SOL    HW118354   0.325   2.044   5.637  0.2309 -0.6469 -0.0520
 5890SOL    HW218355   0.228   2.015   5.525 -1.1029  0.7645  0.6954
 5891SOL     OW18356   6.088   6.575   1.269  0.2978  0.2546  0.0553
 5891SOL    HW118357   6.120   6.661   1.242  0.3431  0.2006 -0.0629
 5891SOL    HW218358   6.020   6.594   1.334 -0.7058  0.4316 -1.0237
 5892SOL     OW18359   1.822   4.606   5.520 -0.3148  0.2651  0.2951
 5892SOL    HW118360   1.836   4.513   5.502  1.9004  0.7937 -1.0358
 5892SOL    HW218361   1.817   4.611   5.615  2.3288 -0.9573  0.6049
 5893SOL     OW18362   5.036   3.043   4.482  0.3713  0.2228 -0.0389
 5893SOL    HW118363   5.106   3.019   4.421 -0.4543 -0.6694 -0.6585
 5893SOL    HW218364   5.081   3.054   4.566  1.1333 -1.2728 -0.2183
 5894SOL     OW18365   3.584   2.016   4.798 -0.3532  0.5218 -0.0056
 5894SOL    HW118366   3.551   2.106   4.806  0.2715  0.7965 -0.4901
 5894SOL    HW218367   3.509   1.961   4.822 -0.8574  1.1604 -0.0889
 5895SOL     OW18368   5.327   1.587   6.273  0.2830 -0.3251 -0.3631
 5895SOL    HW118369   5.319   1.577   6.368  0.7620 -1.4310 -0.4298
 5895SOL    HW218370   5.359   1.502   6.242 -0.0017 -0.0256 -1.5324
 5896SOL     OW18371   2.943   0.023   2.210 -0.1338  0.2337 -0.0630
 5896SOL    HW118372   2.914  -0.068   2.219  0.5761 -0.0442 -0.5682
 5896SOL    HW218373   2.980   0.044   2.295  0.9095 -0.3864 -0.3499
 5897SOL     OW18374   6.437   1.784   1.612  0.5654 -0.4350  0.4397
 5897SOL    HW118375   6.395   1.863   1.578  2.1893  0.7783  1.0855
 5897SOL    HW218376   6.523   1.782   1.570  0.2394 -2.3863 -0.2357
 5898SOL     OW18377   3.865   2.979   2.372 -0.4633 -0.4220 -0.6283
 5898SOL    HW118378   3.844   2.969   2.280 -0.0529  0.2240 -0.7979
 5898SOL    HW218379   3.931   3.048   2.375 -1.1573  0.2320  0.2383
 5899SOL     OW18380   1.081   5.606   3.395 -0.1706 -0.3014 -0.4486
 5899SOL    HW118381   1.158   5.614   3.338  0.6932 -0.4927  0.6457
 5899SOL    HW218382   1.043   5.521   3.372 -1.2358  0.6223 -2.3581
 5900SOL     OW18383   1.613   4.088   4.653 -0.3830 -0.0996 -0.2528
 5900SOL    HW118384   1.656   4.131   4.579  1.3084 -1.7100 -0.2777
 5900SOL    HW218385   1.536   4.142   4.670  0.6188  1.8480 -1.4448
 5901SOL     OW18386   4.717   1.732   5.380 -0.5016  0.1698 -0.1666
 5901SOL    HW118387   4.694   1.677   5.306 -1.1872 -0.4611  0.4974
 5901SOL    HW218388   4.673   1.815   5.363 -0.3105  0.1726 -0.6623
 5902SOL     OW18389   4.621   6.331   0.139  0.0448 -0.4269  0.1205
 5902SOL    HW118390   4.690   6.395   0.158  0.1303 -0.5930  0.3613
 5902SOL    HW218391   4.636   6.307   0.047 -0.4109  0.4217 -0.1892
 5903SOL     OW18392   0.444   0.102   3.142  0.5044 -0.2576  0.0134
 5903SOL    HW118393   0.361   0.073   3.179  0.8760 -0.3589  0.7787
 5903SOL    HW218394   0.504   0.029   3.156  1.0431  0.2859  0.5759
 5904SOL     OW18395   1.169   6.619   0.748 -0.0585 -0.4249 -0.2076
 5904SOL    HW118396   1.214   6.680   0.806  1.3302 -1.6517  0.0486
 5904SOL    HW218397   1.125   6.558   0.806  0.2031 -0.8516 -0.4578
 5905SOL     OW18398   4.816   2.149   6.302 -0.0238  0.0865 -0.4701
 5905SOL    HW118399   4.740   2.204   6.284 -0.1689 -0.4738 -1.6813
 5905SOL    HW218400   4.779   2.072   6.346  0.0379  0.4267  0.1971
 5906SOL     OW18401   2.652   5.528   2.798 -0.3756  0.1617 -0.4697
 5906SOL    HW118402   2.626   5.439   2.774 -0.6443  0.1454 -0.1254
 5906SOL    HW218403   2.748   5.525   2.800 -0.3832 -0.7674  1.9080
 5907SOL     OW18404   1.840   1.885   1.013  0.3627  0.4238  0.3851
 5907SOL    HW118405   1.771   1.850   1.069  0.8993  0.4926  1.1050
 5907SOL    HW218406   1.860   1.971   1.050  2.4844 -0.5399  1.7166
 5908SOL     OW18407   5.042   3.690   4.417 -0.0040 -0.2621 -0.0564
 5908SOL    HW118408   5.076   3.625   4.356 -0.9256  0.2104 -1.1150
 5908SOL    HW218409   5.006   3.759   4.361 -1.2689 -0.0158  1.0088
 5909SOL     OW18410   5.234   5.317   4.507  0.1555  0.5289 -0.9084
 5909SOL    HW118411   5.302   5.385   4.501 -0.5057  1.2474 -0.5550
 5909SOL    HW218412   5.229   5.298   4.601 -1.8345  2.3229 -0.5707
 5910SOL     OW18413   1.643   2.972   4.966 -0.3786  0.1365 -0.2513
 5910SOL    HW118414   1.722   2.940   4.923  0.6498  0.8613  1.0203
 5910SOL    HW218415   1.642   2.927   5.051 -0.7353  0.9235  0.1739
 5911SOL     OW18416   4.555   3.375   5.105 -0.6118  0.1144  0.2818
 5911SOL    HW118417   4.481   3.412   5.153 -0.8055  0.0442  0.0424
 5911SOL    HW218418   4.596   3.450   5.062 -0.6404  0.1315  0.2845
 5912SOL     OW18419   4.999   0.737   5.333 -0.2367 -0.0654  0.1025
 5912SOL    HW118420   5.071   0.767   5.389  0.7508 -1.4816 -0.3655
 5912SOL    HW218421   4.921   0.742   5.389  0.5328 -0.3271  1.2260
 5913SOL     OW18422   4.305   0.875   6.438  0.9146  0.1151  0.1954
 5913SOL    HW118423   4.352   0.958   6.439  0.8530  0.2076 -1.3604
 5913SOL    HW218424   4.214   0.899   6.419  0.8148 -0.2734  0.1658
 5914SOL     OW18425   5.866   4.514   2.253 -0.1768 -0.1800 -0.2188
 5914SOL    HW118426   5.882   4.426   2.220 -2.1187 -0.4421 -0.5515
 5914SOL    HW218427   5.793   4.547   2.200  0.9019  1.8935 -0.5463
 5915SOL     OW18428   4.874   1.152   5.221  0.0650 -0.4551  0.0256
 5915SOL    HW118429   4.879   1.213   5.147  1.8492 -0.5834 -0.0028
 5915SOL    HW218430   4.914   1.199   5.293 -1.9643 -0.2016  1.0667
 5916SOL     OW18431   5.595   6.408   3.010 -0.0586 -0.4468 -0.7372
 5916SOL    HW118432   5.590   6.468   3.085  0.3377 -0.5599 -0.6134
 5916SOL    HW218433   5.680   6.428   2.970  0.5510 -1.6231 -0.0855
 5917SOL     OW18434   4.763   0.928   5.343 -0.3076 -0.9322  0.4764
 5917SOL    HW118435   4.716   0.975   5.412  0.3763  0.1218  0.2494
 5917SOL    HW218436   4.800   0.997   5.288 -0.6813 -1.7488 -0.8479
 5918SOL     OW18437   5.078   1.901   1.644  0.1590  0.0955 -0.3713
 5918SOL    HW118438   5.075   1.926   1.552  0.8099  0.0074 -0.4175
 5918SOL    HW218439   5.028   1.819   1.648 -0.4385  0.4425 -0.5228
 5919SOL     OW18440   4.493   2.880   2.914  0.3009 -0.2477 -0.1836
 5919SOL    HW118441   4.455   2.968   2.913 -0.1051 -0.4052  0.6660
 5919SOL    HW218442   4.467   2.843   2.998 -0.1125 -1.4280 -0.7878
 5920SOL     OW18443   5.422   5.518   4.073  0.3278  0.5715 -0.1636
 5920SOL    HW118444   5.503   5.478   4.043 -0.0367  0.6996 -1.3580
 5920SOL    HW218445   5.390   5.567   3.998 -1.7320 -0.8496 -0.2927
 5921SOL     OW18446   1.898   0.711   4.122  0.6132  0.0450  0.2184
 5921SOL    HW118447   1.944   0.633   4.093  2.5231  0.6266  1.4051
 5921SOL    HW218448   1.862   0.750   4.043  1.2782 -1.0420 -0.6376
 5922SOL     OW18449   3.577   5.232   4.916 -0.2384 -0.0965 -0.3051
 5922SOL    HW118450   3.534   5.168   4.974 -0.5981 -1.3109 -1.8204
 5922SOL    HW218451   3.507   5.292   4.891 -0.2156  0.0903  0.0825
 5923SOL     OW18452   3.645   6.888   1.412 -0.2708  0.3513  0.4440
 5923SOL    HW118453   3.656   6.807   1.462  2.6683  0.3713  0.0056
 5923SOL    HW218454   3.720   6.942   1.438 -1.4691  2.4293 -0.2396
 5924SOL     OW18455   4.654   0.900   0.641 -0.7573  0.6649  0.3401
 5924SOL    HW118456   4.654   0.806   0.654 -1.2985  0.6958  0.5785
 5924SOL    HW218457   4.738   0.918   0.598  0.3269  0.3392  2.1971
 5925SOL     OW18458   3.654   2.755   0.481 -0.4135 -0.1979  0.2388
 5925SOL    HW118459   3.726   2.751   0.543 -1.3179 -0.1647  1.3116
 5925SOL    HW218460   3.583   2.799   0.528 -0.8960  0.4610 -1.0474
 5926SOL     OW18461   6.565   2.515   6.572  0.0329  0.3952  0.1779
 5926SOL    HW118462   6.518   2.457   6.512  0.9619  0.4075 -0.5765
 5926SOL    HW218463   6.539   2.603   6.545 -0.0035  0.3861  0.1831
 5927SOL     OW18464   2.367   2.806   6.459  0.1587 -0.4807 -0.5945
 5927SOL    HW118465   2.342   2.826   6.549  2.9797 -0.1483  0.1984
 5927SOL    HW218466   2.311   2.862   6.405  1.1784  2.4216  1.1542
 5928SOL     OW18467   2.456   0.168   0.870 -0.3894 -0.0542  0.3529
 5928SOL    HW118468   2.483   0.230   0.939 -0.1080 -0.3150  0.4813
 5928SOL    HW218469   2.426   0.091   0.918 -2.6970  0.7213  0.2535
 5929SOL     OW18470   0.880   1.006   4.961 -0.0870 -0.3644  0.0539
 5929SOL    HW118471   0.907   0.919   4.992  0.0176 -0.3449  0.0179
 5929SOL    HW218472   0.946   1.030   4.896 -0.3630 -0.4458 -0.2587
 5930SOL     OW18473   5.862   2.705   3.490 -0.0858  0.3545 -0.4776
 5930SOL    HW118474   5.774   2.684   3.523 -2.0534  4.0962 -2.6766
 5930SOL    HW218475   5.908   2.740   3.566  0.1450 -2.7535  1.0118
 5931SOL     OW18476   4.682   0.586   2.808 -0.0766  0.2152 -0.1668
 5931SOL    HW118477   4.656   0.642   2.881 -1.0584 -0.2705 -0.1340
 5931SOL    HW218478   4.771   0.558   2.830 -0.5607 -0.3812  1.1378
 5932SOL     OW18479   6.497   5.623   5.058  0.4430 -0.9863  0.5399
 5932SOL    HW118480   6.421   5.579   5.098  1.1621 -2.5843  0.2157
 5932SOL    HW218481   6.533   5.558   4.998  0.0217  0.9497 -2.0045
 5933SOL     OW18482   5.856   6.016   6.657  0.2687 -0.2648 -0.4274
 5933SOL    HW118483   5.927   6.075   6.680  1.6674 -1.9507 -0.1787
 5933SOL    HW218484   5.839   6.034   6.565  1.3855 -0.1704 -0.6324
 5934SOL     OW18485   1.751   5.421   6.618 -0.0986 -0.8113  0.4961
 5934SOL    HW118486   1.819   5.356   6.599 -0.8935 -1.5459  0.0640
 5934SOL    HW218487   1.671   5.369   6.628 -0.6965  0.0833  0.4450
 5935SOL     OW18488   6.468   3.990   3.752  0.1406 -0.1756 -0.6732
 5935SOL    HW118489   6.508   3.905   3.771  0.8108 -0.2319 -2.2526
 5935SOL    HW218490   6.389   3.969   3.703 -0.1479  0.0844 -0.3267
 5936SOL     OW18491   4.518   3.733   2.760 -0.0664  0.5177 -0.4128
 5936SOL    HW118492   4.596   3.694   2.799 -0.8693 -0.6150  0.1203
 5936SOL    HW218493   4.516   3.823   2.794  0.7610  0.4282 -0.1081
 5937SOL     OW18494   1.706   1.883   2.558 -0.1865 -0.2610  0.6914
 5937SOL    HW118495   1.750   1.912   2.638  2.1812 -1.3590 -0.1441
 5937SOL    HW218496   1.776   1.874   2.494 -1.6978 -1.7402 -0.8333
 5938SOL     OW18497   0.340   6.613   3.408 -0.1974 -0.8442  1.0653
 5938SOL    HW118498   0.333   6.536   3.464  1.3808 -1.0302  1.0621
 5938SOL    HW218499   0.397   6.585   3.336 -2.7998 -0.8892 -1.1687
 5939SOL     OW18500   4.974   4.691   6.649  0.0242  0.3521 -0.8307
 5939SOL    HW118501   4.905   4.694   6.583  0.2943 -0.5959 -1.1636
 5939SOL    HW218502   5.051   4.661   6.601 -0.0859 -1.6618  0.1528
 5940SOL     OW18503   1.277   5.109   2.633  0.0998  0.5885  0.4760
 5940SOL    HW118504   1.184   5.108   2.658 -0.3661  0.2594 -1.1523
 5940SOL    HW218505   1.288   5.030   2.580  1.4017  0.4645  0.9131
 5941SOL     OW18506   5.718   3.336   0.660  0.1429  0.0481 -0.0783
 5941SOL    HW118507   5.664   3.273   0.612  1.1880  1.1525 -2.9358
 5941SOL    HW218508   5.805   3.325   0.623  1.0653  0.8910  1.7473
 5942SOL     OW18509   1.489   5.325   1.925  0.5831 -0.2047  0.2757
 5942SOL    HW118510   1.553   5.396   1.915  0.9126 -0.5151  0.1804
 5942SOL    HW218511   1.406   5.364   1.898  1.4824 -1.2682 -5.0230
 5943SOL     OW18512   2.149   0.551   3.151  0.0808  0.2512  0.0233
 5943SOL    HW118513   2.181   0.462   3.165 -2.6932 -0.9640 -0.7849
 5943SOL    HW218514   2.205   0.605   3.207  2.1460 -1.8893  0.2040
 5944SOL     OW18515   6.520   3.542   4.828 -0.1403 -0.1406 -0.4833
 5944SOL    HW118516   6.588   3.602   4.799 -2.3689  2.0271 -1.5252
 5944SOL    HW218517   6.500   3.489   4.751 -0.2171 -0.2113 -0.4156
 5945SOL     OW18518   6.320   0.855   1.608  0.2538 -0.0268 -0.7341
 5945SOL    HW118519   6.226   0.865   1.623  0.3268 -0.5348  0.1566
 5945SOL    HW218520   6.339   0.766   1.637  1.4639  0.9299  1.6752
 5946SOL     OW18521   0.231   2.986   3.275  0.0193  0.2092  0.3539
 5946SOL    HW118522   0.269   2.929   3.342  0.2989  1.3706  1.2004
 5946SOL    HW218523   0.147   3.013   3.311 -0.8383 -0.8720 -0.7231
 5947SOL     OW18524   6.811   3.737   6.370 -0.2252 -0.3125 -0.2516
 5947SOL    HW118525   6.815   3.833   6.375  1.1901 -0.2154 -2.0556
 5947SOL    HW218526   6.760   3.711   6.446 -2.8640  2.0141 -1.0553
 5948SOL     OW18527   6.521   4.839   0.255 -0.5344  0.5721  0.0035
 5948SOL    HW118528   6.448   4.779   0.241  1.1736 -1.6203 -0.1977
 5948SOL    HW218529   6.579   4.792   0.315  0.6000  2.3322  0.3607
 5949SOL     OW18530   6.645   4.555   6.847 -0.6005 -0.2786 -0.7527
 5949SOL    HW118531   6.664   4.539   6.940 -0.6019 -0.1908 -0.7373
 5949SOL    HW218532   6.721   4.518   6.801  0.1761  1.0912 -0.6271
 5950SOL     OW18533   5.984   5.460   0.327 -0.2200  0.5934  0.2997
 5950SOL    HW118534   6.019   5.372   0.336 -1.0022  0.4447  2.4572
 5950SOL    HW218535   5.927   5.471   0.403  0.1085  3.0667  0.2728
 5951SOL     OW18536   4.970   4.406   4.788  0.1452 -0.5741  0.4315
 5951SOL    HW118537   4.883   4.389   4.824  0.1052  0.3859  0.8135
 5951SOL    HW218538   4.996   4.489   4.826  0.1978  0.4086 -1.6050
 5952SOL     OW18539   4.021   6.640   2.619  0.5245 -0.4128  0.7244
 5952SOL    HW118540   4.010   6.709   2.685 -1.4705  0.3550 -0.3204
 5952SOL    HW218541   4.027   6.687   2.536  1.8587 -1.4125  0.2302
 5953SOL     OW18542   0.096   0.257   4.044  0.2538  0.2559  0.0997
 5953SOL    HW118543   0.185   0.223   4.047  0.1806  0.0598  0.0490
 5953SOL    HW218544   0.052   0.204   3.977 -0.5431 -1.1969  1.6982
 5954SOL     OW18545   5.146   5.610   6.695 -0.5593 -0.1804 -0.1977
 5954SOL    HW118546   5.201   5.537   6.723  0.0202  0.5035  0.4941
 5954SOL    HW218547   5.202   5.687   6.703 -0.8942  0.2677 -1.6910
 5955SOL     OW18548   3.473   1.432   3.770 -0.4912 -0.0059 -0.7274
 5955SOL    HW118549   3.458   1.353   3.718 -2.4719 -0.9719  1.1085
 5955SOL    HW218550   3.566   1.452   3.759 -0.5797 -0.7303 -3.6974
 5956SOL     OW18551   0.225   6.855   1.211 -0.1419 -0.5692 -0.4394
 5956SOL    HW118552   0.147   6.804   1.231 -0.2857 -0.9501 -1.8860
 5956SOL    HW218553   0.258   6.817   1.129  1.2728 -0.0868 -0.1184
 5957SOL     OW18554   2.677   2.958   2.979 -0.4876  0.3350 -0.3346
 5957SOL    HW118555   2.746   2.956   2.914 -0.8268  0.2712 -0.6950
 5957SOL    HW218556   2.609   3.013   2.941 -1.1857 -0.6441 -0.5500
 5958SOL     OW18557   3.188   0.361   1.578  0.2124  0.4043  0.6428
 5958SOL    HW118558   3.234   0.345   1.660 -1.8147  1.6834  2.1030
 5958SOL    HW218559   3.240   0.428   1.534 -0.1739  1.8279  2.2554
 5959SOL     OW18560   1.504   1.073   3.120 -0.0323 -0.6053 -0.4044
 5959SOL    HW118561   1.437   1.075   3.188 -0.7185 -1.1742 -1.0315
 5959SOL    HW218562   1.454   1.081   3.038  0.7260 -0.4313 -0.8562
 5960SOL     OW18563   0.687   5.585   1.771 -0.0903  0.0117 -0.8457
 5960SOL    HW118564   0.646   5.499   1.783 -0.3289  0.3774  1.4175
 5960SOL    HW218565   0.614   5.645   1.763  0.0778  0.0900 -1.9582
 5961SOL     OW18566   5.962   0.434   1.641 -0.2320  0.1210  0.2447
 5961SOL    HW118567   5.888   0.415   1.698 -0.5417  0.8350  0.0979
 5961SOL    HW218568   5.940   0.518   1.600 -0.3109 -0.6686 -1.4189
 5962SOL     OW18569   2.552   6.676   3.659 -0.6099 -0.1452 -0.2400
 5962SOL    HW118570   2.565   6.667   3.565  0.2712 -0.7326 -0.0759
 5962SOL    HW218571   2.628   6.727   3.689  0.1997 -1.6995  0.4387
 5963SOL     OW18572   3.780   4.655   4.354  0.1427 -0.0741  0.4036
 5963SOL    HW118573   3.731   4.664   4.273  1.4447  0.3241 -0.3668
 5963SOL    HW218574   3.776   4.742   4.395 -0.0013 -0.1112  0.4696
 5964SOL     OW18575   2.125   6.831   0.761 -0.6758 -0.2719 -0.2695
 5964SOL    HW118576   2.140   6.865   0.673  0.9173  0.6438  0.3049
 5964SOL    HW218577   2.138   6.907   0.818  0.7423 -1.3355  0.9110
 5965SOL     OW18578   6.060   1.503   6.203  0.6701  0.1078 -0.2568
 5965SOL    HW118579   6.154   1.517   6.215  0.9470 -1.0882 -0.8926
 5965SOL    HW218580   6.021   1.590   6.215  1.6785  0.3658  1.5694
 5966SOL     OW18581   1.706   2.226   1.267  0.1006 -0.2448 -0.0974
 5966SOL    HW118582   1.651   2.246   1.342 -1.0491 -0.2071 -0.9306
 5966SOL    HW218583   1.650   2.175   1.209  0.8088  0.1434 -1.1548
 5967SOL     OW18584   2.552   1.691   1.408  0.3283  0.3614 -0.5849
 5967SOL    HW118585   2.571   1.735   1.491  1.9820 -1.7837  0.2528
 5967SOL    HW218586   2.606   1.737   1.344  1.2961  0.1853  0.0916
 5968SOL     OW18587   4.669   0.566   2.282 -0.0326  0.8491  0.2178
 5968SOL    HW118588   4.688   0.493   2.224  0.6316  1.1702  0.0235
 5968SOL    HW218589   4.577   0.586   2.265 -0.3355 -0.1749  0.5496
 5969SOL     OW18590   2.214   3.427   6.850 -0.1778 -0.1642 -0.0323
 5969SOL    HW118591   2.126   3.433   6.888 -0.5474 -0.2216 -0.8758
 5969SOL    HW218592   2.200   3.394   6.762  0.6214  0.6154 -0.4622
 5970SOL     OW18593   1.629   1.055   3.449  0.8951  0.2086  0.6791
 5970SOL    HW118594   1.624   1.149   3.464 -0.9758  0.0528  1.3769
 5970SOL    HW218595   1.722   1.035   3.450  1.2967  1.9456  1.2206
 5971SOL     OW18596   3.523   5.012   1.922  0.3709  0.0769  0.5843
 5971SOL    HW118597   3.599   4.973   1.965  0.0353 -0.9371  0.2835
 5971SOL    HW218598   3.470   5.047   1.993  1.0965  0.7551  0.7975
 5972SOL     OW18599   3.124   0.834   2.044  0.5903  0.6157  0.1953
 5972SOL    HW118600   3.211   0.871   2.052  1.2697 -0.7128 -0.7046
 5972SOL    HW218601   3.134   0.743   2.073 -0.1781  0.0645 -1.1884
 5973SOL     OW18602   0.938   3.528   2.088  0.0719  0.3468  0.4253
 5973SOL    HW118603   0.892   3.606   2.056 -0.1353  0.4251  0.9175
 5973SOL    HW218604   0.996   3.560   2.156  1.6247  0.4083 -0.8787
 5974SOL     OW18605   6.282   3.741   1.930 -0.1638 -0.2359  0.2374
 5974SOL    HW118606   6.195   3.770   1.959  0.2905  0.5822  0.8116
 5974SOL    HW218607   6.320   3.697   2.007 -1.1911 -3.3291 -0.8519
 5975SOL     OW18608   4.154   4.442   5.280 -0.6969  0.3479  0.2533
 5975SOL    HW118609   4.167   4.350   5.256 -0.0999 -0.0091  1.8521
 5975SOL    HW218610   4.238   4.484   5.259 -1.0965  0.6275 -0.8384
 5976SOL     OW18611   2.670   2.074   3.093  0.0426 -0.0847 -0.6824
 5976SOL    HW118612   2.586   2.041   3.061 -1.0368  0.9232  0.9707
 5976SOL    HW218613   2.665   2.062   3.188  2.0721 -0.6237 -0.5917
 5977SOL     OW18614   1.403   6.762   0.387  0.6655 -0.1208 -0.2969
 5977SOL    HW118615   1.473   6.699   0.406 -0.9228 -1.0140  3.2653
 5977SOL    HW218616   1.397   6.816   0.465 -0.7559  1.8422 -1.6659
 5978SOL     OW18617   2.684   3.510   0.017  0.6318  0.3586 -0.5425
 5978SOL    HW118618   2.633   3.430   0.006 -0.6925  1.2219 -0.9234
 5978SOL    HW218619   2.771   3.488  -0.017  0.1791 -0.7874 -1.0075
 5979SOL     OW18620   4.080   3.613   5.160 -0.2801  0.5733  0.7783
 5979SOL    HW118621   4.142   3.548   5.126 -0.9887 -0.2459  0.9950
 5979SOL    HW218622   4.016   3.623   5.089 -0.0311  1.2436  0.6440
 5980SOL     OW18623   6.379   1.760   4.325  0.4642  0.3328 -0.1214
 5980SOL    HW118624   6.432   1.833   4.294  1.2686  0.6764  1.9175
 5980SOL    HW218625   6.289   1.794   4.327  0.9095  1.5032  1.3680
 5981SOL     OW18626   2.493   0.575   2.045  0.2175 -0.3977  0.3161
 5981SOL    HW118627   2.430   0.542   2.110 -1.2024  0.8565 -0.3452
 5981SOL    HW218628   2.501   0.504   1.981 -0.5012 -0.6135  0.4510
 5982SOL     OW18629   0.782   3.639   6.027  0.3587  0.2082 -0.0398
 5982SOL    HW118630   0.773   3.734   6.037 -1.1565  0.1336 -0.3178
 5982SOL    HW218631   0.697   3.611   5.992  0.8277 -1.2363 -0.0979
 5983SOL     OW18632   4.551   2.084   0.741 -0.3419 -0.0625  0.0463
 5983SOL    HW118633   4.519   2.082   0.831 -0.9693  0.1984 -0.1568
 5983SOL    HW218634   4.499   2.153   0.700 -0.3533 -0.4641 -0.6222
 5984SOL     OW18635   5.974   0.386   5.493 -0.3857  0.1321 -0.3755
 5984SOL    HW118636   5.939   0.413   5.578 -1.4106 -1.0385 -0.4036
 5984SOL    HW218637   5.897   0.367   5.439  0.2585 -0.5083 -1.1039
 5985SOL     OW18638   3.900   0.689   2.963  0.2960  0.1900  0.4088
 5985SOL    HW118639   3.867   0.778   2.975  1.4294  0.5283  1.1416
 5985SOL    HW218640   3.994   0.696   2.980  0.3942 -1.1564  0.5021
 5986SOL     OW18641   1.541   5.013   5.335  0.3296 -0.0694  0.1658
 5986SOL    HW118642   1.456   4.976   5.309  1.0713 -0.5144 -1.8251
 5986SOL    HW218643   1.588   4.940   5.374  0.0277  0.0214  0.7049
 5987SOL     OW18644   0.414   0.381   5.371 -0.1236 -0.4974  0.0940
 5987SOL    HW118645   0.417   0.412   5.281 -0.6767  0.8207  0.5123
 5987SOL    HW218646   0.450   0.453   5.423 -2.1945 -0.1491  1.1666
 5988SOL     OW18647   0.964   2.273   2.325 -0.3547 -0.2561  0.2751
 5988SOL    HW118648   0.903   2.346   2.334 -0.2237 -0.1891  0.6220
 5988SOL    HW218649   1.051   2.313   2.333 -0.2888 -0.4871  0.7111
 5989SOL     OW18650   3.486   6.207   0.431 -0.6664 -0.2390  0.2241
 5989SOL    HW118651   3.483   6.283   0.372 -1.6984  0.6857  1.4196
 5989SOL    HW218652   3.402   6.164   0.419  0.3401 -1.9260 -1.2965
 5990SOL     OW18653   4.442   4.490   5.507  0.2081  0.3348 -0.0204
 5990SOL    HW118654   4.429   4.398   5.527 -0.7882  0.7534  1.3489
 5990SOL    HW218655   4.528   4.511   5.544 -0.3394  0.3741  1.2701
 5991SOL     OW18656   1.511   4.574   2.861  0.4086  0.3368  0.0405
 5991SOL    HW118657   1.566   4.645   2.826  0.2551  0.0299 -0.8439
 5991SOL    HW218658   1.489   4.603   2.950  3.2187 -0.2081  1.0199
 5992SOL     OW18659   6.330   5.946   1.638  0.3174 -0.0224 -0.0959
 5992SOL    HW118660   6.249   5.973   1.682 -0.1090  0.8375 -1.3625
 5992SOL    HW218661   6.383   6.026   1.634  0.7593 -0.3202 -0.2835
 5993SOL     OW18662   5.420   2.316   1.017 -0.4002  0.4047  0.1017
 5993SOL    HW118663   5.368   2.396   1.006 -0.4130  0.1781 -1.9404
 5993SOL    HW218664   5.509   2.342   0.993 -0.7932 -0.6135 -2.9453
 5994SOL     OW18665   6.555   3.427   6.662 -0.1191  0.4687  0.0261
 5994SOL    HW118666   6.645   3.457   6.674  0.7886 -1.8346 -0.4661
 5994SOL    HW218667   6.546   3.353   6.723 -0.7267 -1.0697 -1.8314
 5995SOL     OW18668   1.356   3.457   0.225 -0.0438 -0.0050 -0.3506
 5995SOL    HW118669   1.374   3.364   0.214 -1.7747 -0.4083 -0.1307
 5995SOL    HW218670   1.346   3.490   0.136  1.0770  0.1066 -0.4506
 5996SOL     OW18671   6.827   5.907   2.885  0.4549  0.1906  0.1631
 5996SOL    HW118672   6.798   5.904   2.795  0.3878  2.7412  0.0136
 5996SOL    HW218673   6.748   5.926   2.936  0.6360 -0.3401  0.6500
 5997SOL     OW18674   4.968   5.975   0.539  0.3029 -0.1673 -0.2583
 5997SOL    HW118675   4.952   5.895   0.488  0.9153 -0.3238 -0.2133
 5997SOL    HW218676   5.055   5.963   0.576 -0.6255 -0.6386  1.9149
 5998SOL     OW18677   1.365   1.598   4.803  0.2145  0.2159 -0.4981
 5998SOL    HW118678   1.330   1.511   4.788  4.3621 -1.8526  0.2178
 5998SOL    HW218679   1.392   1.597   4.895 -1.1419  2.9653  0.0256
 5999SOL     OW18680   2.867   3.553   3.365 -0.1138  1.2689  0.5820
 5999SOL    HW118681   2.824   3.528   3.447  2.6288 -0.3846  1.6811
 5999SOL    HW218682   2.819   3.505   3.297 -2.3192  2.5261  1.1518
 6000SOL     OW18683   6.809   4.379   2.544  0.0661  0.3191 -0.1065
 6000SOL    HW118684   6.873   4.399   2.475 -0.1519 -0.7473 -0.6404
 6000SOL    HW218685   6.862   4.369   2.623  0.4964  0.0699 -0.4194
 6001SOL     OW18686   2.431   4.045   5.795 -0.1327  0.5982  0.1142
 6001SOL    HW118687   2.337   4.029   5.798 -0.3636  1.3550 -1.8481
 6001SOL    HW218688   2.470   3.958   5.798 -0.9072  0.2511  0.3818
 6002SOL     OW18689   5.291   0.171   1.012  0.1168 -0.0768  0.2624
 6002SOL    HW118690   5.316   0.251   1.058 -2.3089  1.2367 -0.5117
 6002SOL    HW218691   5.366   0.151   0.956  0.8693  1.5380  0.6382
 6003SOL     OW18692   5.853   2.586   6.429 -0.2563 -0.1861 -0.5524
 6003SOL    HW118693   5.805   2.518   6.382  0.3372 -0.5054 -0.7063
 6003SOL    HW218694   5.794   2.661   6.429 -0.2055 -0.1187 -1.9649
 6004SOL     OW18695   2.549   1.566   4.128 -0.3105 -0.7206 -0.3578
 6004SOL    HW118696   2.619   1.583   4.191  0.2269 -0.0495 -1.1111
 6004SOL    HW218697   2.475   1.537   4.182  0.0275  0.1442  0.6230
 6005SOL     OW18698   4.099   2.305   5.336  0.3712 -0.1170 -0.0010
 6005SOL    HW118699   4.054   2.265   5.410  1.2373 -0.3980  0.3809
 6005SOL    HW218700   4.075   2.250   5.261  1.0839 -1.0347  0.4195
 6006SOL     OW18701   5.975   1.102   2.927 -0.1181 -0.5059 -0.2880
 6006SOL    HW118702   6.044   1.118   2.862  0.2642  0.4886  0.3370
 6006SOL    HW218703   5.899   1.149   2.893  0.5169  1.3596  0.6915
 6007SOL     OW18704   0.440   2.230   1.283  0.4778 -0.7311  0.7223
 6007SOL    HW118705   0.447   2.138   1.307 -0.4912 -0.3189  2.8614
 6007SOL    HW218706   0.349   2.240   1.254  0.7596 -0.5660 -0.1218
 6008SOL     OW18707   1.183   2.492   6.398 -0.3804 -0.1418  0.4077
 6008SOL    HW118708   1.173   2.456   6.309  0.3392 -1.0809  0.6925
 6008SOL    HW218709   1.093   2.510   6.426 -0.8656 -2.3693  0.4914
 6009SOL     OW18710   4.401   6.037   3.843 -0.0947  0.5628 -0.0700
 6009SOL    HW118711   4.421   6.068   3.755 -0.3178  1.3971  0.1641
 6009SOL    HW218712   4.347   6.106   3.881 -0.9055 -0.2767  0.3505
 6010SOL     OW18713   6.270   5.396   1.431  0.1068  0.4120  1.2311
 6010SOL    HW118714   6.363   5.408   1.450  0.3248  0.3018  0.2803
 6010SOL    HW218715   6.264   5.308   1.395  0.1529  1.5244 -1.7234
 6011SOL     OW18716   3.224   2.252   5.856 -0.0471 -0.5135  0.3925
 6011SOL    HW118717   3.226   2.341   5.822  0.4911 -0.6478  0.0531
 6011SOL    HW218718   3.201   2.198   5.781 -0.8849 -0.6187  0.7123
 6012SOL     OW18719   0.282   2.604   5.475  1.0736 -0.0896 -0.0764
 6012SOL    HW118720   0.253   2.694   5.461 -1.2016 -0.7598 -0.1070
 6012SOL    HW218721   0.336   2.584   5.399  2.1103  1.4104  0.2264
 6013SOL     OW18722   4.842   4.946   1.881 -0.3080  0.1034  0.0860
 6013SOL    HW118723   4.927   4.954   1.839 -0.7728 -0.8405 -1.0822
 6013SOL    HW218724   4.847   4.864   1.930 -0.5502  0.0537  0.0287
 6014SOL     OW18725   2.406   1.772   4.312 -0.1827 -0.2216 -0.2435
 6014SOL    HW118726   2.366   1.712   4.249 -1.4693  0.7211 -0.3599
 6014SOL    HW218727   2.336   1.792   4.375  0.5298  0.3160  0.4032
 6015SOL     OW18728   2.784   6.780   0.676  0.1390 -0.2272  0.4202
 6015SOL    HW118729   2.782   6.826   0.593 -1.2460  0.1282  0.6217
 6015SOL    HW218730   2.838   6.835   0.733  1.2122 -0.5479 -0.2606
 6016SOL     OW18731   4.910   1.709   0.320 -0.1105  0.0374  0.1809
 6016SOL    HW118732   5.002   1.737   0.319 -0.3087  0.7411 -1.2684
 6016SOL    HW218733   4.868   1.764   0.254 -2.3073  2.0486  3.0007
 6017SOL     OW18734   6.545   4.324   4.021  0.1629 -0.1668 -0.2490
 6017SOL    HW118735   6.452   4.312   4.038  0.4016 -0.2864  1.0974
 6017SOL    HW218736   6.588   4.281   4.095  1.3296 -1.3321 -1.5583
 6018SOL     OW18737   0.250   1.333   2.386  0.0902  1.0474  0.4462
 6018SOL    HW118738   0.339   1.338   2.420 -0.1637  1.3243  1.0684
 6018SOL    HW218739   0.262   1.310   2.294  0.7546 -1.1274  1.0023
 6019SOL     OW18740   6.089   6.055   4.880  0.3017 -0.1803 -0.4661
 6019SOL    HW118741   6.083   5.964   4.850  1.7392 -0.5188  0.1738
 6019SOL    HW218742   6.183   6.070   4.890  0.2569  2.0285 -2.4591
 6020SOL     OW18743   6.347   3.673   4.170  0.3269  0.5726  0.1528
 6020SOL    HW118744   6.303   3.594   4.202 -0.9324  0.9566 -0.5633
 6020SOL    HW218745   6.299   3.745   4.209  2.2491  1.0239  1.8110
 6021SOL     OW18746   5.741   0.697   4.001  0.0237  0.2071  0.1425
 6021SOL    HW118747   5.707   0.636   3.936 -2.0927  1.4518 -0.0050
 6021SOL    HW218748   5.703   0.668   4.084 -1.1368  1.3438  0.0470
 6022SOL     OW18749   5.734   0.100   1.140  0.0964 -0.4611 -0.5891
 6022SOL    HW118750   5.768   0.011   1.131  0.5070 -0.4671  0.7976
 6022SOL    HW218751   5.655   0.091   1.194  0.8622  0.1207  0.6916
 6023SOL     OW18752   0.461   4.983   2.053 -0.1165 -0.2241 -0.3364
 6023SOL    HW118753   0.537   5.038   2.032  0.2487 -1.3561 -2.1595
 6023SOL    HW218754   0.495   4.894   2.051 -1.2260 -0.6729  0.2040
 6024SOL     OW18755   5.859   2.333   2.501  0.2455  0.0374 -0.2296
 6024SOL    HW118756   5.777   2.285   2.505  0.4651 -0.3681 -0.5032
 6024SOL    HW218757   5.916   2.289   2.565 -0.6061  2.0076  2.0180
 6025SOL     OW18758   1.108   4.320   2.215 -0.3301 -0.8660 -0.1812
 6025SOL    HW118759   1.194   4.356   2.193 -0.9355  0.6722 -0.1578
 6025SOL    HW218760   1.105   4.236   2.170  1.2183 -1.0020 -0.0957
 6026SOL     OW18761   0.205   0.269   0.933 -0.2380 -0.2840  0.2490
 6026SOL    HW118762   0.122   0.307   0.904 -0.6596  0.8533  2.7239
 6026SOL    HW218763   0.205   0.280   1.028  2.0803 -1.6611  0.4822
 6027SOL     OW18764   2.997   5.705   5.219 -0.2805 -0.3462 -0.4937
 6027SOL    HW118765   2.914   5.752   5.208  1.3787  3.1681  0.3440
 6027SOL    HW218766   3.001   5.684   5.312 -0.9228 -2.0673 -0.8320
 6028SOL     OW18767   1.078   4.167   3.022  0.0489  0.0110 -0.0150
 6028SOL    HW118768   1.151   4.105   3.026  1.9415  2.1667  1.8196
 6028SOL    HW218769   1.058   4.174   2.929  2.0819 -0.8023 -0.5800
 6029SOL     OW18770   5.836   4.124   1.400 -0.1938  0.1328  0.1204
 6029SOL    HW118771   5.811   4.189   1.466  0.7653  0.2624  0.3741
 6029SOL    HW218772   5.765   4.060   1.401 -1.1400  1.1534 -0.1100
 6030SOL     OW18773   4.816   0.244   0.482  0.6656 -0.2371  0.0792
 6030SOL    HW118774   4.901   0.286   0.498 -0.6136  2.1196  1.2275
 6030SOL    HW218775   4.757   0.284   0.546 -1.0751 -2.7200  0.1710
 6031SOL     OW18776   6.320   1.623   0.293 -0.1217 -0.5590 -0.3848
 6031SOL    HW118777   6.367   1.577   0.223  1.5579 -0.5506  0.6744
 6031SOL    HW218778   6.330   1.716   0.272  0.9840 -0.5278  0.1856
 6032SOL     OW18779   0.401   1.108   5.490 -0.7301 -0.4102 -0.3317
 6032SOL    HW118780   0.319   1.060   5.478 -1.7776  1.1651  0.1249
 6032SOL    HW218781   0.436   1.076   5.573 -0.5915 -1.4803 -0.7920
 6033SOL     OW18782   5.495   2.433   3.608 -0.2914  0.5643  0.4743
 6033SOL    HW118783   5.461   2.403   3.524  0.0848  0.3426  0.3950
 6033SOL    HW218784   5.485   2.357   3.666 -1.3462  0.9911  0.8689
 6034SOL     OW18785   0.913   3.851   0.475 -0.2232 -0.4503  0.0181
 6034SOL    HW118786   0.958   3.797   0.411  0.0523  0.3728 -0.5017
 6034SOL    HW218787   0.847   3.793   0.513  1.9448 -2.0288  1.6209
 6035SOL     OW18788   3.003   4.358   6.190  0.6159  0.6656 -0.1679
 6035SOL    HW118789   3.093   4.389   6.177  0.2925  1.0201 -1.8421
 6035SOL    HW218790   2.993   4.287   6.126 -0.3469  0.7717 -0.1447
 6036SOL     OW18791   5.749   5.470   5.158 -0.4838  0.1807 -0.3840
 6036SOL    HW118792   5.799   5.493   5.080  1.2837 -0.9837  0.3472
 6036SOL    HW218793   5.745   5.374   5.158 -1.5753  0.2022  0.2934
 6037SOL     OW18794   1.601   3.359   0.410  0.0677 -0.2712 -0.5521
 6037SOL    HW118795   1.611   3.453   0.397  1.4252 -0.3525 -0.1645
 6037SOL    HW218796   1.681   3.331   0.454  0.4823 -1.9018 -2.1773
 6038SOL     OW18797   1.938   3.214   0.175 -0.3281 -0.3572  0.3068
 6038SOL    HW118798   1.921   3.124   0.204 -0.9160 -0.9206 -1.6653
 6038SOL    HW218799   2.021   3.208   0.127 -1.2626 -0.2450 -1.3906
 6039SOL     OW18800   0.676   5.148   2.953  0.0887 -0.2221  0.0680
 6039SOL    HW118801   0.626   5.124   3.031  1.6478 -1.8250  0.6114
 6039SOL    HW218802   0.656   5.241   2.941  0.0667  0.1670  2.5682
 6040SOL     OW18803   6.777   5.915   6.763 -0.1691 -0.4193  0.4376
 6040SOL    HW118804   6.695   5.947   6.725  0.6032  2.0405  0.6556
 6040SOL    HW218805   6.774   5.943   6.854  0.5764 -1.0409  0.6670
 6041SOL     OW18806   5.961   0.086   3.932 -0.0942 -0.7554 -0.3862
 6041SOL    HW118807   5.953   0.176   3.899  0.8391 -0.1399  0.9862
 6041SOL    HW218808   6.050   0.060   3.909  0.3204 -0.5815  0.9364
 6042SOL     OW18809   4.657   0.915   5.069 -0.0668  0.3591 -0.3502
 6042SOL    HW118810   4.591   0.845   5.066 -0.6390  0.7574  1.4546
 6042SOL    HW218811   4.669   0.932   5.163  0.9187  1.8816 -0.7198
 6043SOL     OW18812   5.712   5.319   0.840 -0.1906 -0.3883  0.1558
 6043SOL    HW118813   5.693   5.306   0.933 -1.5138  1.3172  0.1910
 6043SOL    HW218814   5.807   5.322   0.835 -0.0276 -2.4467  1.1186
 6044SOL     OW18815   4.777   1.176   6.123 -0.5053 -0.4712 -0.2552
 6044SOL    HW118816   4.814   1.104   6.175  0.4538  0.2788  0.1193
 6044SOL    HW218817   4.814   1.164   6.036 -0.4837 -0.5316 -0.2380
 6045SOL     OW18818   2.379   2.777   4.871  0.5809 -0.1218  0.3137
 6045SOL    HW118819   2.472   2.796   4.864  0.5704  0.8435  2.1165
 6045SOL    HW218820   2.338   2.862   4.887 -0.1617 -0.8565  2.7977
 6046SOL     OW18821   1.539   3.483   2.532 -0.1683  0.4331 -0.6765
 6046SOL    HW118822   1.584   3.520   2.456  0.1895  0.0491 -0.6579
 6046SOL    HW218823   1.525   3.558   2.590 -1.2340  0.8904 -1.4878
 6047SOL     OW18824   6.280   0.448   2.561  0.4879  0.1057  0.7658
 6047SOL    HW118825   6.247   0.486   2.642  0.6094 -1.1139  1.4138
 6047SOL    HW218826   6.234   0.495   2.492 -0.8851  0.0259  1.5839
 6048SOL     OW18827   6.470   1.389   4.488 -0.1252  0.0559 -0.0244
 6048SOL    HW118828   6.518   1.357   4.411 -0.3557  0.5818 -0.3964
 6048SOL    HW218829   6.379   1.393   4.458 -0.0895  1.1730 -0.0355
 6049SOL     OW18830   6.258   2.214   0.196  0.0345  0.2247  0.1807
 6049SOL    HW118831   6.295   2.282   0.140  0.1831 -0.6030 -0.7452
 6049SOL    HW218832   6.334   2.173   0.237  0.0893 -0.7005 -0.8162
 6050SOL     OW18833   2.003   5.599   1.080 -0.6895 -0.2432 -0.5554
 6050SOL    HW118834   1.977   5.559   0.997  1.1629 -0.0195 -1.2811
 6050SOL    HW218835   2.061   5.535   1.121 -0.4630  0.2504 -0.0990
 6051SOL     OW18836   3.536   1.095   4.339 -0.8083 -0.4671 -0.0317
 6051SOL    HW118837   3.554   1.188   4.322 -1.9946 -0.0933  0.6138
 6051SOL    HW218838   3.573   1.080   4.426 -1.3533 -0.3609  0.2247
 6052SOL     OW18839   1.879   5.736   6.829 -0.1457 -0.2126 -0.0650
 6052SOL    HW118840   1.796   5.730   6.782  0.8223 -0.1729 -1.8368
 6052SOL    HW218841   1.905   5.645   6.844 -0.9062 -0.2445  1.3301
 6053SOL     OW18842   4.659   2.646   1.153  0.0493  0.4496  0.4164
 6053SOL    HW118843   4.724   2.587   1.116 -0.5285  0.1797 -0.1706
 6053SOL    HW218844   4.654   2.621   1.246 -0.4192 -0.6481  0.1167
 6054SOL     OW18845   6.817   5.677   1.792  0.3161 -0.2267 -0.1118
 6054SOL    HW118846   6.853   5.632   1.716  1.3469  1.1384 -0.4635
 6054SOL    HW218847   6.879   5.747   1.811 -1.2054  1.0633  0.3981
 6055SOL     OW18848   2.815   3.619   4.501 -0.1600 -0.1155  0.3587
 6055SOL    HW118849   2.806   3.536   4.454 -2.6061  0.3351 -0.1583
 6055SOL    HW218850   2.725   3.641   4.526  0.6570  1.4759  2.1059
 6056SOL     OW18851   3.815   5.840   1.021  0.1127  0.2002  0.2544
 6056SOL    HW118852   3.855   5.838   0.934  2.3741  1.3046  1.1784
 6056SOL    HW218853   3.791   5.749   1.039  2.0998 -0.5242 -0.4909
 6057SOL     OW18854   2.174   4.364   3.915 -0.2529 -0.1822  0.1576
 6057SOL    HW118855   2.264   4.384   3.889 -0.1900  0.1587  0.6288
 6057SOL    HW218856   2.158   4.276   3.880 -0.5471  0.6618 -2.0142
 6058SOL     OW18857   6.803   3.689   2.767 -0.4037 -0.1017 -0.5951
 6058SOL    HW118858   6.870   3.715   2.830  0.4464  0.5288 -1.7230
 6058SOL    HW218859   6.745   3.631   2.816  1.5399 -1.5339  0.1358
 6059SOL     OW18860   5.757   4.472   0.940 -0.0808  0.5949  0.2074
 6059SOL    HW118861   5.841   4.511   0.918 -0.9410  1.8255 -1.1278
 6059SOL    HW218862   5.769   4.435   1.027  1.4846  1.7935  0.5417
 6060SOL     OW18863   5.307   5.055   4.106  0.2713 -0.2154 -0.4862
 6060SOL    HW118864   5.284   5.128   4.164 -0.0281 -0.7317  0.0498
 6060SOL    HW218865   5.228   5.003   4.099  0.7737 -1.0720 -0.0020
 6061SOL     OW18866   2.557   4.754   5.378 -0.3542 -0.6276 -0.1804
 6061SOL    HW118867   2.533   4.663   5.360  0.2307 -1.0274  0.8981
 6061SOL    HW218868   2.585   4.753   5.470 -1.7244  0.9438  0.3022
 6062SOL     OW18869   1.138   4.149   1.628 -0.0251  0.3760 -0.0998
 6062SOL    HW118870   1.052   4.108   1.619  0.0686 -0.0336  0.8095
 6062SOL    HW218871   1.186   4.091   1.687  0.4235  1.3180  0.4733
 6063SOL     OW18872   0.881   3.240   0.168  0.3815 -0.2133 -0.4755
 6063SOL    HW118873   0.892   3.293   0.090 -1.4080  0.7974 -0.1063
 6063SOL    HW218874   0.794   3.200   0.158  1.5968 -2.9699 -0.6458
 6064SOL     OW18875   0.198   6.442   1.025 -0.3066  0.0565 -0.1440
 6064SOL    HW118876   0.218   6.362   1.075  2.1989  0.5461 -0.2431
 6064SOL    HW218877   0.155   6.411   0.946 -1.0717 -1.0237  0.6635
 6065SOL     OW18878   2.972   5.028   0.356  0.1749  0.3864 -0.7517
 6065SOL    HW118879   2.882   5.010   0.385 -0.4491 -1.1297 -3.3521
 6065SOL    HW218880   2.982   5.122   0.369 -0.6389  0.1778  2.4265
 6066SOL     OW18881   5.392   1.758   5.207 -0.4103  0.4180  0.0466
 6066SOL    HW118882   5.485   1.776   5.212 -0.1248  0.0508 -2.5496
 6066SOL    HW218883   5.381   1.672   5.248  0.1675  0.9448  1.3616
 6067SOL     OW18884   4.585   1.012   5.976  0.3342 -0.1485  0.0108
 6067SOL    HW118885   4.580   1.023   5.881 -0.3861 -0.5568 -0.0049
 6067SOL    HW218886   4.574   1.100   6.011  4.6650  0.7773 -0.3434
 6068SOL     OW18887   2.336   0.935   0.415 -0.2653  0.4202 -0.4089
 6068SOL    HW118888   2.340   0.839   0.422  0.5169  0.5511  1.7038
 6068SOL    HW218889   2.258   0.959   0.464  0.4820  0.9416  0.5548
 6069SOL     OW18890   6.371   0.566   0.837  0.0280 -0.2269  0.0105
 6069SOL    HW118891   6.350   0.650   0.797  0.5813 -1.1818 -2.4851
 6069SOL    HW218892   6.387   0.507   0.763  1.9839 -1.9389  1.6525
 6070SOL     OW18893   5.381   4.207   4.755 -0.2148  0.2299 -0.4600
 6070SOL    HW118894   5.378   4.287   4.702  0.8704  0.4187 -0.2486
 6070SOL    HW218895   5.438   4.229   4.828 -0.9536 -0.3310  0.3048
 6071SOL     OW18896   4.425   0.618   4.734  0.2462 -0.2592 -0.1385
 6071SOL    HW118897   4.477   0.553   4.687  0.0279 -0.3795 -0.2120
 6071SOL    HW218898   4.335   0.588   4.725  0.3985 -1.9983  2.9714
 6072SOL     OW18899   3.638   2.482   3.775  0.3405  0.6758 -0.0077
 6072SOL    HW118900   3.726   2.464   3.806 -0.3480  1.5280  2.7687
 6072SOL    HW218901   3.622   2.574   3.799 -1.4565  0.3811  0.1235
 6073SOL     OW18902   3.979   6.384   5.537  0.1132  0.0591 -0.1747
 6073SOL    HW118903   4.000   6.472   5.506 -0.4748  0.3365  0.1975
 6073SOL    HW218904   3.989   6.389   5.632  1.5049 -0.6750 -0.2483
 6074SOL     OW18905   2.057   4.951   6.388 -0.6202 -0.1253  0.3102
 6074SOL    HW118906   2.097   4.866   6.406 -1.7715 -0.7690 -0.0669
 6074SOL    HW218907   1.984   4.957   6.449 -1.9143 -0.4312 -1.1477
 6075SOL     OW18908   0.942   1.154   0.284 -0.7713 -0.1370 -0.0681
 6075SOL    HW118909   0.847   1.161   0.296 -1.0206 -0.3649 -1.6580
 6075SOL    HW218910   0.958   1.195   0.199  0.4343 -0.8605 -0.2061
 6076SOL     OW18911   0.801   4.412   0.025  0.6226  0.3103 -0.3350
 6076SOL    HW118912   0.712   4.384   0.006  0.4678  0.0062  0.7515
 6076SOL    HW218913   0.844   4.415  -0.061 -0.7870  1.8542 -1.0490
 6077SOL     OW18914   5.898   3.415   5.578  0.1122  0.2856 -0.1478
 6077SOL    HW118915   5.893   3.448   5.668 -1.0182 -0.6601  0.1589
 6077SOL    HW218916   5.818   3.446   5.536  0.9137  1.2491 -1.0553
 6078SOL     OW18917   5.457   3.765   3.112  0.9113  0.6005 -0.1221
 6078SOL    HW118918   5.441   3.775   3.018  0.0668  0.9115  0.0398
 6078SOL    HW218919   5.415   3.682   3.134  1.3847  0.3725 -0.0745
 6079SOL     OW18920   1.842   5.724   6.048  0.3500 -0.6824 -0.3236
 6079SOL    HW118921   1.788   5.769   6.113  1.3727 -0.7396  0.5742
 6079SOL    HW218922   1.779   5.676   5.994 -0.4604 -1.3154  1.1376
 6080SOL     OW18923   0.111   5.855   1.895  0.4604 -0.2000  0.7101
 6080SOL    HW118924   0.144   5.908   1.822  0.9255 -2.0816 -0.5130
 6080SOL    HW218925   0.156   5.889   1.972 -0.1984  1.9834  0.2105
 6081SOL     OW18926   0.589   5.472   0.095 -0.8215 -0.8219 -0.3696
 6081SOL    HW118927   0.581   5.561   0.130 -1.4777 -0.3349 -1.6676
 6081SOL    HW218928   0.675   5.442   0.125 -0.0686  0.7105 -0.8636
 6082SOL     OW18929   6.040   6.715   6.810 -0.2248  0.0778  0.5435
 6082SOL    HW118930   6.112   6.701   6.872 -0.8141 -1.0703  1.0014
 6082SOL    HW218931   6.059   6.655   6.737  0.2063  1.0669 -0.1803
 6083SOL     OW18932   5.381   4.516   1.087 -0.3620 -0.5544  0.3924
 6083SOL    HW118933   5.412   4.431   1.056  1.3386  0.3633 -0.6537
 6083SOL    HW218934   5.419   4.526   1.174 -0.6030 -0.8967  0.5337
 6084SOL     OW18935   6.725   0.154   3.174  0.1279  0.3659 -0.1928
 6084SOL    HW118936   6.697   0.245   3.180  0.5757  0.5290 -0.5239
 6084SOL    HW218937   6.648   0.107   3.144  0.0063  0.6970 -0.4042
 6085SOL     OW18938   0.162   2.096   3.463  0.1975 -0.3492 -0.1423
 6085SOL    HW118939   0.175   2.148   3.543 -1.0750  0.4758 -0.4477
 6085SOL    HW218940   0.202   2.148   3.394  1.8222 -1.3323 -0.0095
 6086SOL     OW18941   1.910   4.580   5.783 -0.6639 -0.1034 -0.5191
 6086SOL    HW118942   1.951   4.494   5.768  0.7992  0.1989  1.3719
 6086SOL    HW218943   1.942   4.607   5.868 -0.8591  2.4845 -1.1888
 6087SOL     OW18944   5.519   6.734   2.671 -0.4545 -0.2066  0.5541
 6087SOL    HW118945   5.504   6.650   2.713 -2.7033  0.2712  0.8408
 6087SOL    HW218946   5.549   6.791   2.743  0.8246 -0.6516  0.4072
 6088SOL     OW18947   0.034   1.431   5.649  0.5080 -0.0864 -0.2455
 6088SOL    HW118948   0.040   1.468   5.561 -0.1745 -0.7158 -0.5765
 6088SOL    HW218949  -0.059   1.439   5.672  0.6725  0.0353  0.4024
 6089SOL     OW18950   2.894   3.231   5.458 -0.7751  0.3532 -0.4176
 6089SOL    HW118951   2.884   3.253   5.366 -0.1834  1.5323 -0.2251
 6089SOL    HW218952   2.806   3.232   5.494 -0.8580  1.4740 -0.6418
 6090SOL     OW18953   2.788   5.724   5.461 -0.1538  0.1126  0.2891
 6090SOL    HW118954   2.880   5.702   5.475 -0.7025 -2.1212  0.8307
 6090SOL    HW218955   2.746   5.710   5.545 -1.1405  0.3087 -0.1490
 6091SOL     OW18956   2.496   1.005   4.532  0.0007  0.0620  0.0605
 6091SOL    HW118957   2.435   1.079   4.534  0.5616  0.5206  1.3221
 6091SOL    HW218958   2.498   0.973   4.622  1.7522  0.1984  0.1169
 6092SOL     OW18959   5.213   0.064   6.638 -0.3184  0.5256  0.3370
 6092SOL    HW118960   5.122   0.093   6.645 -0.3834  0.2625  0.6293
 6092SOL    HW218961   5.245   0.064   6.728  0.1647  1.2191  0.1708
 6093SOL     OW18962   1.294   3.455   6.840  0.3630 -0.2733  0.1103
 6093SOL    HW118963   1.299   3.470   6.746 -0.0498  0.5378  0.2074
 6093SOL    HW218964   1.211   3.409   6.853  0.8368 -1.1815 -0.0086
 6094SOL     OW18965   3.807   3.258   4.172  0.5164 -0.4718  0.5207
 6094SOL    HW118966   3.746   3.192   4.204 -0.5430 -0.3464 -1.0831
 6094SOL    HW218967   3.760   3.341   4.183 -1.3611 -0.6193 -3.9635
 6095SOL     OW18968   3.268   5.210   5.796 -0.2923 -0.1798 -0.2016
 6095SOL    HW118969   3.260   5.300   5.827 -0.4592 -0.8488  1.8236
 6095SOL    HW218970   3.350   5.209   5.746  0.2746  0.8458  0.6719
 6096SOL     OW18971   5.431   6.388   2.797  0.1627 -0.2485 -0.4100
 6096SOL    HW118972   5.505   6.401   2.737 -0.0128 -1.3709 -0.8948
 6096SOL    HW218973   5.471   6.358   2.879  0.3020 -0.0134 -0.3907
 6097SOL     OW18974   5.191   4.145   3.727 -0.0466 -0.4902  0.2991
 6097SOL    HW118975   5.147   4.229   3.740 -1.0681 -1.1924  1.5938
 6097SOL    HW218976   5.160   4.115   3.641 -2.9651 -1.4031  1.5660
 6098SOL     OW18977   5.180   3.349   6.771 -0.2686 -0.3116 -0.1590
 6098SOL    HW118978   5.226   3.413   6.716  0.9154 -0.7176  0.3232
 6098SOL    HW218979   5.145   3.401   6.844  2.0103 -0.3736  1.0560
 6099SOL     OW18980   1.328   6.526   3.084  0.0583 -0.6093  0.3705
 6099SOL    HW118981   1.372   6.441   3.093  0.4765 -0.4650 -0.2479
 6099SOL    HW218982   1.377   6.571   3.016 -0.3623  0.0070  0.4693
 6100SOL     OW18983   5.059   4.211   2.717  0.1953  0.4807  0.2679
 6100SOL    HW118984   5.058   4.231   2.623 -0.6492  1.7698  0.5273
 6100SOL    HW218985   5.002   4.134   2.725  1.7989 -0.8559 -0.4838
 6101SOL     OW18986   3.100   5.890   5.785  0.2991  0.0140  0.0721
 6101SOL    HW118987   3.187   5.854   5.804  0.1188 -0.1585  0.5806
 6101SOL    HW218988   3.103   5.979   5.819  0.6381  0.3818 -0.8987
 6102SOL     OW18989   0.751   2.065   2.971 -0.2395 -0.0355  0.1368
 6102SOL    HW118990   0.811   2.130   2.935 -0.1851  0.0447  0.3730
 6102SOL    HW218991   0.666   2.109   2.974 -0.7444 -0.7490 -1.9966
 6103SOL     OW18992   5.438   2.507   2.753 -0.1407  0.0074  0.2916
 6103SOL    HW118993   5.479   2.440   2.698  1.3670 -0.8757  2.3431
 6103SOL    HW218994   5.507   2.573   2.766 -1.3220  1.5789 -0.9659
 6104SOL     OW18995   0.475   5.075   6.601  0.0676 -0.2781 -0.2868
 6104SOL    HW118996   0.413   5.094   6.671  0.5856  0.6723 -0.0760
 6104SOL    HW218997   0.426   5.017   6.541 -0.6412 -0.4394  0.4339
 6105SOL     OW18998   6.479   2.487   3.187 -0.4503  0.0199 -0.3446
 6105SOL    HW118999   6.426   2.454   3.115  0.6435 -0.4578 -0.9549
 6105SOL    HW219000   6.564   2.444   3.177 -0.2853 -0.0957  1.2668
 6106SOL     OW19001   5.277   1.172   2.337  0.1887  0.1788  0.1136
 6106SOL    HW119002   5.276   1.249   2.393  1.7264 -0.0928  0.5431
 6106SOL    HW219003   5.201   1.183   2.280 -0.5041  1.2302  1.1969
 6107SOL     OW19004   3.981   4.694   2.781  0.6117  0.2782 -0.2831
 6107SOL    HW119005   4.007   4.721   2.869  1.7984 -0.8292 -0.2726
 6107SOL    HW219006   4.016   4.763   2.724  2.4007 -0.4363 -0.1269
 6108SOL     OW19007   4.505   2.984   0.602  0.1959 -0.1497  0.2278
 6108SOL    HW119008   4.521   3.077   0.583  1.8495 -0.4468 -0.0071
 6108SOL    HW219009   4.439   2.957   0.538  0.5646  0.5847 -0.4812
 6109SOL     OW19010   6.608   2.647   0.242 -0.2648 -0.1926 -0.4764
 6109SOL    HW119011   6.537   2.635   0.179 -1.0642 -1.5619  0.6184
 6109SOL    HW219012   6.666   2.711   0.201 -1.6912  0.3345 -1.7715
 6110SOL     OW19013   4.673   6.303   6.740 -0.6982 -0.1910 -0.2330
 6110SOL    HW119014   4.586   6.342   6.733  0.0735  1.5749 -0.6670
 6110SOL    HW219015   4.703   6.296   6.649  0.3551  1.0883 -0.0147
 6111SOL     OW19016   2.137   0.977   0.589 -0.5254  0.2978  0.0168
 6111SOL    HW119017   2.137   1.048   0.654  3.1188 -0.6639  1.3355
 6111SOL    HW219018   2.054   0.931   0.604 -0.7571  1.3550  2.6175
 6112SOL     OW19019   1.305   1.959   5.653 -0.2585 -0.4393  0.0406
 6112SOL    HW119020   1.386   2.009   5.655  0.3308 -1.4095  0.9975
 6112SOL    HW219021   1.241   2.019   5.615  0.4411  1.0222  1.0954
 6113SOL     OW19022   6.649   4.335   2.342 -0.2987  0.4614  0.3428
 6113SOL    HW119023   6.580   4.273   2.367 -1.8815  1.6968 -0.7247
 6113SOL    HW219024   6.694   4.355   2.424  0.5312 -2.3002  0.6925
 6114SOL     OW19025   4.760   6.046   5.383 -0.4135 -0.2246  0.0722
 6114SOL    HW119026   4.854   6.029   5.390 -0.6430 -1.3729  0.7571
 6114SOL    HW219027   4.736   6.085   5.467 -0.3056  1.4489 -0.6508
 6115SOL     OW19028   5.130   4.750   4.381 -0.7319 -0.1057 -0.1928
 6115SOL    HW119029   5.089   4.743   4.468  0.0890 -1.2142  0.1121
 6115SOL    HW219030   5.186   4.827   4.387 -0.9503  0.0294  0.1370
 6116SOL     OW19031   2.927   4.144   5.452 -0.1175  0.3087  0.2244
 6116SOL    HW119032   2.987   4.217   5.434 -0.5572  1.0679  1.6686
 6116SOL    HW219033   2.853   4.185   5.497 -1.6434 -0.6448 -1.3257
 6117SOL     OW19034   3.240   3.283   6.418  0.0423 -0.2643 -0.4523
 6117SOL    HW119035   3.164   3.337   6.397  0.7481  1.1829  0.5643
 6117SOL    HW219036   3.285   3.331   6.488  1.8350 -1.1446 -0.9505
 6118SOL     OW19037   3.633   6.581   1.814  0.3906  0.7398 -0.1811
 6118SOL    HW119038   3.697   6.519   1.848  1.5172  1.0031 -1.7106
 6118SOL    HW219039   3.549   6.551   1.848  1.2966  0.3482  1.8192
 6119SOL     OW19040   6.716   3.481   4.232  0.3739 -0.4072  0.1205
 6119SOL    HW119041   6.792   3.458   4.177 -0.2843 -1.7845 -0.2532
 6119SOL    HW219042   6.644   3.431   4.195 -0.7881  1.0228  0.3603
 6120SOL     OW19043   0.957   2.563   6.576 -0.5524 -0.0032  0.0833
 6120SOL    HW119044   0.907   2.640   6.549  0.1765  0.7095  0.7472
 6120SOL    HW219045   0.944   2.557   6.670 -0.1707 -0.3923  0.1150
 6121SOL     OW19046   2.802   6.654   0.019 -0.3077 -0.0474  0.1826
 6121SOL    HW119047   2.712   6.674   0.044 -0.3801  2.4709 -1.7093
 6121SOL    HW219048   2.853   6.674   0.097 -1.0897  2.0068  0.2341
 6122SOL     OW19049   6.338   6.043   4.623 -0.0492 -0.0178  0.4190
 6122SOL    HW119050   6.334   6.060   4.717  0.1013 -1.4323  0.7129
 6122SOL    HW219051   6.276   5.971   4.610  0.9134 -0.7481 -0.3195
 6123SOL     OW19052   2.491   3.425   3.804  0.3681 -0.2720 -0.2802
 6123SOL    HW119053   2.401   3.409   3.832  0.4011  2.0329  1.4357
 6123SOL    HW219054   2.486   3.507   3.754  1.0678 -1.8705 -3.2136
 6124SOL     OW19055   4.253   5.621   5.552 -0.1450 -0.4142  0.4004
 6124SOL    HW119056   4.310   5.642   5.478 -1.7525 -0.7813 -1.0125
 6124SOL    HW219057   4.197   5.698   5.561 -0.3349 -0.6066  0.8640
 6125SOL     OW19058   0.568   6.365   0.811  0.0712 -0.0983  0.7207
 6125SOL    HW119059   0.561   6.458   0.787 -0.2346 -0.1629  0.5484
 6125SOL    HW219060   0.660   6.353   0.834  0.7590 -0.3340 -1.7858
 6126SOL     OW19061   6.344   0.181   1.303  0.5429 -0.2404  0.1205
 6126SOL    HW119062   6.400   0.111   1.270 -0.4167 -0.3662 -1.3500
 6126SOL    HW219063   6.308   0.222   1.224  0.7424  1.6396  0.9521
 6127SOL     OW19064   4.312   6.599   0.429 -0.0107 -0.2418 -1.2018
 6127SOL    HW119065   4.318   6.510   0.395 -0.8200  0.5352 -3.5884
 6127SOL    HW219066   4.364   6.652   0.369 -2.1770  1.3416 -1.8158
 6128SOL     OW19067   0.921   5.523   0.664  0.5021  0.0146  0.0483
 6128SOL    HW119068   0.867   5.496   0.738 -0.2865  1.0943 -0.1229
 6128SOL    HW219069   0.932   5.617   0.675 -0.5843  0.4091 -1.8120
 6129SOL     OW19070   0.779   4.887   1.852 -0.0517  0.0645  0.0743
 6129SOL    HW119071   0.764   4.792   1.858 -1.2537  0.2810  0.9911
 6129SOL    HW219072   0.815   4.911   1.938  2.1131  0.1730 -0.8100
 6130SOL     OW19073   6.620   5.620   2.415  0.4690 -0.7945  0.4379
 6130SOL    HW119074   6.585   5.613   2.326  0.3523 -1.0520  0.5008
 6130SOL    HW219075   6.711   5.646   2.403  0.3068 -0.2857  0.2631
 6131SOL     OW19076   0.050   2.073   3.078 -0.5064  0.0460 -0.1882
 6131SOL    HW119077   0.006   2.041   3.156 -1.3227  1.3626 -0.0889
 6131SOL    HW219078   0.070   2.164   3.096 -0.2022  0.2226 -1.2984
 6132SOL     OW19079   1.265   0.592   6.481 -0.3696 -0.1802  0.4698
 6132SOL    HW119080   1.255   0.655   6.409 -0.0246  0.1339  0.6951
 6132SOL    HW219081   1.240   0.642   6.559  0.5277 -0.1233  0.7317
 6133SOL     OW19082   3.356   2.676   4.043 -0.5027  0.1392 -0.1595
 6133SOL    HW119083   3.420   2.678   4.115  0.1134 -1.1376 -0.6259
 6133SOL    HW219084   3.364   2.761   4.001  1.0508 -0.0456 -0.3070
 6134SOL     OW19085   0.431   3.012   5.070 -0.0577 -0.3723 -0.1456
 6134SOL    HW119086   0.507   2.982   5.120 -1.0498 -1.2083  0.8889
 6134SOL    HW219087   0.363   2.947   5.088 -1.6591  1.4332  0.5610
 6135SOL     OW19088   3.118   5.245   2.373 -0.7265 -0.1815 -0.0996
 6135SOL    HW119089   3.047   5.292   2.330 -1.1184 -0.9589 -0.3299
 6135SOL    HW219090   3.120   5.160   2.329 -0.1869 -0.4639  0.4562
 6136SOL     OW19091   4.304   2.424   6.708  0.0718  0.0512  0.6161
 6136SOL    HW119092   4.223   2.383   6.737 -0.1619  0.0997  0.0295
 6136SOL    HW219093   4.279   2.513   6.684  0.2525 -0.0010  0.2216
 6137SOL     OW19094   1.091   1.862   5.822  0.0391  0.1785 -0.1826
 6137SOL    HW119095   1.129   1.906   5.745  0.3367  1.2421  0.5465
 6137SOL    HW219096   1.165   1.819   5.864 -0.5168 -2.5649 -1.8285
 6138SOL     OW19097   6.758   6.490   0.526  0.6826  0.4719 -0.4615
 6138SOL    HW119098   6.787   6.479   0.617  0.3912  0.0309 -0.4219
 6138SOL    HW219099   6.798   6.417   0.479 -0.8733 -0.5268 -0.2882
 6139SOL     OW19100   2.555   3.306   3.416 -0.1867 -0.2216 -0.3302
 6139SOL    HW119101   2.553   3.211   3.406  0.6326 -0.2109 -0.6274
 6139SOL    HW219102   2.542   3.340   3.327 -2.6270 -0.0106  0.0404
 6140SOL     OW19103   5.185   2.130   3.087  0.2723 -0.1798 -0.2080
 6140SOL    HW119104   5.250   2.164   3.024 -0.4011 -0.1953 -0.9268
 6140SOL    HW219105   5.237   2.106   3.164  1.0402  0.4256 -0.5191
 6141SOL     OW19106   6.096   5.355   4.285  0.0042  0.1266 -0.1194
 6141SOL    HW119107   6.016   5.305   4.302 -1.3941  1.6467 -1.7803
 6141SOL    HW219108   6.097   5.423   4.353  0.2018 -0.2040  0.2166
 6142SOL     OW19109   3.005   4.139   2.883 -0.7374  0.2137 -0.1741
 6142SOL    HW119110   3.082   4.083   2.888 -0.9287 -0.1146 -0.7386
 6142SOL    HW219111   3.027   4.216   2.936 -0.7482 -0.7155  1.2225
 6143SOL     OW19112   5.627   0.831   5.489 -0.2575 -0.0245  0.0424
 6143SOL    HW119113   5.533   0.833   5.505 -0.4672  0.4618 -1.1456
 6143SOL    HW219114   5.666   0.865   5.570 -1.1994  1.4196 -0.0788
 6144SOL     OW19115   4.121   0.241   5.872  0.0035 -0.3505  0.3291
 6144SOL    HW119116   4.108   0.331   5.903 -0.8680  0.9566 -3.3691
 6144SOL    HW219117   4.212   0.238   5.845  0.1845 -0.8130  0.9607
 6145SOL     OW19118   3.370   4.822   1.323  0.5903 -0.2494  0.2001
 6145SOL    HW119119   3.410   4.850   1.241 -0.9556 -1.1723 -0.9165
 6145SOL    HW219120   3.363   4.727   1.316  0.7334 -0.3828  1.5577
 6146SOL     OW19121   0.230   4.105   2.622 -0.0055  0.3890 -0.5758
 6146SOL    HW119122   0.179   4.182   2.648  0.1366  0.2068  0.2977
 6146SOL    HW219123   0.205   4.038   2.686 -0.8403 -0.6006 -1.8752
 6147SOL     OW19124   5.954   6.227   0.412 -0.1139  0.0322  0.2268
 6147SOL    HW119125   6.038   6.185   0.433 -0.2922 -0.9989 -1.0002
 6147SOL    HW219126   5.955   6.237   0.317 -1.3296  0.1356  0.2077
 6148SOL     OW19127   1.294   1.197   6.411 -0.1280  0.2582 -0.3769
 6148SOL    HW119128   1.202   1.214   6.430 -0.2356  2.4607 -2.4839
 6148SOL    HW219129   1.341   1.233   6.486 -0.9408 -1.3097  0.9424
 6149SOL     OW19130   6.286   5.439   3.244 -0.4892  0.0526 -0.0365
 6149SOL    HW119131   6.269   5.449   3.150  4.6772  1.1317 -1.1906
 6149SOL    HW219132   6.243   5.514   3.285 -2.8992 -0.4672 -1.4002
 6150SOL     OW19133   1.981   2.741   0.429 -0.0419 -0.0087  0.2115
 6150SOL    HW119134   1.967   2.809   0.496 -0.6190 -0.5304  0.6398
 6150SOL    HW219135   1.913   2.676   0.447  0.5730 -0.7601 -0.1165
 6151SOL     OW19136   0.792   6.084   5.557 -0.1976 -0.8428  0.1055
 6151SOL    HW119137   0.838   6.156   5.600 -1.6725  1.5029 -1.9638
 6151SOL    HW219138   0.837   6.074   5.473 -0.1357 -2.2267  0.2910
 6152SOL     OW19139   2.254   5.580   6.317  0.0034  0.3590 -0.1123
 6152SOL    HW119140   2.278   5.621   6.233 -0.1475  0.1965 -0.2359
 6152SOL    HW219141   2.166   5.614   6.335  0.2896  0.8957  0.3008
 6153SOL     OW19142   5.924   6.757   3.714  0.7139  0.1104  0.1016
 6153SOL    HW119143   5.994   6.766   3.650  1.2373  1.1445  0.7879
 6153SOL    HW219144   5.939   6.828   3.776 -1.1764  0.6172  0.0495
 6154SOL     OW19145   6.529   0.142   4.909 -0.2838 -0.1190  0.5958
 6154SOL    HW119146   6.475   0.067   4.933 -0.0999 -1.2232 -2.0579
 6154SOL    HW219147   6.591   0.107   4.845  0.1749  2.1749 -0.3169
 6155SOL     OW19148   3.231   6.829   1.230  0.2411 -0.3526  0.0924
 6155SOL    HW119149   3.208   6.913   1.269  1.4885 -1.1743  2.8632
 6155SOL    HW219150   3.278   6.783   1.299  0.0996 -3.1247 -1.5160
 6156SOL     OW19151   3.980   4.488   0.555  0.0588 -0.0333 -0.3556
 6156SOL    HW119152   4.042   4.488   0.482  1.3510  0.4331  0.7002
 6156SOL    HW219153   4.032   4.462   0.631 -1.4033 -1.1610  0.3135
 6157SOL     OW19154   3.672   6.256   2.099  0.2450 -0.0529 -0.3382
 6157SOL    HW119155   3.638   6.186   2.155 -0.1313  0.0240 -0.4648
 6157SOL    HW219156   3.702   6.324   2.160 -0.3494  0.1165 -0.2298
 6158SOL     OW19157   6.661   5.314   6.841  0.0047 -0.0537 -0.1129
 6158SOL    HW119158   6.679   5.372   6.767 -2.7973  1.0938 -0.0177
 6158SOL    HW219159   6.746   5.277   6.864  1.8722  3.6153 -0.5239
 6159SOL     OW19160   6.612   6.552   6.517 -0.8500 -0.1255  0.4096
 6159SOL    HW119161   6.537   6.584   6.567 -1.3572  0.0844 -0.4621
 6159SOL    HW219162   6.641   6.474   6.565 -0.8064  0.5321  1.4708
 6160SOL     OW19163   3.834   4.742   3.317 -0.2401 -0.2206 -0.1052
 6160SOL    HW119164   3.890   4.809   3.358 -0.4748 -0.8277  1.2315
 6160SOL    HW219165   3.808   4.685   3.389 -0.0682 -1.7558 -1.2132
 6161SOL     OW19166   1.398   1.147   4.996 -0.0227  0.5221 -0.4050
 6161SOL    HW119167   1.453   1.129   5.072  0.1193 -0.6249 -0.7631
 6161SOL    HW219168   1.316   1.181   5.033 -0.3384 -0.9681  0.3474
 6162SOL     OW19169   6.817   6.012   6.454 -0.1232 -0.2978 -0.2189
 6162SOL    HW119170   6.774   6.097   6.446  0.6205  0.2970  1.5213
 6162SOL    HW219171   6.745   5.950   6.470 -0.5634  0.2017 -0.2566
 6163SOL     OW19172   1.905   4.512   5.120 -0.2317  0.6410  0.4356
 6163SOL    HW119173   1.901   4.598   5.161 -0.8605  2.6098 -3.3402
 6163SOL    HW219174   1.955   4.526   5.040 -0.3861 -2.5497 -0.3438
 6164SOL     OW19175   0.919   1.885   1.526  0.4796 -0.6355 -0.3843
 6164SOL    HW119176   0.878   1.972   1.531 -2.5513 -1.9984  2.1850
 6164SOL    HW219177   0.859   1.834   1.470  2.4637 -1.0650 -2.2442
 6165SOL     OW19178   6.068   5.681   1.490  0.2704  0.0512 -0.0245
 6165SOL    HW119179   5.993   5.701   1.547  0.8072  2.4522 -0.0488
 6165SOL    HW219180   6.042   5.714   1.404  0.1731 -1.9479 -0.8158
 6166SOL     OW19181   6.819   3.454   0.544 -0.3513 -0.7032  0.6591
 6166SOL    HW119182   6.731   3.428   0.571 -0.9343 -0.2012 -0.6636
 6166SOL    HW219183   6.841   3.527   0.601 -2.3715  1.6770 -1.3683
 6167SOL     OW19184   1.947   4.520   0.899  0.0624  0.1887 -0.5592
 6167SOL    HW119185   1.955   4.466   0.821  0.1484 -1.3533  0.4773
 6167SOL    HW219186   1.856   4.508   0.927  0.7529 -1.6293  1.1623
 6168SOL     OW19187   1.472   3.017   4.741  0.0564  0.1674  0.1702
 6168SOL    HW119188   1.404   2.959   4.705 -0.9994  0.1896  2.0230
 6168SOL    HW219189   1.554   2.976   4.713 -0.6767 -1.4617  0.2569
 6169SOL     OW19190   4.706   0.141   1.093 -0.1288 -0.1536  0.5101
 6169SOL    HW119191   4.676   0.232   1.100 -1.0278 -0.4452  0.5822
 6169SOL    HW219192   4.758   0.140   1.013 -1.0843  0.1719 -0.1367
 6170SOL     OW19193   5.488   5.114   2.143  0.1780  0.2395  0.5374
 6170SOL    HW119194   5.431   5.162   2.202 -0.1186 -0.4169  0.7983
 6170SOL    HW219195   5.556   5.076   2.199  0.4428  0.4029  0.3299
 6171SOL     OW19196   4.304   4.703   2.702 -0.3052 -0.3956 -0.1964
 6171SOL    HW119197   4.378   4.644   2.686 -1.3910 -1.5304 -1.3628
 6171SOL    HW219198   4.316   4.775   2.640  1.2119  0.8690  1.4669
 6172SOL     OW19199   5.212   6.837   1.260  0.5443  0.0158 -0.1843
 6172SOL    HW119200   5.268   6.830   1.183  0.9590 -2.8577  0.2462
 6172SOL    HW219201   5.132   6.789   1.237  0.6749 -0.8832  1.1125
 6173SOL     OW19202   0.008   5.491   3.027  0.3113  0.3876 -0.2687
 6173SOL    HW119203  -0.064   5.551   3.047 -0.1917 -0.3424  0.1242
 6173SOL    HW219204   0.074   5.547   2.986  1.2912  1.9361  3.0808
 6174SOL     OW19205   2.784   6.070   5.711  0.0678 -0.1238  0.3536
 6174SOL    HW119206   2.809   5.999   5.771 -0.8526 -1.6981 -1.0255
 6174SOL    HW219207   2.695   6.093   5.738  0.0383 -0.1120  0.2436
 6175SOL     OW19208   6.643   1.119   4.034 -0.1999  0.1283  0.4826
 6175SOL    HW119209   6.625   1.057   4.104  2.9894 -1.8328 -0.1910
 6175SOL    HW219210   6.703   1.072   3.976  0.2454  2.9519 -1.5496
 6176SOL     OW19211   4.445   4.116   3.818  0.6834 -0.2190 -0.5645
 6176SOL    HW119212   4.369   4.158   3.778  0.5922 -0.5867 -0.7896
 6176SOL    HW219213   4.445   4.147   3.908  2.1281  2.3257 -1.3329
 6177SOL     OW19214   3.540   3.676   1.316  0.2686  0.1866  0.1768
 6177SOL    HW119215   3.604   3.636   1.258 -1.0107 -0.2230 -0.9869
 6177SOL    HW219216   3.583   3.677   1.402  2.4319  1.3528 -0.8419
 6178SOL     OW19217   4.909   4.909   1.453  0.1616  0.4488  0.4056
 6178SOL    HW119218   4.935   4.841   1.391 -0.3938 -1.1577  1.8650
 6178SOL    HW219219   4.815   4.920   1.438  0.2252  0.8306  0.2604
 6179SOL     OW19220   6.856   5.797   4.246  0.1337  0.1451 -0.0771
 6179SOL    HW119221   6.789   5.836   4.190  0.3487 -0.6610 -0.9204
 6179SOL    HW219222   6.925   5.769   4.186 -0.6269 -2.7948  0.2412
 6180SOL     OW19223   3.554   6.213   6.402  0.7882 -0.5731  0.0761
 6180SOL    HW119224   3.570   6.306   6.389 -1.3580 -0.1295  0.2483
 6180SOL    HW219225   3.521   6.181   6.318 -2.1069 -0.2609  0.9801
 6181SOL     OW19226   4.066   0.959   6.323 -0.3168  0.0072 -0.1804
 6181SOL    HW119227   4.098   0.893   6.261  3.2241  0.7255  0.6883
 6181SOL    HW219228   4.061   1.040   6.272 -2.5963 -0.3924 -0.7128
 6182SOL     OW19229   0.115   4.430   2.361  0.3372  0.0671  0.5062
 6182SOL    HW119230   0.203   4.393   2.352  1.3043  2.0734  1.0315
 6182SOL    HW219231   0.120   4.514   2.314 -1.1617  0.4032  0.9181
 6183SOL     OW19232   4.827   1.866   4.502 -0.0693 -0.5257 -0.2531
 6183SOL    HW119233   4.880   1.935   4.461  0.1731 -0.4488  0.1903
 6183SOL    HW219234   4.847   1.787   4.451 -0.2429 -0.2977 -0.6759
 6184SOL     OW19235   6.200   5.505   2.484 -0.2658  0.1252 -0.3651
 6184SOL    HW119236   6.292   5.479   2.500  0.1374  0.8887 -1.3825
 6184SOL    HW219237   6.150   5.452   2.546  0.8386 -0.5341 -0.0006
 6185SOL     OW19238   0.654   1.597   6.250  0.0593 -0.5185  0.2942
 6185SOL    HW119239   0.666   1.546   6.330  1.6299  0.2469  0.5839
 6185SOL    HW219240   0.730   1.577   6.196  0.1417  0.6627 -0.0545
 6186SOL     OW19241   2.685   5.674   5.693  0.3639  0.6303 -0.1688
 6186SOL    HW119242   2.736   5.720   5.760  0.5565 -0.0216  0.1432
 6186SOL    HW219243   2.600   5.718   5.693 -0.1040 -0.1937  1.4640
 6187SOL     OW19244   2.604   3.217   5.356 -0.6840 -0.1087 -0.3425
 6187SOL    HW119245   2.629   3.153   5.289  0.6317  0.3325 -0.2959
 6187SOL    HW219246   2.512   3.197   5.375 -0.9241 -0.5681 -1.8928
 6188SOL     OW19247   4.718   4.789   6.536 -0.4391 -0.5192 -0.5390
 6188SOL    HW119248   4.669   4.710   6.515  0.1199 -1.1982  0.6058
 6188SOL    HW219249   4.652   4.853   6.562 -0.8560 -0.7523 -1.0085
 6189SOL     OW19250   3.662   2.522   4.084  0.4195 -0.4644  0.1436
 6189SOL    HW119251   3.609   2.447   4.056 -1.0025  0.6704 -0.3210
 6189SOL    HW219252   3.730   2.529   4.017 -2.1697  1.4127 -2.5310
 6190SOL     OW19253   5.844   4.345   3.908  0.0438 -0.1165  0.3732
 6190SOL    HW119254   5.868   4.335   3.816  0.0794  1.2454  0.2109
 6190SOL    HW219255   5.800   4.430   3.912  1.7647  0.7763  1.9394
 6191SOL     OW19256   6.257   2.126   2.786  0.0185 -0.1862 -0.5453
 6191SOL    HW119257   6.348   2.130   2.757  0.5184  0.2487  0.9795
 6191SOL    HW219258   6.239   2.032   2.797  1.0191 -0.2125  1.2286
 6192SOL     OW19259   4.969   2.024   6.817 -0.1063  0.2611  0.0520
 6192SOL    HW119260   5.044   2.083   6.812 -0.0726  0.1534 -1.0211
 6192SOL    HW219261   4.975   1.984   6.904  0.9816  0.3839  0.0456
 6193SOL     OW19262   4.080   0.026   1.372  0.5565  0.3634  0.1689
 6193SOL    HW119263   4.096  -0.064   1.343 -0.3177  0.9133 -2.2456
 6193SOL    HW219264   4.153   0.046   1.430  2.3285 -0.9667 -1.4989
 6194SOL     OW19265   3.018   4.472   2.022 -0.0539 -0.7346  0.3398
 6194SOL    HW119266   3.016   4.521   1.939 -1.7724 -0.6065  0.4236
 6194SOL    HW219267   3.098   4.502   2.065 -0.3264  0.9513 -0.2448
 6195SOL     OW19268   4.899   4.512   3.035  0.2197  0.4503  0.2067
 6195SOL    HW119269   4.871   4.485   3.122 -0.5802  0.1482 -0.1313
 6195SOL    HW219270   4.960   4.584   3.050 -0.5028  0.9162  0.9819
 6196SOL     OW19271   1.188   1.484   3.554 -0.2759 -0.0015 -0.3998
 6196SOL    HW119272   1.212   1.398   3.589 -0.3882 -0.6390 -1.8224
 6196SOL    HW219273   1.210   1.546   3.625  3.5026 -0.7469 -0.7294
 6197SOL     OW19274   3.450   1.490   0.983  0.1608  0.2493 -0.2101
 6197SOL    HW119275   3.442   1.406   0.937  3.0674  0.6436 -1.6630
 6197SOL    HW219276   3.494   1.469   1.065 -0.8868  0.1322  0.3331
 6198SOL     OW19277   3.513   3.851   0.962 -0.6240 -0.1803  0.0186
 6198SOL    HW119278   3.567   3.871   1.038 -0.2514  0.4002 -0.3871
 6198SOL    HW219279   3.555   3.775   0.922  1.3756  1.6445 -1.6356
 6199SOL     OW19280   0.974   3.040   1.815  0.3037  0.8754  0.0127
 6199SOL    HW119281   0.958   2.951   1.784  1.9952  0.8737 -1.0199
 6199SOL    HW219282   0.983   3.032   1.910  3.5288 -0.6881 -0.2722
 6200SOL     OW19283   5.823   6.691   0.373  0.5134 -0.6072  0.2551
 6200SOL    HW119284   5.820   6.775   0.328  2.9747 -1.2025 -1.1881
 6200SOL    HW219285   5.903   6.694   0.425  0.0234 -1.6335  1.1139
 6201SOL     OW19286   4.877   5.959   3.208  0.1695  0.1807 -0.3051
 6201SOL    HW119287   4.807   5.895   3.220 -1.6110  1.6900 -2.0118
 6201SOL    HW219288   4.924   5.929   3.130  0.3786  0.0792 -0.1419
 6202SOL     OW19289   3.558   2.773   2.267 -0.3117  0.5277  0.1253
 6202SOL    HW119290   3.541   2.781   2.173 -0.3505  2.3900  0.2392
 6202SOL    HW219291   3.513   2.694   2.294  1.7831 -1.4948 -1.8570
 6203SOL     OW19292   1.985   5.639   5.055 -0.2986  0.2386 -0.0878
 6203SOL    HW119293   2.068   5.686   5.065 -0.5978  0.4280  1.8070
 6203SOL    HW219294   1.918   5.707   5.063 -0.6799  0.0463 -1.3345
 6204SOL     OW19295   2.739   5.334   4.956 -0.4444 -0.4834  0.1818
 6204SOL    HW119296   2.691   5.287   4.887  1.0462 -0.0726 -1.1908
 6204SOL    HW219297   2.803   5.387   4.909  1.9235 -1.6070  1.9394
 6205SOL     OW19298   6.077   5.790   4.811  0.2775 -0.4245  0.2593
 6205SOL    HW119299   6.058   5.735   4.734 -0.0426 -1.4901  1.0732
 6205SOL    HW219300   6.115   5.729   4.875 -3.9059 -0.7095  2.7862
 6206SOL     OW19301   2.949   2.092   3.151 -0.0926 -0.1376 -0.3129
 6206SOL    HW119302   2.858   2.111   3.129 -0.6096 -2.6568 -0.6233
 6206SOL    HW219303   2.945   2.013   3.206  1.8801 -0.1193 -0.0550
 6207SOL     OW19304   0.074   1.114   5.920 -0.2267 -0.1327 -0.5091
 6207SOL    HW119305   0.008   1.055   5.957  0.2510 -0.5393 -0.3037
 6207SOL    HW219306   0.158   1.077   5.948  0.1770 -0.7755 -2.4470
 6208SOL     OW19307   6.152   4.301   0.761  0.0131  0.2126 -0.4972
 6208SOL    HW119308   6.154   4.377   0.702 -0.5898  1.0736  0.5438
 6208SOL    HW219309   6.061   4.273   0.760 -0.2760  0.9852  0.8968
 6209SOL     OW19310   5.832   1.715   5.752  0.1884 -0.4963 -0.2155
 6209SOL    HW119311   5.867   1.693   5.839  0.4617  0.4784 -0.0700
 6209SOL    HW219312   5.794   1.633   5.720 -0.4430 -0.7288  1.0700
 6210SOL     OW19313   4.312   6.383   0.183  0.0022  0.3738 -0.2845
 6210SOL    HW119314   4.395   6.337   0.197  0.1698  1.0389  1.0578
 6210SOL    HW219315   4.338   6.469   0.150 -0.1161  0.7415  0.5619
 6211SOL     OW19316   3.860   1.267   1.476 -0.2092  0.5381  0.1473
 6211SOL    HW119317   3.863   1.181   1.434 -1.1303  0.1088  0.9217
 6211SOL    HW219318   3.932   1.266   1.539 -0.4989  0.1566  0.4733
 6212SOL     OW19319   0.259   1.673   2.473  0.3128 -0.3875 -0.2468
 6212SOL    HW119320   0.341   1.692   2.426  0.7826 -1.3528  0.1476
 6212SOL    HW219321   0.240   1.754   2.522  1.6715 -0.5180  0.5599
 6213SOL     OW19322   5.210   1.882   0.087 -0.0864  0.0463  0.3210
 6213SOL    HW119323   5.167   1.871   0.172  1.8310 -1.0560  1.2354
 6213SOL    HW219324   5.257   1.965   0.095 -0.9604  0.5948 -0.1736
 6214SOL     OW19325   1.432   1.405   1.654  0.0152 -0.4837  0.2714
 6214SOL    HW119326   1.402   1.345   1.723  0.1590  0.0506  0.8042
 6214SOL    HW219327   1.527   1.394   1.653 -0.0515 -1.1277 -0.4469
 6215SOL     OW19328   4.544   1.581   5.241  0.2540 -0.2980 -0.3192
 6215SOL    HW119329   4.466   1.629   5.268 -0.5542 -1.6782 -0.1034
 6215SOL    HW219330   4.546   1.592   5.145  0.9468  1.3799 -0.1508
 6216SOL     OW19331   3.566   3.726   1.770  0.2662 -0.4287  1.2099
 6216SOL    HW119332   3.554   3.820   1.783  0.0428 -0.5027  1.5499
 6216SOL    HW219333   3.484   3.686   1.801 -0.6164 -0.5742 -1.0740
 6217SOL     OW19334   1.820   0.113   4.500  0.2782 -0.6705  0.2619
 6217SOL    HW119335   1.861   0.060   4.569 -0.4217 -0.3073  0.9746
 6217SOL    HW219336   1.767   0.176   4.548 -0.6219 -0.7370 -0.6316
 6218SOL     OW19337   0.433   2.702   4.081 -0.0654 -0.2279  0.2218
 6218SOL    HW119338   0.411   2.625   4.134  0.1061 -0.8593 -0.5932
 6218SOL    HW219339   0.528   2.698   4.072  0.0604  0.6599  1.0120
 6219SOL     OW19340   3.754   1.204   6.199 -0.1771  0.4099  0.3331
 6219SOL    HW119341   3.689   1.230   6.134  1.3641  1.0281 -1.0333
 6219SOL    HW219342   3.731   1.253   6.278 -1.2756  0.7135 -0.1639
 6220SOL     OW19343   6.465   4.751   4.088  0.0720 -0.0530 -0.3245
 6220SOL    HW119344   6.544   4.720   4.043 -0.2286 -0.1511 -0.7917
 6220SOL    HW219345   6.495   4.774   4.176  0.2463 -1.9406  0.1373
 6221SOL     OW19346   3.792   2.970   2.102  0.1173 -0.2305 -0.3594
 6221SOL    HW119347   3.846   2.987   2.025  0.3843  0.9901  0.0812
 6221SOL    HW219348   3.731   2.902   2.074  0.5579 -0.1788 -1.4781
 6222SOL     OW19349   0.795   0.061   1.336  0.0507  0.4104  0.1593
 6222SOL    HW119350   0.760   0.056   1.425 -2.1940  1.7433 -0.5821
 6222SOL    HW219351   0.829  -0.027   1.319  1.6590  0.4222  2.6928
 6223SOL     OW19352   4.674   0.402   1.055  0.1417 -0.2473 -0.0183
 6223SOL    HW119353   4.579   0.401   1.054  0.1215 -1.9194 -1.3138
 6223SOL    HW219354   4.698   0.459   0.982  0.1492  0.2165  0.3410
 6224SOL     OW19355   4.817   3.109   4.665 -0.7226 -0.2571  0.2436
 6224SOL    HW119356   4.833   3.015   4.672 -1.6596 -0.5864 -1.4687
 6224SOL    HW219357   4.903   3.149   4.677 -0.2116 -1.3562  0.4070
 6225SOL     OW19358   4.987   2.815   2.899  0.0320 -0.0962 -0.3229
 6225SOL    HW119359   5.026   2.902   2.902  0.8996 -0.4030 -1.6364
 6225SOL    HW219360   4.909   2.825   2.845  0.1003 -0.1257 -0.4266
 6226SOL     OW19361   5.778   5.201   4.676  0.4883 -0.0537  0.1132
 6226SOL    HW119362   5.777   5.171   4.766  0.7496  0.8249  0.4191
 6226SOL    HW219363   5.696   5.170   4.639  0.6606 -0.9621  0.4627
 6227SOL     OW19364   5.671   4.516   3.606 -0.3730  0.3865 -0.2108
 6227SOL    HW119365   5.602   4.466   3.562 -0.7147  0.7728 -0.1136
 6227SOL    HW219366   5.637   4.534   3.693 -0.0819  0.4345 -0.1053
 6228SOL     OW19367   3.016   5.257   0.860  0.6802 -0.5118  0.1057
 6228SOL    HW119368   3.004   5.179   0.806 -1.0173  0.3805 -0.9038
 6228SOL    HW219369   3.006   5.225   0.950  0.5244 -1.5314 -0.2554
 6229SOL     OW19370   6.034   0.836   6.537 -0.5125 -0.6686  0.0802
 6229SOL    HW119371   6.100   0.771   6.510 -0.0763  0.0051 -0.4933
 6229SOL    HW219372   6.008   0.807   6.625 -0.4496 -1.7177 -0.2262
 6230SOL     OW19373   3.483   6.666   3.272  0.5023  0.2057  0.2117
 6230SOL    HW119374   3.525   6.752   3.269  0.8173  0.0275 -1.4978
 6230SOL    HW219375   3.541   6.614   3.328  0.7226  0.8955  0.6367
 6231SOL     OW19376   3.169   6.182   3.852  0.4413  0.0510  0.1697
 6231SOL    HW119377   3.080   6.157   3.875  1.2976 -2.0928  1.5263
 6231SOL    HW219378   3.191   6.251   3.913 -0.4982  1.1270 -0.6661
 6232SOL     OW19379   2.221   1.227   6.315 -0.2634 -0.3841 -0.1157
 6232SOL    HW119380   2.246   1.313   6.349 -0.0901 -0.1051 -0.9310
 6232SOL    HW219381   2.133   1.212   6.351  0.1986 -0.4280  1.0385
 6233SOL     OW19382   2.548   3.395   3.163 -0.4819  0.0910 -0.0509
 6233SOL    HW119383   2.509   3.457   3.102 -0.7832  2.0683  2.0295
 6233SOL    HW219384   2.641   3.395   3.141 -0.9205 -1.4334 -2.2822
 6234SOL     OW19385   0.245   1.810   0.862 -0.0121  0.4103  0.0250
 6234SOL    HW119386   0.306   1.850   0.801  0.1892  2.3017  1.3791
 6234SOL    HW219387   0.262   1.716   0.855 -0.3498  0.4783 -3.1097
 6235SOL     OW19388   2.841   2.198   4.421  0.2067  0.2947 -0.4681
 6235SOL    HW119389   2.853   2.174   4.513 -0.0893 -2.7236 -1.1110
 6235SOL    HW219390   2.747   2.197   4.407  0.1823  1.8588 -0.5915
 6236SOL     OW19391   6.713   4.351   0.887 -0.0185 -0.0187  0.9305
 6236SOL    HW119392   6.705   4.292   0.962  0.0754 -1.1817  0.0481
 6236SOL    HW219393   6.800   4.332   0.851 -0.8119 -0.9374 -0.6418
 6237SOL     OW19394   4.597   5.012   6.670 -0.4970 -0.1007  0.1186
 6237SOL    HW119395   4.584   4.955   6.746 -1.1360  0.2047  0.2460
 6237SOL    HW219396   4.684   5.050   6.683 -0.1599 -0.8714  0.1480
 6238SOL     OW19397   2.170   6.180   5.868 -0.1084 -0.6003  0.1761
 6238SOL    HW119398   2.075   6.174   5.874 -0.0639 -0.4284  1.3747
 6238SOL    HW219399   2.201   6.106   5.920  0.3933  0.8177  2.0206
 6239SOL     OW19400   6.717   1.378   4.338 -0.0990 -0.7429  0.4314
 6239SOL    HW119401   6.709   1.284   4.325  0.4285 -0.4868 -2.2222
 6239SOL    HW219402   6.772   1.387   4.416 -0.1063 -2.6157  0.6938
 6240SOL     OW19403   4.471   0.971   0.431  0.3632 -0.0403 -0.1014
 6240SOL    HW119404   4.546   0.966   0.490  0.7526 -0.5695 -0.6280
 6240SOL    HW219405   4.454   0.880   0.407 -0.5685  0.0629  0.1595
 6241SOL     OW19406   5.419   0.430   2.996 -0.2133  0.0650  0.4279
 6241SOL    HW119407   5.445   0.388   2.914 -0.5173  0.7858 -0.0468
 6241SOL    HW219408   5.352   0.493   2.970  0.2504  0.8566  1.1211
 6242SOL     OW19409   1.699   0.227   2.622  0.4520 -0.0235  0.4586
 6242SOL    HW119410   1.661   0.308   2.657  1.0799  0.3924  0.1968
 6242SOL    HW219411   1.624   0.169   2.611 -0.4579  1.3859 -1.7076
 6243SOL     OW19412   0.466   2.422   3.130 -0.3852  0.0571 -0.9590
 6243SOL    HW119413   0.419   2.405   3.212 -1.5929 -2.5366 -2.0942
 6243SOL    HW219414   0.554   2.448   3.158 -1.5315  2.0433  1.1561
 6244SOL     OW19415   2.054   1.249   4.181  0.1111  0.1301  0.3737
 6244SOL    HW119416   2.062   1.209   4.268  0.8890 -0.0362  0.2316
 6244SOL    HW219417   1.973   1.299   4.185 -0.1980 -0.4014  0.9861
 6245SOL     OW19418   0.527   2.551   1.820  0.1823 -0.1071  0.3133
 6245SOL    HW119419   0.570   2.552   1.735 -1.0525  0.6263 -0.3414
 6245SOL    HW219420   0.446   2.502   1.806  0.1306 -0.2889  1.1590
 6246SOL     OW19421   4.967   3.361   0.427  0.1744  0.3227  0.4244
 6246SOL    HW119422   4.903   3.361   0.355  0.2530  1.3785  0.3403
 6246SOL    HW219423   4.916   3.385   0.504  0.3160  0.3601  0.5067
 6247SOL     OW19424   1.072   1.999   2.407  0.1413 -0.2270 -0.0399
 6247SOL    HW119425   1.032   2.086   2.406 -2.8458 -1.4658 -0.3478
 6247SOL    HW219426   1.098   1.984   2.316  1.3469  0.5741  0.1502
 6248SOL     OW19427   5.277   4.419   3.879  0.0383 -0.4369 -0.1060
 6248SOL    HW119428   5.341   4.461   3.822  1.1298  0.6139  1.7695
 6248SOL    HW219429   5.194   4.462   3.858  0.7242  1.1379  0.2135
 6249SOL     OW19430   1.647   2.502   1.189 -0.4121 -0.3288 -0.1342
 6249SOL    HW119431   1.586   2.505   1.115 -1.0572 -1.5226  0.3227
 6249SOL    HW219432   1.662   2.409   1.204  1.1488 -0.0687  0.1026
 6250SOL     OW19433   5.651   4.170   3.553  0.0058 -0.3533 -0.7264
 6250SOL    HW119434   5.656   4.164   3.458  0.1825  0.9052 -0.8235
 6250SOL    HW219435   5.558   4.186   3.571 -0.1850 -1.5054 -0.6010
 6251SOL     OW19436   2.011   5.662   6.483  0.6819 -0.1783  1.1695
 6251SOL    HW119437   1.985   5.596   6.419  0.8425 -0.5411  1.4723
 6251SOL    HW219438   2.006   5.618   6.567 -0.5204  0.5904  1.5254
 6252SOL     OW19439   6.670   4.201   3.196  0.5388 -0.6850 -0.0326
 6252SOL    HW119440   6.693   4.264   3.128 -0.6622  0.6125  0.6938
 6252SOL    HW219441   6.577   4.183   3.182  0.3987 -0.7797  0.9441
 6253SOL     OW19442   1.200   2.876   3.600 -0.2417 -0.1310 -0.3451
 6253SOL    HW119443   1.154   2.835   3.527 -1.1801  0.1618  0.0717
 6253SOL    HW219444   1.163   2.835   3.678  1.3533 -1.0696 -0.0251
 6254SOL     OW19445   5.525   0.871   4.998 -0.0093  0.6319  0.1098
 6254SOL    HW119446   5.554   0.850   4.909 -0.6741 -0.9350  0.2396
 6254SOL    HW219447   5.602   0.855   5.053  0.7524  2.7012 -0.2765
 6255SOL     OW19448   1.194   6.732   3.199  0.0257  0.8272 -0.4283
 6255SOL    HW119449   1.251   6.659   3.174  0.1865  0.1571  1.6704
 6255SOL    HW219450   1.253   6.795   3.242 -0.4079  1.3220 -0.5451
 6256SOL     OW19451   6.228   6.323   0.149  0.3673  0.2337 -0.0637
 6256SOL    HW119452   6.161   6.311   0.216 -1.2003 -0.9749 -1.7072
 6256SOL    HW219453   6.290   6.252   0.165 -0.9744 -1.2076 -0.8914
 6257SOL     OW19454   1.328   6.404   5.154  0.0052 -0.6059  0.5493
 6257SOL    HW119455   1.397   6.430   5.215 -0.3710  0.0153  0.7197
 6257SOL    HW219456   1.264   6.358   5.208 -0.2744 -0.1531  0.6129
 6258SOL     OW19457   4.444   3.315   5.754  0.3032  0.0384 -0.4105
 6258SOL    HW119458   4.504   3.275   5.817  0.6016 -0.7845 -1.1937
 6258SOL    HW219459   4.382   3.245   5.732 -0.4377  0.6250 -0.2548
 6259SOL     OW19460   2.095   3.626   1.332 -0.0319  0.0806  0.3590
 6259SOL    HW119461   2.128   3.688   1.397 -0.7158  0.7471  0.0801
 6259SOL    HW219462   2.073   3.680   1.256  0.6379 -0.6717 -0.3975
 6260SOL     OW19463   2.217   5.542   5.819  0.5291 -0.1653  0.1143
 6260SOL    HW119464   2.190   5.454   5.844 -1.3174 -0.0407 -1.2192
 6260SOL    HW219465   2.226   5.589   5.901  0.5255 -1.3254  0.7979
 6261SOL     OW19466   3.804   3.131   5.014 -0.4281 -0.5917  0.4757
 6261SOL    HW119467   3.809   3.215   4.969  0.9743  0.5589  2.6039
 6261SOL    HW219468   3.710   3.115   5.023 -0.7430 -0.2854 -1.6676
 6262SOL     OW19469   4.762   0.054   0.304 -0.2010  0.3191 -0.1434
 6262SOL    HW119470   4.812   0.081   0.227  4.1027 -0.4765  2.0553
 6262SOL    HW219471   4.763   0.129   0.362  0.3613 -0.4089  0.8120
 6263SOL     OW19472   1.374   6.764   1.365  0.5878  0.0519  0.3638
 6263SOL    HW119473   1.443   6.825   1.339 -0.0494  0.8717  0.5581
 6263SOL    HW219474   1.313   6.764   1.292  1.1754 -1.2848 -0.1552
 6264SOL     OW19475   4.090   1.219   4.282  0.3836  0.2283 -0.0131
 6264SOL    HW119476   4.160   1.154   4.274  2.0237  2.0121 -1.1781
 6264SOL    HW219477   4.014   1.169   4.311  1.0532 -2.5391 -2.4787
 6265SOL     OW19478   1.891   3.078   6.749 -0.4125  0.3689  0.3092
 6265SOL    HW119479   1.818   3.120   6.796  0.6890  0.8879  1.6414
 6265SOL    HW219480   1.929   3.148   6.697 -1.3180 -0.0885 -1.0084
 6266SOL     OW19481   4.997   6.823   3.354 -0.3505  0.7216 -0.5844
 6266SOL    HW119482   5.052   6.900   3.339 -1.7007  1.6332 -1.0462
 6266SOL    HW219483   5.057   6.749   3.347  1.4161  1.7650  1.9452
 6267SOL     OW19484   6.659   5.180   0.409  0.0148 -0.0033  0.1384
 6267SOL    HW119485   6.652   5.247   0.341  0.6232  1.1991  1.2113
 6267SOL    HW219486   6.748   5.188   0.442 -0.7746  0.7734  2.3254
 6268SOL     OW19487   1.994   4.883   0.264  0.4509  0.0226 -0.3755
 6268SOL    HW119488   1.919   4.911   0.315 -0.8078 -1.1354 -1.5171
 6268SOL    HW219489   2.069   4.897   0.322 -0.7876 -0.2028  1.3473
 6269SOL     OW19490   2.570   0.126   6.284  0.1237 -0.2710 -0.5890
 6269SOL    HW119491   2.604   0.178   6.211 -0.7464 -0.9840 -1.5260
 6269SOL    HW219492   2.476   0.120   6.268  0.0229 -1.0159  0.2167
 6270SOL     OW19493   6.111   5.751   6.028 -0.0776 -0.0462 -0.2444
 6270SOL    HW119494   6.034   5.699   6.054 -0.3238 -1.1823 -2.9253
 6270SOL    HW219495   6.165   5.690   5.977  0.6004  1.7864 -1.8207
 6271SOL     OW19496   2.998   0.102   2.477  0.7207 -0.2380 -0.1878
 6271SOL    HW119497   2.924   0.130   2.532  0.6156 -0.2648 -0.3156
 6271SOL    HW219498   3.032   0.183   2.439  2.0828  0.0576  1.5029
 6272SOL     OW19499   5.139   5.409   5.032 -0.1054  0.6532  0.1317
 6272SOL    HW119500   5.220   5.399   5.081 -0.1102 -1.3222 -0.1945
 6272SOL    HW219501   5.070   5.406   5.098 -0.0655 -1.1304  0.1332
 6273SOL     OW19502   5.945   0.102   5.703 -0.6039  0.0806 -0.8685
 6273SOL    HW119503   5.862   0.148   5.701 -0.2354  0.9067  1.0298
 6273SOL    HW219504   5.996   0.146   5.771  0.4160 -2.0112 -0.1761
 6274SOL     OW19505   4.099   4.000   4.775  0.0693  0.0100 -0.3097
 6274SOL    HW119506   4.121   3.946   4.850 -0.6865  2.8310  2.1336
 6274SOL    HW219507   4.005   3.991   4.765  0.3778 -1.8239 -2.2671
 6275SOL     OW19508   6.191   2.197   0.560 -0.1811  0.3549 -0.0537
 6275SOL    HW119509   6.131   2.237   0.497 -2.7269 -1.3341  1.1558
 6275SOL    HW219510   6.220   2.271   0.614 -0.8769  1.2831 -0.8949
 6276SOL     OW19511   0.849   5.786   4.445 -0.5656 -0.5574 -0.4152
 6276SOL    HW119512   0.899   5.723   4.497  1.6830  1.6761  0.3298
 6276SOL    HW219513   0.844   5.747   4.358  1.1425 -1.5709 -0.0923
 6277SOL     OW19514   5.625   2.070   3.354 -0.2946 -0.2709  0.3854
 6277SOL    HW119515   5.574   2.089   3.276 -0.0602  0.8284  0.4801
 6277SOL    HW219516   5.616   1.976   3.367 -2.7078 -0.0697  0.6755
 6278SOL     OW19517   0.843   2.857   3.223  0.1180 -0.1757 -0.2857
 6278SOL    HW119518   0.752   2.844   3.195  0.2616 -2.0645 -0.0122
 6278SOL    HW219519   0.839   2.928   3.287 -1.3890 -1.2285  0.8326
 6279SOL     OW19520   2.501   6.442   4.217 -0.3991 -0.3959 -0.3633
 6279SOL    HW119521   2.443   6.392   4.275  1.1821 -0.4906  1.2113
 6279SOL    HW219522   2.546   6.376   4.164 -2.3882 -0.2782 -2.3504
 6280SOL     OW19523   0.678   5.721   2.079  0.3753 -0.0400  0.3484
 6280SOL    HW119524   0.676   5.673   1.996 -0.2195 -0.8081  0.7961
 6280SOL    HW219525   0.610   5.679   2.132 -0.7403  1.8215  0.4744
 6281SOL     OW19526   4.235   0.380   3.721 -0.3219  0.0456  0.0027
 6281SOL    HW119527   4.315   0.328   3.724 -0.0442  0.4372 -0.4928
 6281SOL    HW219528   4.184   0.341   3.650  0.0225  0.6372 -0.5749
 6282SOL     OW19529   3.563   5.010   6.768 -0.2482  0.3755  0.4837
 6282SOL    HW119530   3.610   4.928   6.753  0.1624  0.4139  1.4933
 6282SOL    HW219531   3.491   4.986   6.827 -1.4142  0.3505 -0.8987
 6283SOL     OW19532   6.364   4.268   2.829 -0.1944  0.5103  0.3337
 6283SOL    HW119533   6.432   4.335   2.817  1.4631 -1.2567 -0.9185
 6283SOL    HW219534   6.412   4.185   2.825 -2.4212 -0.8259 -0.5089
 6284SOL     OW19535   0.921   5.796   0.773  0.2283  0.0243  1.0467
 6284SOL    HW119536   0.880   5.770   0.855  1.6849  0.5278  1.9663
 6284SOL    HW219537   0.851   5.837   0.723 -1.3343 -2.5233  0.9351
 6285SOL     OW19538   0.449   1.218   3.805  0.2963  0.4739 -0.2580
 6285SOL    HW119539   0.386   1.262   3.862  0.4174  0.0715  0.1877
 6285SOL    HW219540   0.421   1.241   3.716  0.0192  0.9769 -0.0431
 6286SOL     OW19541   6.750   6.142   5.004  0.1644  0.4055 -0.1450
 6286SOL    HW119542   6.673   6.179   5.047 -0.7962  1.0756 -2.3005
 6286SOL    HW219543   6.717   6.067   4.955  1.5542 -1.4817  1.6337
 6287SOL     OW19544   3.548   5.802   3.212  0.0396 -0.0209 -0.4530
 6287SOL    HW119545   3.509   5.717   3.229 -0.3185  0.1709 -0.3009
 6287SOL    HW219546   3.521   5.856   3.286  0.0591  0.2948 -0.6730
 6288SOL     OW19547   4.635   3.623   3.666  0.2219 -0.0285  0.2682
 6288SOL    HW119548   4.569   3.629   3.598  0.7082  2.2841 -0.0915
 6288SOL    HW219549   4.715   3.597   3.620  0.5237  1.4239 -0.0859
 6289SOL     OW19550   4.016   3.228   3.974  0.2267  0.1267  0.6735
 6289SOL    HW119551   3.947   3.183   3.926  0.8023  0.5220 -0.5536
 6289SOL    HW219552   3.972   3.263   4.052 -1.0196  0.6067 -0.2167
 6290SOL     OW19553   4.635   5.846   0.807  0.2029  0.0922 -0.0840
 6290SOL    HW119554   4.704   5.793   0.768  0.9466  0.7629  0.3006
 6290SOL    HW219555   4.668   5.870   0.893 -1.4443 -1.4202  1.0227
 6291SOL     OW19556   0.889   2.795   1.733  0.3362 -0.0419  0.3065
 6291SOL    HW119557   0.794   2.800   1.722  0.0990  2.4526  2.4779
 6291SOL    HW219558   0.901   2.746   1.814  0.9367 -0.4418 -0.0137
 6292SOL     OW19559   3.186   3.697   6.422  0.5939  0.1470 -0.1064
 6292SOL    HW119560   3.259   3.731   6.369 -0.8156  1.4593 -1.3159
 6292SOL    HW219561   3.190   3.747   6.503 -1.6208  3.8079 -1.9562
 6293SOL     OW19562   1.758   1.820   1.624  0.3319 -0.9123 -1.0479
 6293SOL    HW119563   1.832   1.819   1.564  1.9489  1.4399  0.7448
 6293SOL    HW219564   1.779   1.755   1.690  0.2260 -1.0288 -1.1265
 6294SOL     OW19565   6.736   2.181   3.452 -0.2763  0.3588 -0.3439
 6294SOL    HW119566   6.780   2.101   3.426 -0.2068  0.3270 -0.1267
 6294SOL    HW219567   6.806   2.242   3.475 -0.3583  0.1159  0.5672
 6295SOL     OW19568   0.870   5.801   1.466 -0.3282  0.0487  0.0032
 6295SOL    HW119569   0.777   5.812   1.487 -0.2092 -0.1290  0.6677
 6295SOL    HW219570   0.872   5.746   1.388 -0.7784  0.0096  0.0199
 6296SOL     OW19571   4.639   2.778   6.226 -0.0315  0.1951  0.4964
 6296SOL    HW119572   4.651   2.784   6.320  0.6948 -0.1940  0.4307
 6296SOL    HW219573   4.555   2.732   6.215  0.1972 -0.3396  0.9510
 6297SOL     OW19574   6.160   6.562   5.905 -0.1190 -0.3371  0.1994
 6297SOL    HW119575   6.119   6.546   5.990  0.9775 -2.0169  0.4490
 6297SOL    HW219576   6.206   6.481   5.884 -1.3445 -0.4454 -2.5996
 6298SOL     OW19577   2.177   2.913   6.286 -0.3197  0.1755 -0.0149
 6298SOL    HW119578   2.147   2.958   6.206  0.8507 -0.7387 -0.9918
 6298SOL    HW219579   2.121   2.836   6.292  1.5942 -1.4427 -1.7476
 6299SOL     OW19580   3.652   0.510   5.275  0.4468 -0.2300  0.5098
 6299SOL    HW119581   3.707   0.576   5.232  0.6548 -1.1980 -0.7738
 6299SOL    HW219582   3.715   0.445   5.308  0.1245 -1.4510 -1.1487
 6300SOL     OW19583   3.385   0.640   3.317  0.0950 -0.6028 -0.4165
 6300SOL    HW119584   3.411   0.687   3.396  0.5884 -1.0487 -0.3060
 6300SOL    HW219585   3.462   0.588   3.294 -0.5941 -1.7114 -0.2648
 6301SOL     OW19586   4.262   3.218   3.764 -0.7781  0.5854  0.2552
 6301SOL    HW119587   4.294   3.308   3.770  0.2939  0.3036 -0.7666
 6301SOL    HW219588   4.290   3.189   3.677 -2.2465 -0.3110  0.0457
 6302SOL     OW19589   5.294   4.974   3.799 -0.3528 -1.1698  0.1330
 6302SOL    HW119590   5.210   5.014   3.779  0.6561  0.6014 -0.8409
 6302SOL    HW219591   5.327   5.023   3.874  0.3619 -0.9743 -0.2970
 6303SOL     OW19592   6.335   3.792   1.270 -0.2470  0.1047  0.5794
 6303SOL    HW119593   6.361   3.819   1.182 -2.0929 -0.3721 -0.1481
 6303SOL    HW219594   6.241   3.775   1.263 -0.5385  0.5756  2.7847
 6304SOL     OW19595   1.243   6.331   2.503  0.0311 -0.2464 -0.0918
 6304SOL    HW119596   1.299   6.379   2.441  1.0022 -0.5793  0.4924
 6304SOL    HW219597   1.259   6.239   2.482 -2.2239 -0.3817 -1.5664
 6305SOL     OW19598   5.639   2.196   0.597 -0.2920  0.6120 -0.5722
 6305SOL    HW119599   5.553   2.161   0.620  0.6908 -0.2968  2.0320
 6305SOL    HW219600   5.673   2.133   0.533 -1.3241  0.7385 -1.2847
 6306SOL     OW19601   4.391   6.321   6.681 -0.2299 -0.5064 -0.1171
 6306SOL    HW119602   4.311   6.331   6.732 -0.4804 -0.1327 -0.5748
 6306SOL    HW219603   4.406   6.226   6.678 -0.3715 -0.5469  0.3943
 6307SOL     OW19604   3.988   1.970   4.625  0.0132 -0.4714  0.2539
 6307SOL    HW119605   3.938   1.900   4.668 -3.2090  0.1283 -2.2038
 6307SOL    HW219606   4.010   1.934   4.539  0.9243  0.5017  0.0700
 6308SOL     OW19607   1.142   0.163   1.124  0.6938  0.0004  0.4534
 6308SOL    HW119608   1.110   0.088   1.174 -2.1642  1.6933  1.3957
 6308SOL    HW219609   1.096   0.157   1.040 -0.1565  1.0597  0.8238
 6309SOL     OW19610   2.468   1.093   6.307  0.8958 -0.1433  0.2306
 6309SOL    HW119611   2.387   1.141   6.321  0.8661 -0.3411  0.7630
 6309SOL    HW219612   2.463   1.061   6.217  0.3416 -0.2303  0.2909
 6310SOL     OW19613   1.126   5.631   4.391 -0.2460 -0.3455  0.3021
 6310SOL    HW119614   1.074   5.650   4.470  0.1427 -0.6629  0.6391
 6310SOL    HW219615   1.191   5.702   4.388 -0.2521 -0.3409  0.2787
 6311SOL     OW19616   3.901   2.962   1.845 -0.0603  0.4816  0.1532
 6311SOL    HW119617   3.976   2.920   1.802 -0.0382 -0.3765  0.9911
 6311SOL    HW219618   3.886   3.042   1.794  0.3787 -0.1609 -1.0387
 6312SOL     OW19619   6.536   5.419   3.320 -0.2035  0.0061 -0.4137
 6312SOL    HW119620   6.561   5.326   3.325 -1.2951 -0.4543 -2.3971
 6312SOL    HW219621   6.442   5.417   3.305 -0.7836  1.5821  2.3344
 6313SOL     OW19622   1.050   4.103   1.284  0.3344  0.4333 -0.0482
 6313SOL    HW119623   1.051   4.045   1.208 -0.1060 -1.5987  1.4126
 6313SOL    HW219624   0.973   4.159   1.270  0.6175  0.5247 -1.3698
 6314SOL     OW19625   0.628   1.875   6.193 -0.0786 -0.2816  0.0247
 6314SOL    HW119626   0.623   1.785   6.225 -0.3225  0.4192  2.1108
 6314SOL    HW219627   0.542   1.892   6.155  0.1910 -1.1088 -1.0238
 6315SOL     OW19628   5.336   6.318   3.776  0.1683 -0.1429  0.4905
 6315SOL    HW119629   5.246   6.328   3.745 -1.9829 -2.1440  5.0594
 6315SOL    HW219630   5.350   6.396   3.831  0.9727 -0.2151  0.3979
 6316SOL     OW19631   3.481   2.065   6.803 -0.1524  0.1731 -0.4566
 6316SOL    HW119632   3.451   1.974   6.801  0.0420  0.0774  0.6333
 6316SOL    HW219633   3.479   2.089   6.895 -0.9997  1.5491 -0.7998
 6317SOL     OW19634   2.910   0.638   5.983 -0.5216  0.2303  0.7046
 6317SOL    HW119635   2.980   0.629   5.918 -0.7027 -3.7778  0.8256
 6317SOL    HW219636   2.830   0.651   5.931 -0.1941  1.0572  0.3870
 6318SOL     OW19637   5.512   3.339   4.130  0.0327  0.4390 -0.1297
 6318SOL    HW119638   5.500   3.270   4.065 -0.7134  1.0894 -0.6915
 6318SOL    HW219639   5.604   3.363   4.123  0.8835 -1.9008  1.5103
 6319SOL     OW19640   5.027   3.867   0.353 -0.3112  0.5811  0.6612
 6319SOL    HW119641   5.111   3.902   0.324  0.0807  0.6164  1.7956
 6319SOL    HW219642   4.987   3.937   0.403 -1.3625  0.8218 -0.4732
 6320SOL     OW19643   3.878   1.484   6.868  0.3790  0.7204  0.3335
 6320SOL    HW119644   3.969   1.486   6.900  1.2321  1.6287 -1.9155
 6320SOL    HW219645   3.862   1.392   6.849  2.2092  0.8507 -2.5688
 6321SOL     OW19646   1.537   2.296   3.393 -0.3722 -0.5561  0.3868
 6321SOL    HW119647   1.512   2.269   3.481 -0.4093 -1.3111  0.1541
 6321SOL    HW219648   1.458   2.281   3.340 -0.2542 -0.4064  0.1650
 6322SOL     OW19649   0.707   4.991   4.367 -0.2877  0.2533  0.2469
 6322SOL    HW119650   0.714   5.084   4.391 -1.1550  0.2781  0.4347
 6322SOL    HW219651   0.797   4.961   4.360  0.0309  1.4483 -1.1278
 6323SOL     OW19652   4.495   6.021   0.655  0.1037 -0.5258 -0.0989
 6323SOL    HW119653   4.567   6.045   0.598  0.5911  0.7596  1.0021
 6323SOL    HW219654   4.532   5.956   0.714  0.9084  1.2512  1.4829
 6324SOL     OW19655   3.762   1.828   5.622  0.1730  0.2521 -0.7277
 6324SOL    HW119656   3.776   1.855   5.531  0.0230  0.5262 -0.6691
 6324SOL    HW219657   3.830   1.761   5.638  0.0896  0.0778 -1.0929
 6325SOL     OW19658   2.750   1.244   6.717  0.6147  0.6099 -0.3620
 6325SOL    HW119659   2.767   1.150   6.727  0.6506  0.5408 -1.0675
 6325SOL    HW219660   2.710   1.253   6.631 -0.9208  1.0470  0.3517
 6326SOL     OW19661   0.203   0.553   2.134 -0.6356 -0.0045 -0.0483
 6326SOL    HW119662   0.135   0.556   2.067  0.0369 -0.3091 -0.7659
 6326SOL    HW219663   0.247   0.469   2.119  1.0015  0.9288 -0.7273
 6327SOL     OW19664   4.537   4.312   4.664 -0.3327 -0.1913 -0.3734
 6327SOL    HW119665   4.516   4.263   4.744 -0.4974 -1.4625 -1.1703
 6327SOL    HW219666   4.452   4.329   4.624 -0.2043 -0.1758 -0.6388
 6328SOL     OW19667   4.560   5.240   0.376 -0.1708 -0.0149  0.3239
 6328SOL    HW119668   4.560   5.335   0.365 -2.9033 -0.0770 -1.1021
 6328SOL    HW219669   4.473   5.220   0.412 -0.1081 -2.0518 -0.4871
 6329SOL     OW19670   0.850   4.825   3.278  0.3648 -0.3184  0.1767
 6329SOL    HW119671   0.872   4.836   3.186  1.8010  0.2683  0.5610
 6329SOL    HW219672   0.772   4.770   3.278  1.3973 -1.8895 -1.3321
 6330SOL     OW19673   5.707   0.523   2.673 -0.2731  0.2200 -0.4859
 6330SOL    HW119674   5.669   0.470   2.604 -0.3516 -0.6727  0.2244
 6330SOL    HW219675   5.670   0.610   2.659 -0.8079 -0.1050 -1.1627
 6331SOL     OW19676   2.099   0.078   2.190  0.1645  0.6855 -0.1359
 6331SOL    HW119677   2.053   0.098   2.109 -0.6793  1.6945  0.5484
 6331SOL    HW219678   2.030   0.046   2.249  0.8246 -0.3742  0.0713
 6332SOL     OW19679   4.695   2.053   0.409  0.3945  0.0640  0.5269
 6332SOL    HW119680   4.654   1.994   0.473  0.5323 -2.1868 -1.3191
 6332SOL    HW219681   4.634   2.126   0.401 -1.1807 -1.1450  0.9507
 6333SOL     OW19682   4.857   1.219   3.647  0.4528  0.1710 -0.3373
 6333SOL    HW119683   4.917   1.253   3.713  0.1386  0.2036 -0.0655
 6333SOL    HW219684   4.884   1.128   3.634  0.9339  0.3546 -0.6506
 6334SOL     OW19685   4.902   3.844   6.463 -0.9357 -0.4678 -0.4390
 6334SOL    HW119686   4.835   3.787   6.500  0.9271 -2.1998  0.4914
 6334SOL    HW219687   4.890   3.838   6.369 -1.9805 -0.8777 -0.2901
 6335SOL     OW19688   1.148   0.450   0.388 -0.3501  0.0220 -0.2528
 6335SOL    HW119689   1.190   0.424   0.470  0.8798  1.3721 -0.4087
 6335SOL    HW219690   1.057   0.471   0.413  0.0439  0.5531  0.8057
 6336SOL     OW19691   4.332   6.516   4.697  0.2984 -0.1337 -0.5208
 6336SOL    HW119692   4.304   6.425   4.698 -1.7381  0.4068  1.7279
 6336SOL    HW219693   4.253   6.565   4.722  1.7774  2.0835  0.0595
 6337SOL     OW19694   3.149   3.492   3.310  1.1288  0.1796  0.1432
 6337SOL    HW119695   3.055   3.504   3.322  0.9182  0.1711 -1.2936
 6337SOL    HW219696   3.163   3.508   3.216  2.7110  1.2088  0.5158
 6338SOL     OW19697   4.802   6.813   4.287 -0.4512  0.0311 -0.5709
 6338SOL    HW119698   4.835   6.847   4.370  0.4964 -2.9259  0.4038
 6338SOL    HW219699   4.707   6.817   4.294 -0.4051 -1.1086  1.1491
 6339SOL     OW19700   5.510   0.282   3.493  0.4709  0.0240 -0.1676
 6339SOL    HW119701   5.497   0.377   3.497  2.2532  0.3240 -0.5708
 6339SOL    HW219702   5.440   0.250   3.436 -0.4571  1.0170  0.3802
 6340SOL     OW19703   4.409   6.643   0.147 -0.1335 -0.0675 -0.3790
 6340SOL    HW119704   4.373   6.651   0.058 -1.3757  1.6698  0.2350
 6340SOL    HW219705   4.467   6.718   0.156  1.9715 -1.5830 -0.5281
 6341SOL     OW19706   4.547   5.393   2.875  0.0713  0.8579 -0.6350
 6341SOL    HW119707   4.456   5.421   2.870 -0.4990 -0.9416 -1.2161
 6341SOL    HW219708   4.581   5.436   2.953 -1.9661 -0.2679  0.9800
 6342SOL     OW19709   3.296   3.900   0.760 -0.0451 -0.1154  0.2326
 6342SOL    HW119710   3.379   3.924   0.719  0.6181 -1.5268  0.7093
 6342SOL    HW219711   3.304   3.930   0.850 -0.1124 -0.1281  0.2425
 6343SOL     OW19712   3.655   6.670   1.557 -0.0583  0.0223  0.0948
 6343SOL    HW119713   3.745   6.645   1.535 -0.4445 -0.9076 -0.4927
 6343SOL    HW219714   3.648   6.654   1.651  0.0175 -1.1166 -0.0823
 6344SOL     OW19715   4.434   5.318   1.473  0.5355  0.6027 -0.0501
 6344SOL    HW119716   4.356   5.326   1.528  0.1878 -1.7859 -0.1080
 6344SOL    HW219717   4.496   5.267   1.526  0.8551 -0.2288 -1.1713
 6345SOL     OW19718   2.112   0.856   1.101  0.3886 -0.1874  0.1403
 6345SOL    HW119719   2.105   0.922   1.170 -0.7055 -0.9007  0.7288
 6345SOL    HW219720   2.154   0.781   1.143 -0.5249 -0.7241  0.1210
 6346SOL     OW19721   3.395   1.105   5.900 -0.6479 -0.4257 -0.4606
 6346SOL    HW119722   3.329   1.090   5.968  0.0652  0.6840  0.5083
 6346SOL    HW219723   3.345   1.111   5.819 -1.6586 -0.3692  0.1497
 6347SOL     OW19724   5.111   2.370   4.052  0.0638  0.6806  0.0094
 6347SOL    HW119725   5.136   2.435   3.986 -0.0401 -0.4218 -1.1471
 6347SOL    HW219726   5.100   2.289   4.003 -2.4628  0.3517  0.9680
 6348SOL     OW19727   0.026   2.645   1.452 -0.2109 -0.1716 -0.0148
 6348SOL    HW119728   0.105   2.699   1.457 -1.5552  2.1898 -1.7569
 6348SOL    HW219729   0.052   2.568   1.402  1.2587 -0.0330  0.5089
 6349SOL     OW19730   2.714   2.884   2.121 -0.0977 -0.0720 -0.7415
 6349SOL    HW119731   2.723   2.971   2.083  1.9017  0.8060  1.4604
 6349SOL    HW219732   2.670   2.899   2.205 -0.3700 -1.2722 -0.6514
 6350SOL     OW19733   0.217   5.522   5.115  0.7410 -0.2556  0.1669
 6350SOL    HW119734   0.211   5.601   5.168  0.6185 -0.1832  0.0458
 6350SOL    HW219735   0.249   5.552   5.030  2.9257 -0.6303  0.7907
 6351SOL     OW19736   0.401   6.792   4.708 -0.0004  0.1296 -0.7101
 6351SOL    HW119737   0.473   6.783   4.647  1.8216 -2.3003  1.5881
 6351SOL    HW219738   0.346   6.715   4.694  0.4868 -0.5100  0.6907
 6352SOL     OW19739   0.844   1.163   2.614  0.2842  0.3350 -0.1977
 6352SOL    HW119740   0.846   1.130   2.704  3.4777 -0.5797 -0.4645
 6352SOL    HW219741   0.845   1.083   2.561 -0.6856  0.8875 -1.0775
 6353SOL     OW19742   4.401   5.723   0.786  0.4931 -0.9973  0.4122
 6353SOL    HW119743   4.493   5.744   0.804  0.6512 -2.2642  1.1358
 6353SOL    HW219744   4.389   5.635   0.820  0.1444 -2.6507 -3.4921
 6354SOL     OW19745   4.783   1.502   0.646  0.7188 -0.4848 -0.0272
 6354SOL    HW119746   4.823   1.589   0.645 -0.1141 -0.0931 -1.1540
 6354SOL    HW219747   4.805   1.466   0.732  1.3411  0.7109  0.3300
 6355SOL     OW19748   4.816   1.637   2.534 -0.2925 -0.2587  0.1660
 6355SOL    HW119749   4.810   1.706   2.468 -2.8736 -0.1839  0.3936
 6355SOL    HW219750   4.884   1.579   2.501 -1.3522 -0.1250 -2.5130
 6356SOL     OW19751   6.708   5.961   1.140 -0.1010 -0.0463 -0.1870
 6356SOL    HW119752   6.694   6.018   1.215 -1.3283  0.9464 -1.1403
 6356SOL    HW219753   6.729   6.020   1.067 -3.2468 -0.5324 -1.6453
 6357SOL     OW19754   2.397   1.234   1.702 -0.5666 -0.4016 -0.2689
 6357SOL    HW119755   2.445   1.317   1.703  0.0565 -0.7679  0.6324
 6357SOL    HW219756   2.396   1.205   1.793 -2.3221 -0.5168 -0.2922
 6358SOL     OW19757   0.407   0.161   3.733  0.3792 -0.0492  0.6751
 6358SOL    HW119758   0.411   0.242   3.783  0.3291 -1.1708  2.5696
 6358SOL    HW219759   0.428   0.187   3.643 -0.8691  2.2456  0.9824
 6359SOL     OW19760   6.429   6.265   0.414  0.0448 -0.0199 -0.0511
 6359SOL    HW119761   6.361   6.217   0.461 -1.0247 -1.2748 -2.6471
 6359SOL    HW219762   6.434   6.221   0.329  1.9191  2.0215 -1.0898
 6360SOL     OW19763   4.791   1.120   1.743 -0.7175  0.1062  0.1267
 6360SOL    HW119764   4.849   1.044   1.745  1.3606  1.5424 -0.6560
 6360SOL    HW219765   4.753   1.124   1.831 -0.7491 -1.7042  0.2259
 6361SOL     OW19766   4.639   4.168   6.191  0.0398  0.4541  0.4818
 6361SOL    HW119767   4.576   4.238   6.211 -0.0755 -0.0287  1.8934
 6361SOL    HW219768   4.708   4.212   6.140  0.0831  1.6717  1.5287
 6362SOL     OW19769   6.228   1.505   1.116 -0.0844 -0.5279 -0.1981
 6362SOL    HW119770   6.271   1.570   1.062 -1.6252  0.7491  0.0459
 6362SOL    HW219771   6.165   1.463   1.058 -1.9834  1.0774  0.5732
 6363SOL     OW19772   4.108   3.053   2.013  0.1453 -0.3676  0.0155
 6363SOL    HW119773   4.151   2.976   2.052  2.5265  0.3428 -0.9918
 6363SOL    HW219774   4.032   3.017   1.968  0.1897 -1.8819  1.0381
 6364SOL     OW19775   1.244   4.859   2.529 -0.2971  0.5331  0.5224
 6364SOL    HW119776   1.268   4.822   2.614 -1.8728 -0.8428  0.4332
 6364SOL    HW219777   1.214   4.784   2.479 -3.2781  1.8169  0.1686
 6365SOL     OW19778   0.986   5.025   4.101 -0.5803  0.6426  0.0844
 6365SOL    HW119779   0.930   4.954   4.070 -0.7362  0.4492  0.7865
 6365SOL    HW219780   0.994   5.084   4.027 -1.7355  0.6914 -0.0173
 6366SOL     OW19781   5.004   4.764   2.838  0.2386  0.2010  0.3102
 6366SOL    HW119782   5.033   4.676   2.859  1.0736  0.5529  0.6670
 6366SOL    HW219783   4.940   4.786   2.907 -0.3533 -0.3037 -0.0679
 6367SOL     OW19784   4.360   2.049   5.579 -0.3251  0.5545  0.4565
 6367SOL    HW119785   4.270   2.052   5.546 -0.6375 -1.4163  1.0083
 6367SOL    HW219786   4.391   1.961   5.558  1.0150  0.7540  1.4385
 6368SOL     OW19787   0.946   4.378   5.131  0.1620  0.3707 -0.5094
 6368SOL    HW119788   0.941   4.473   5.134  0.7563  0.3808  0.2786
 6368SOL    HW219789   0.991   4.359   5.049  0.3401  0.7785 -0.5072
 6369SOL     OW19790   4.827   4.213   3.616  0.1486 -0.2735  0.6015
 6369SOL    HW119791   4.800   4.194   3.526 -0.4620  1.3358  0.4146
 6369SOL    HW219792   4.763   4.168   3.671 -0.6696  0.3912  0.2009
 6370SOL     OW19793   5.533   0.448   5.403 -0.4217 -0.4693  0.4118
 6370SOL    HW119794   5.540   0.499   5.322  0.7056  0.6061  1.1626
 6370SOL    HW219795   5.439   0.449   5.423 -0.6145 -0.0583 -0.4380
 6371SOL     OW19796   1.182   5.806   4.785 -0.2919  0.5123  0.0235
 6371SOL    HW119797   1.269   5.810   4.824 -0.2112  1.3197 -0.2274
 6371SOL    HW219798   1.175   5.886   4.732  0.0964 -1.1469 -2.7144
 6372SOL     OW19799   6.565   5.956   5.226  0.2504  0.2031 -0.4144
 6372SOL    HW119800   6.635   5.895   5.201  0.1519  0.1997 -0.6875
 6372SOL    HW219801   6.505   5.903   5.278  1.9776  0.8925  2.5215
 6373SOL     OW19802   5.819   5.293   1.609 -0.5289  0.9737  0.2970
 6373SOL    HW119803   5.822   5.242   1.689 -0.2588  1.2536  0.4682
 6373SOL    HW219804   5.792   5.230   1.541  0.9834  0.2989  0.2817
 6374SOL     OW19805   6.342   0.293   5.798  0.0017 -0.1859 -0.4157
 6374SOL    HW119806   6.387   0.213   5.827 -1.0097 -0.5678  0.1551
 6374SOL    HW219807   6.252   0.283   5.830 -0.5576  0.4599 -1.7076
 6375SOL     OW19808   5.803   4.645   2.514 -0.3028  0.0693 -0.4810
 6375SOL    HW119809   5.876   4.623   2.572  0.2879 -0.7916 -1.5175
 6375SOL    HW219810   5.811   4.584   2.441 -3.0017 -1.1393  0.0870
 6376SOL     OW19811   0.132   1.995   2.024  0.0475  0.1350  0.1176
 6376SOL    HW119812   0.155   1.916   2.073  0.0581 -0.8053 -1.3391
 6376SOL    HW219813   0.101   2.056   2.091 -0.5328 -1.2982  1.2209
 6377SOL     OW19814   0.175   2.223   2.792 -0.2700  0.8179  0.0800
 6377SOL    HW119815   0.195   2.164   2.719  0.5556  2.2472 -0.9069
 6377SOL    HW219816   0.258   2.266   2.812 -1.1165  2.7388 -0.2707
 6378SOL     OW19817   0.979   3.312   5.503  0.3084 -0.1496  0.7850
 6378SOL    HW119818   0.897   3.270   5.477  0.5068 -0.0110 -0.1041
 6378SOL    HW219819   0.965   3.337   5.595 -0.1332 -1.3365  1.0552
 6379SOL     OW19820   1.118   0.625   1.642 -0.0676 -0.2851  0.4161
 6379SOL    HW119821   1.102   0.559   1.708 -1.2391 -0.3971  0.0339
 6379SOL    HW219822   1.053   0.693   1.659 -0.4593 -0.3644 -0.6632
 6380SOL     OW19823   1.315   2.911   1.913 -0.2211  0.4405  0.2141
 6380SOL    HW119824   1.385   2.862   1.869 -0.4617  0.0795  0.2339
 6380SOL    HW219825   1.313   2.875   2.001  0.8492  1.7595  0.8076
 6381SOL     OW19826   6.496   4.694   4.640  0.2499 -0.2129 -0.4412
 6381SOL    HW119827   6.440   4.686   4.717  1.5048 -1.0615  0.4329
 6381SOL    HW219828   6.564   4.628   4.654  1.4971  0.8240 -1.4098
 6382SOL     OW19829   0.134   6.189   3.695 -0.1246  0.3688  0.1572
 6382SOL    HW119830   0.186   6.252   3.745 -0.5088  0.1028  0.9114
 6382SOL    HW219831   0.182   6.107   3.703  0.8332  0.7297 -1.5504
 6383SOL     OW19832   1.320   4.852   5.300 -0.3591  0.0281  0.0696
 6383SOL    HW119833   1.234   4.892   5.304 -1.0264 -1.4093  1.2955
 6383SOL    HW219834   1.303   4.758   5.300  1.1994 -0.2891  0.3383
 6384SOL     OW19835   5.128   2.041   1.388 -0.2702  0.6183 -0.0198
 6384SOL    HW119836   5.104   1.981   1.317  1.9918  0.5833 -0.8368
 6384SOL    HW219837   5.166   2.117   1.343 -0.2405  1.2967  1.1237
 6385SOL     OW19838   5.721   4.467   4.318  0.9362 -0.4196  0.1219
 6385SOL    HW119839   5.672   4.385   4.322  0.8100 -0.3579 -0.1175
 6385SOL    HW219840   5.812   4.441   4.324  0.8746 -0.5320  0.6037
 6386SOL     OW19841   4.282   6.446   1.866 -0.4076  0.1551  0.2711
 6386SOL    HW119842   4.343   6.433   1.939 -0.6831  0.0465  0.4854
 6386SOL    HW219843   4.311   6.527   1.825  0.3402 -0.2759 -0.0899
 6387SOL     OW19844   6.767   6.148   3.764 -0.1762  1.2403 -0.5921
 6387SOL    HW119845   6.847   6.188   3.731  0.9351  0.0054  0.4411
 6387SOL    HW219846   6.704   6.157   3.693  1.6288  0.0320 -2.4743
 6388SOL     OW19847   0.647   6.204   0.358 -0.3961 -0.1215 -0.1431
 6388SOL    HW119848   0.611   6.289   0.333  0.3849 -0.2044 -1.6294
 6388SOL    HW219849   0.695   6.222   0.439  0.8198  1.1527 -1.1067
 6389SOL     OW19850   1.272   4.663   0.588  0.2540  0.3716  0.3266
 6389SOL    HW119851   1.358   4.649   0.628  1.5838  1.8689 -1.8262
 6389SOL    HW219852   1.217   4.594   0.625  1.4168  1.3526  4.3280
 6390SOL     OW19853   1.277   2.275   4.224 -0.2873  0.7023 -0.0400
 6390SOL    HW119854   1.202   2.254   4.279  0.5027 -1.6238  0.2456
 6390SOL    HW219855   1.251   2.248   4.136 -0.9048  2.8483 -0.5912
 6391SOL     OW19856   2.371   1.558   3.596  0.1378  0.2261 -0.2121
 6391SOL    HW119857   2.441   1.536   3.535 -0.4134 -1.4829 -0.2782
 6391SOL    HW219858   2.396   1.514   3.678 -0.2406  0.6163  0.1174
 6392SOL     OW19859   3.957   1.058   5.230 -0.2514 -0.2523  0.2739
 6392SOL    HW119860   3.894   1.128   5.249  0.9359  0.3171  2.4592
 6392SOL    HW219861   4.021   1.099   5.172 -1.1006 -0.4315 -0.8281
 6393SOL     OW19862   4.384   3.431   2.585  0.6246 -0.0781  0.5817
 6393SOL    HW119863   4.331   3.421   2.506 -0.9388  0.6080  1.4950
 6393SOL    HW219864   4.345   3.505   2.631  2.3061  0.3501  1.3921
 6394SOL     OW19865   2.515   1.703   0.430  0.3392 -0.2062  0.1262
 6394SOL    HW119866   2.452   1.757   0.381  0.1811 -0.4711  0.0371
 6394SOL    HW219867   2.566   1.659   0.362  0.4688 -0.1716  0.2006
 6395SOL     OW19868   3.505   0.989   1.079 -0.2106  0.1116  0.7701
 6395SOL    HW119869   3.579   0.951   1.032 -0.6340 -0.7227  0.7628
 6395SOL    HW219870   3.518   1.084   1.072 -0.2258  0.0114 -0.9548
 6396SOL     OW19871   5.816   4.671   0.545 -0.1255 -0.0446  0.2939
 6396SOL    HW119872   5.757   4.658   0.471 -1.0151  2.0838  0.5714
 6396SOL    HW219873   5.825   4.584   0.584 -1.5772 -0.7615 -0.8663
 6397SOL     OW19874   2.766   2.161   6.419  0.1654  0.3848  0.0219
 6397SOL    HW119875   2.841   2.149   6.478 -0.5441  0.0309  0.8745
 6397SOL    HW219876   2.774   2.252   6.390  0.8837  0.3737  0.1568
 6398SOL     OW19877   3.026   3.463   6.376  0.3031 -0.2271  0.2331
 6398SOL    HW119878   3.068   3.546   6.396 -0.6338  0.2153  0.4243
 6398SOL    HW219879   3.001   3.470   6.284 -1.2476  0.3820  0.6780
 6399SOL     OW19880   6.661   6.638   2.213  0.1210 -0.9838 -0.6527
 6399SOL    HW119881   6.575   6.595   2.213  0.0810 -0.9375  0.3570
 6399SOL    HW219882   6.646   6.721   2.169 -0.3286 -1.0259 -0.5873
 6400SOL     OW19883   6.871   5.737   3.187 -0.3665  0.4092 -0.5260
 6400SOL    HW119884   6.938   5.800   3.159  1.3245 -0.7245  0.7612
 6400SOL    HW219885   6.920   5.662   3.220 -2.2730 -0.3364  0.8250
 6401SOL     OW19886   3.133   2.322   6.754  0.1323  0.4217  0.4997
 6401SOL    HW119887   3.225   2.328   6.780 -0.0753 -1.8793  2.0401
 6401SOL    HW219888   3.084   2.347   6.832 -0.5461  0.6872 -0.0022
 6402SOL     OW19889   2.882   0.254   0.256  0.2849  0.7724  0.0865
 6402SOL    HW119890   2.927   0.337   0.239  0.5834  0.3429 -1.4459
 6402SOL    HW219891   2.943   0.187   0.225 -0.7491  0.0986 -0.5885
 6403SOL     OW19892   3.159   2.381   2.210  0.0414  0.6339  0.0891
 6403SOL    HW119893   3.195   2.373   2.299  1.7005  1.0771 -0.5069
 6403SOL    HW219894   3.133   2.473   2.203  2.2652  1.2699 -0.6751
 6404SOL     OW19895   3.282   2.514   4.794  0.1606 -0.2756 -0.4459
 6404SOL    HW119896   3.333   2.461   4.856 -2.3296 -1.2767  0.8993
 6404SOL    HW219897   3.338   2.589   4.775  1.3771 -0.2929  2.4882
 6405SOL     OW19898   2.134   6.461   4.455 -0.6189  0.1715  0.1148
 6405SOL    HW119899   2.132   6.547   4.414 -1.3126  0.6081  1.0165
 6405SOL    HW219900   2.205   6.414   4.411  1.0698  1.8538  0.9152
 6406SOL     OW19901   2.361   0.179   1.977 -0.2150  0.7236  0.2244
 6406SOL    HW119902   2.342   0.230   2.055 -0.4752  1.7887 -0.5143
 6406SOL    HW219903   2.329   0.233   1.904 -0.2985 -0.3949 -0.5991
 6407SOL     OW19904   1.692   4.186   0.739 -0.1908 -0.2878  0.0778
 6407SOL    HW119905   1.649   4.207   0.822  0.6035 -0.1053  0.4456
 6407SOL    HW219906   1.656   4.249   0.677 -0.8477 -0.4730  0.2576
 6408SOL     OW19907   0.708   5.137   3.365 -0.3402 -0.2127  0.4912
 6408SOL    HW119908   0.793   5.100   3.389 -0.1004  0.4156  0.6340
 6408SOL    HW219909   0.725   5.231   3.355 -0.4987 -0.3753 -1.8095
 6409SOL     OW19910   1.980   3.849   1.193  0.1636 -0.3033 -0.1085
 6409SOL    HW119911   1.900   3.851   1.245 -0.5264 -1.0582 -1.0943
 6409SOL    HW219912   1.992   3.939   1.163 -0.8314 -0.3429 -0.6742
 6410SOL     OW19913   0.849   2.924   2.077 -1.0330  0.4547  0.0455
 6410SOL    HW119914   0.932   2.971   2.086  0.0188 -1.2052 -0.4740
 6410SOL    HW219915   0.848   2.863   2.151 -1.9894  0.7306  0.2725
 6411SOL     OW19916   6.146   2.955   3.088  0.1730 -0.7612 -0.0693
 6411SOL    HW119917   6.111   2.963   3.176 -0.3940 -2.2408 -0.1272
 6411SOL    HW219918   6.241   2.953   3.100  0.1644  0.4743  0.3469
 6412SOL     OW19919   6.019   5.014   4.372 -0.2462  0.7417  0.0426
 6412SOL    HW119920   5.967   5.061   4.307 -1.0862 -1.1178 -0.6972
 6412SOL    HW219921   6.059   4.942   4.324 -1.4223 -1.0944  1.6500
 6413SOL     OW19922   1.094   6.465   1.926 -0.1779  0.2249 -0.3746
 6413SOL    HW119923   1.005   6.490   1.902 -0.2024  0.8729  0.3450
 6413SOL    HW219924   1.097   6.475   2.021  0.8579  0.9091 -0.4539
 6414SOL     OW19925   1.155   1.637   6.167 -0.0080 -0.5683 -0.2348
 6414SOL    HW119926   1.123   1.727   6.159 -0.2947 -0.5423  1.0987
 6414SOL    HW219927   1.224   1.641   6.233 -0.6513 -1.4865  0.5185
 6415SOL     OW19928   3.506   6.747   0.240 -0.5318  0.6013  0.6180
 6415SOL    HW119929   3.503   6.679   0.172  0.4700  1.1375  0.0134
 6415SOL    HW219930   3.577   6.805   0.212 -0.9146  1.5071  1.4976
 6416SOL     OW19931   1.424   3.919   4.515  0.0880 -0.0447  0.0429
 6416SOL    HW119932   1.504   3.971   4.522 -0.7421  1.3214 -0.1944
 6416SOL    HW219933   1.355   3.983   4.497 -0.8136 -1.3558 -1.4496
 6417SOL     OW19934   4.975   0.919   1.677 -0.0371  0.1356 -0.2192
 6417SOL    HW119935   4.949   0.854   1.613 -0.7908  0.7953 -0.5998
 6417SOL    HW219936   5.045   0.969   1.634 -0.8185  0.8393 -0.7094
 6418SOL     OW19937   4.053   6.506   0.876 -0.0812 -0.0233 -0.2086
 6418SOL    HW119938   4.115   6.575   0.901 -0.4744  0.6330 -0.9686
 6418SOL    HW219939   4.018   6.474   0.959 -1.4450  2.1673  0.1636
 6419SOL     OW19940   1.944   2.831   6.804  0.2761  0.0810  0.7092
 6419SOL    HW119941   1.862   2.788   6.831  1.1614 -1.2897  1.3357
 6419SOL    HW219942   1.917   2.919   6.778 -1.9163 -1.2579 -2.1816
 6420SOL     OW19943   6.302   1.050   4.976  0.2077  0.3093 -0.3943
 6420SOL    HW119944   6.228   1.003   5.016 -0.3550  1.8822  0.4882
 6420SOL    HW219945   6.279   1.142   4.984  2.0660  0.8247 -0.5400
 6421SOL     OW19946   0.135   4.005   4.574  0.7388  0.3878  0.0419
 6421SOL    HW119947   0.211   4.004   4.632  0.6378 -0.0251  0.1655
 6421SOL    HW219948   0.168   3.975   4.489  0.5677 -0.4679  0.2745
 6422SOL     OW19949   1.754   4.695   1.806 -0.2181  0.2062 -0.1896
 6422SOL    HW119950   1.786   4.760   1.869  3.8521 -1.0323 -0.7326
 6422SOL    HW219951   1.772   4.733   1.720  3.4050 -1.8334 -0.5515
 6423SOL     OW19952   2.746   3.158   2.022 -0.1018 -0.3793 -0.3221
 6423SOL    HW119953   2.784   3.168   1.935 -0.0669 -1.5243 -0.4532
 6423SOL    HW219954   2.675   3.223   2.025 -0.2788 -0.5112 -1.3026
 6424SOL     OW19955   3.042   2.493   3.159  0.5813 -0.0991  0.3368
 6424SOL    HW119956   2.956   2.515   3.197  1.2778  0.1792  1.8554
 6424SOL    HW219957   3.073   2.576   3.124 -0.5428 -0.5776 -1.9737
 6425SOL     OW19958   6.472   3.482   1.307 -0.1364 -0.5998  0.7107
 6425SOL    HW119959   6.389   3.527   1.290  0.0638 -0.7036 -0.7220
 6425SOL    HW219960   6.519   3.540   1.367  0.2584  1.3370 -1.3387
 6426SOL     OW19961   0.255   1.650   4.643  0.8277  0.2202  0.4576
 6426SOL    HW119962   0.276   1.712   4.713 -1.0812 -0.4828  1.7321
 6426SOL    HW219963   0.169   1.677   4.612 -0.0343 -1.7086  1.0166
 6427SOL     OW19964   0.639   1.959   1.079  0.1720  0.1279 -0.3461
 6427SOL    HW119965   0.718   2.013   1.073  2.0398 -2.4093 -0.3808
 6427SOL    HW219966   0.619   1.937   0.988 -0.1877  0.2149 -0.2887
 6428SOL     OW19967   4.268   1.550   2.923  0.0136 -0.0812  0.9302
 6428SOL    HW119968   4.278   1.632   2.875  0.6227 -0.3973  0.5070
 6428SOL    HW219969   4.344   1.546   2.982  1.1336 -1.3013 -0.5167
 6429SOL     OW19970   1.444   4.491   6.112  0.5174 -0.0135  0.2805
 6429SOL    HW119971   1.505   4.485   6.186  1.4237 -2.3247 -0.5704
 6429SOL    HW219972   1.458   4.410   6.062 -1.3558  0.6360 -1.4421
 6430SOL     OW19973   5.251   5.656   4.288  0.0249  0.1784 -0.1363
 6430SOL    HW119974   5.292   5.585   4.239 -0.3339  1.0925 -1.8612
 6430SOL    HW219975   5.195   5.612   4.352 -0.4070 -1.1086 -1.3413
 6431SOL     OW19976   3.026   4.950   3.165  0.4887  0.4057  0.2666
 6431SOL    HW119977   3.022   4.915   3.076  1.7332  1.5361 -0.2684
 6431SOL    HW219978   3.113   4.924   3.196  1.0616  2.1556  0.2017
 6432SOL     OW19979   0.194   5.512   6.872 -0.3919 -0.3851  0.2255
 6432SOL    HW119980   0.267   5.573   6.857  0.3356 -1.7327 -2.2323
 6432SOL    HW219981   0.116   5.566   6.860  0.2023  0.6009  0.6520
 6433SOL     OW19982   0.670   4.784   2.799  0.1695  0.2049  0.0313
 6433SOL    HW119983   0.711   4.699   2.788  0.3253 -0.1447  2.6140
 6433SOL    HW219984   0.592   4.766   2.851 -0.3481  1.5267 -0.2534
 6434SOL     OW19985   1.593   5.343   4.848 -0.0214 -0.2511 -0.0252
 6434SOL    HW119986   1.561   5.277   4.786 -0.0021 -1.0641  0.8185
 6434SOL    HW219987   1.641   5.405   4.793  0.0387 -0.9756 -0.8209
 6435SOL     OW19988   3.672   5.630   1.435  0.4365  0.0041  0.1956
 6435SOL    HW119989   3.635   5.702   1.485  0.8619  0.7922 -0.6089
 6435SOL    HW219990   3.597   5.586   1.396 -0.2329 -2.3323  3.6138
 6436SOL     OW19991   2.195   4.926   0.435 -0.0264  0.2353 -0.0653
 6436SOL    HW119992   2.177   4.994   0.500 -1.1639 -0.6873  0.6333
 6436SOL    HW219993   2.285   4.900   0.452  0.0990  0.8921  0.3098
 6437SOL     OW19994   2.828   6.672   2.185  0.4823  0.1213 -0.0955
 6437SOL    HW119995   2.843   6.584   2.150  1.0652  0.0821  0.2283
 6437SOL    HW219996   2.734   6.687   2.176  0.5322 -0.1146 -1.1327
 6438SOL     OW19997   5.615   1.888   5.763 -0.5126  0.1343  0.2491
 6438SOL    HW119998   5.625   1.926   5.851 -0.4518 -0.0337  0.3140
 6438SOL    HW219999   5.688   1.827   5.754 -0.4763  0.2052  0.0528
 6439SOL     OW20000   1.292   2.528   6.652  0.5905 -0.1300  0.1408
 6439SOL    HW120001   1.226   2.468   6.687  1.1474 -0.0954  1.2897
 6439SOL    HW220002   1.303   2.500   6.561 -0.8328 -0.2745 -0.0103
 6440SOL     OW20003   1.002   0.005   3.394  0.1418 -0.4102 -0.3277
 6440SOL    HW120004   1.034  -0.072   3.348  0.4861 -0.5640  0.1758
 6440SOL    HW220005   0.913  -0.018   3.421 -0.1439 -0.2462 -1.0810
 6441SOL     OW20006   0.126   6.043   6.715 -0.0573 -0.0949  0.3012
 6441SOL    HW120007   0.166   5.975   6.769 -1.1508 -0.5065  0.6274
 6441SOL    HW220008   0.047   6.003   6.680  0.3673  0.3401 -1.2219
 6442SOL     OW20009   3.188   6.143   6.417  0.0613 -0.0362  0.3009
 6442SOL    HW120010   3.117   6.205   6.402  1.0625  0.5629 -2.4779
 6442SOL    HW220011   3.253   6.193   6.467  0.3558  0.8416 -0.9103
 6443SOL     OW20012   2.720   6.367   1.433 -0.1450 -0.2515  0.1636
 6443SOL    HW120013   2.634   6.368   1.474 -0.4906  0.1522 -0.5431
 6443SOL    HW220014   2.765   6.443   1.469  0.2770 -0.9975  1.2534
 6444SOL     OW20015   4.003   0.473   2.214  0.8193 -0.4478  0.7829
 6444SOL    HW120016   4.092   0.480   2.181  0.3596 -1.9783 -0.8929
 6444SOL    HW220017   3.991   0.380   2.233 -0.6614 -0.3873  0.2638
 6445SOL     OW20018   3.096   6.450   5.677 -0.3558  0.1242 -0.4956
 6445SOL    HW120019   3.179   6.498   5.678  0.3147 -0.9760  1.1953
 6445SOL    HW220020   3.074   6.437   5.770 -1.4373 -1.2511 -0.9004
 6446SOL     OW20021   3.855   0.474   6.008 -0.3699 -0.1518 -0.1553
 6446SOL    HW120022   3.893   0.424   6.080 -0.3494 -0.9647 -0.7211
 6446SOL    HW220023   3.865   0.566   6.034  0.9468 -0.3868  0.2182
 6447SOL     OW20024   4.066   0.120   3.881  0.2258  0.5485  0.0237
 6447SOL    HW120025   4.086   0.210   3.855  0.5871  0.6634  0.6691
 6447SOL    HW220026   4.152   0.077   3.887 -0.0462 -0.5933 -2.8242
 6448SOL     OW20027   5.738   0.234   0.458  0.7421  0.2539 -0.2249
 6448SOL    HW120028   5.801   0.224   0.529  0.0679  0.6078  0.4451
 6448SOL    HW220029   5.773   0.305   0.404  1.1024  0.2031 -0.0579
 6449SOL     OW20030   6.552   0.437   1.945  0.0169  0.2875  0.0695
 6449SOL    HW120031   6.481   0.375   1.925 -0.6544  0.6831  1.1662
 6449SOL    HW220032   6.627   0.404   1.895 -0.4422 -1.1703  0.2952
 6450SOL     OW20033   2.748   5.398   5.628  0.3107 -0.1188  0.3485
 6450SOL    HW120034   2.722   5.326   5.685 -0.0245 -1.0778 -0.9551
 6450SOL    HW220035   2.689   5.469   5.651  0.4089 -0.3630  1.4149
 6451SOL     OW20036   5.663   1.754   3.848 -0.5042  0.2758 -0.1799
 6451SOL    HW120037   5.616   1.771   3.767  1.1462 -0.5865 -1.3849
 6451SOL    HW220038   5.686   1.840   3.882 -1.6165  0.6563 -0.3411
 6452SOL     OW20039   1.493   0.797   1.812 -0.2667  0.5361  0.1290
 6452SOL    HW120040   1.426   0.804   1.880 -0.4348 -0.3093  0.0532
 6452SOL    HW220041   1.491   0.706   1.785 -0.8120  1.0434 -1.6344
 6453SOL     OW20042   2.276   1.642   4.125 -0.0511  0.1015 -0.2363
 6453SOL    HW120043   2.198   1.634   4.180 -0.2676 -1.3483 -0.7061
 6453SOL    HW220044   2.243   1.632   4.035  0.7201 -1.0002 -0.4123
 6454SOL     OW20045   0.523   1.230   0.328 -0.3429 -0.4563  0.1310
 6454SOL    HW120046   0.591   1.251   0.392 -1.1771  2.1669  0.3110
 6454SOL    HW220047   0.446   1.211   0.381 -0.4573 -0.5959 -0.0841
 6455SOL     OW20048   3.464   4.595   0.330  0.0475 -0.1007 -0.0372
 6455SOL    HW120049   3.415   4.674   0.352  1.3356  0.4912  0.7524
 6455SOL    HW220050   3.485   4.555   0.414  0.3386 -0.7179 -0.3917
 6456SOL     OW20051   0.740   1.098   5.212 -0.4721 -0.5291  0.8391
 6456SOL    HW120052   0.800   1.053   5.152 -2.1055  0.6798 -1.9178
 6456SOL    HW220053   0.673   1.033   5.232  0.1546 -0.9824  1.4893
 6457SOL     OW20054   1.104   2.345   3.103  0.1647 -0.3990 -0.4646
 6457SOL    HW120055   1.101   2.429   3.150 -0.1462 -0.9026  0.4500
 6457SOL    HW220056   1.195   2.315   3.113  0.2243 -0.2688 -0.6149
 6458SOL     OW20057   5.316   5.580   3.220 -0.1703  0.0279 -0.0925
 6458SOL    HW120058   5.401   5.554   3.186 -0.3349 -0.5114 -0.0996
 6458SOL    HW220059   5.254   5.517   3.181 -0.5144  0.1532  0.2451
 6459SOL     OW20060   3.285   4.658   4.864  0.3886  0.4200 -0.0417
 6459SOL    HW120061   3.212   4.626   4.917  1.3917 -0.7370  0.7078
 6459SOL    HW220062   3.292   4.751   4.886 -0.7910  0.5287 -0.0639
 6460SOL     OW20063   6.892   5.136   3.979 -0.2382  0.6389  0.0116
 6460SOL    HW120064   6.832   5.109   3.909  2.2067  1.0140 -2.4305
 6460SOL    HW220065   6.864   5.225   4.000 -1.1140  0.4758 -0.3828
 6461SOL     OW20066   4.181   0.536   4.336  0.1728  0.3687  0.3567
 6461SOL    HW120067   4.266   0.514   4.299  0.4007  0.9062  0.5607
 6461SOL    HW220068   4.118   0.512   4.267  0.4006 -0.9234  0.5738
 6462SOL     OW20069   2.038   1.275   6.053  0.1842 -0.1324  0.0416
 6462SOL    HW120070   2.009   1.193   6.093  0.8371 -0.7285 -0.6703
 6462SOL    HW220071   2.036   1.338   6.125 -0.1995 -0.8000  0.6356
 6463SOL     OW20072   5.851   5.288   4.346 -0.4808  0.4599  0.3388
 6463SOL    HW120073   5.822   5.235   4.420  2.2253 -0.8344  0.5579
 6463SOL    HW220074   5.828   5.236   4.269  0.1326 -0.0069  0.4614
 6464SOL     OW20075   5.962   4.331   3.303  0.1688  0.3960  0.0888
 6464SOL    HW120076   5.958   4.357   3.210 -0.0252 -1.3316 -0.4239
 6464SOL    HW220077   5.911   4.398   3.348  0.8679  1.6888 -0.9339
 6465SOL     OW20078   4.990   4.201   0.119 -0.2028 -0.1344 -0.0331
 6465SOL    HW120079   4.901   4.218   0.149  0.2904 -0.5279  1.7367
 6465SOL    HW220080   5.037   4.282   0.138 -0.7423  1.2565 -3.7038
 6466SOL     OW20081   5.882   5.921   2.464 -0.4176  0.4738  0.2161
 6466SOL    HW120082   5.957   5.864   2.447 -0.3139  0.4943  0.6000
 6466SOL    HW220083   5.920   6.009   2.474 -0.8317  1.2720 -3.5917
 6467SOL     OW20084   6.490   4.580   6.318 -0.5937  0.5073 -0.0696
 6467SOL    HW120085   6.454   4.668   6.313  1.0044  1.1550 -0.9949
 6467SOL    HW220086   6.506   4.555   6.227  0.1592 -0.2059  0.2395
 6468SOL     OW20087   3.016   5.703   0.427 -0.5269 -0.6394  0.6227
 6468SOL    HW120088   3.045   5.765   0.494  0.1003  0.6293 -0.7665
 6468SOL    HW220089   3.068   5.624   0.443  0.3471 -0.0008  1.0138
 6469SOL     OW20090   2.164   2.921   3.877 -0.1537  0.0714  0.1715
 6469SOL    HW120091   2.159   2.904   3.971 -0.8798  0.2279  0.1680
 6469SOL    HW220092   2.241   2.977   3.867 -0.9260  1.2905  0.8693
 6470SOL     OW20093   0.800   2.474   3.797 -0.2535  0.2907 -0.1800
 6470SOL    HW120094   0.867   2.529   3.838 -1.0534  1.1485  0.0015
 6470SOL    HW220095   0.812   2.387   3.837  1.2814  0.2055 -0.7661
 6471SOL     OW20096   1.103   0.252   6.069  0.3053  0.8806 -0.7882
 6471SOL    HW120097   1.054   0.334   6.067 -1.5459 -0.1946 -1.3057
 6471SOL    HW220098   1.140   0.244   5.981  0.4868  1.1475 -0.7382
 6472SOL     OW20099   2.458   3.149   2.838  0.4425  0.0886  0.3283
 6472SOL    HW120100   2.391   3.217   2.850 -0.7643 -1.0029  0.0931
 6472SOL    HW220101   2.408   3.067   2.840  2.0098 -0.9008  1.9847
 6473SOL     OW20102   2.822   6.044   2.329 -0.0207 -0.5907  0.1734
 6473SOL    HW120103   2.862   6.073   2.411 -1.4925  2.0168  0.0714
 6473SOL    HW220104   2.891   6.054   2.263  0.6658 -1.1281  0.7877
 6474SOL     OW20105   4.800   1.026   5.776  1.0937  0.2670  0.0323
 6474SOL    HW120106   4.865   1.001   5.842  2.1362 -0.5918 -1.2678
 6474SOL    HW220107   4.789   0.947   5.722  1.3539  1.3349 -1.6759
 6475SOL     OW20108   3.649   2.351   0.374 -0.4189  0.3435  0.0429
 6475SOL    HW120109   3.606   2.351   0.459  2.0639 -1.0359  1.4081
 6475SOL    HW220110   3.715   2.282   0.380 -0.7805 -0.4959 -3.3735
 6476SOL     OW20111   4.277   0.534   1.838 -0.6148 -0.5714  0.1977
 6476SOL    HW120112   4.271   0.514   1.931 -0.6865  0.6517  0.4720
 6476SOL    HW220113   4.202   0.590   1.820  0.5984  1.0578 -0.0680
 6477SOL     OW20114   1.907   5.966   4.521  0.0428 -0.4564  0.0234
 6477SOL    HW120115   1.905   5.876   4.555 -1.0429 -1.0705 -1.5352
 6477SOL    HW220116   1.858   5.961   4.439  0.3831  1.4783 -0.3346
 6478SOL     OW20117   3.282   2.376   2.451 -0.2069  0.1629  0.4639
 6478SOL    HW120118   3.230   2.424   2.515 -1.3604 -0.9639  0.3994
 6478SOL    HW220119   3.303   2.293   2.494  2.7604  1.0706  1.0324
 6479SOL     OW20120   5.214   2.071   2.548 -0.1801  0.3180 -0.4401
 6479SOL    HW120121   5.274   2.036   2.614  0.3323 -0.1184 -1.1193
 6479SOL    HW220122   5.247   2.159   2.530 -0.6008  0.6183  0.2136
 6480SOL     OW20123   3.555   5.269   2.813  0.1084  0.1646 -0.0676
 6480SOL    HW120124   3.648   5.247   2.820  0.5208  0.9549 -2.2268
 6480SOL    HW220125   3.543   5.344   2.871  1.2209  1.0964 -1.0045
 6481SOL     OW20126   5.980   6.454   0.738 -0.5330  0.4181 -0.1982
 6481SOL    HW120127   5.939   6.384   0.687 -1.0318  0.3897  0.2452
 6481SOL    HW220128   5.955   6.436   0.828  0.0610  0.6746  0.0205
 6482SOL     OW20129   1.922   3.909   4.272  0.1431 -0.0298  0.2080
 6482SOL    HW120130   1.877   3.825   4.287  0.3974 -0.0341  1.0275
 6482SOL    HW220131   1.852   3.971   4.254 -0.0363 -0.4500 -0.5644
 6483SOL     OW20132   5.292   1.588   6.828  0.3879  0.0597 -0.1764
 6483SOL    HW120133   5.307   1.658   6.892  0.2540 -0.2649  0.2115
 6483SOL    HW220134   5.267   1.512   6.881 -0.2868 -0.0572 -0.6517
 6484SOL     OW20135   4.738   3.539   6.597 -0.2462 -0.2803 -0.4604
 6484SOL    HW120136   4.733   3.531   6.502 -1.1596  0.7093 -0.5188
 6484SOL    HW220137   4.654   3.579   6.622 -1.2525 -3.0967  1.0715
 6485SOL     OW20138   4.443   4.610   4.634 -0.3798 -0.2213 -0.2292
 6485SOL    HW120139   4.394   4.538   4.595  0.4235 -0.7521 -0.2964
 6485SOL    HW220140   4.390   4.688   4.619 -2.0719 -1.0119  1.2608
 6486SOL     OW20141   0.373   3.546   2.961  0.2929 -0.1426  0.3101
 6486SOL    HW120142   0.381   3.548   2.866 -0.2427  0.3971  0.2757
 6486SOL    HW220143   0.460   3.571   2.992 -0.0404  1.6017 -0.0541
 6487SOL     OW20144   5.966   3.105   2.567 -0.5809 -0.2896 -0.1952
 6487SOL    HW120145   5.967   3.042   2.494  1.2617 -0.4496 -0.0788
 6487SOL    HW220146   5.997   3.054   2.642  1.2507  0.7867 -0.1617
 6488SOL     OW20147   4.156   4.427   1.984  0.4232  0.0068 -0.0719
 6488SOL    HW120148   4.136   4.354   1.925 -2.9560  1.9541 -1.5837
 6488SOL    HW220149   4.108   4.407   2.064  1.3915 -0.4788  0.4081
 6489SOL     OW20150   5.599   1.267   6.367 -0.1309 -0.4747 -0.5547
 6489SOL    HW120151   5.632   1.356   6.356 -1.4373  0.4522  2.1043
 6489SOL    HW220152   5.562   1.266   6.456 -3.3869 -2.5787 -1.7315
 6490SOL     OW20153   6.793   0.365   1.163 -0.4958 -0.2900 -0.6090
 6490SOL    HW120154   6.786   0.380   1.257  1.3303  0.9242 -0.6196
 6490SOL    HW220155   6.814   0.272   1.154  2.2119  0.1486  0.4131
 6491SOL     OW20156   5.953   1.111   5.468 -0.2365  0.2163  0.2355
 6491SOL    HW120157   5.988   1.121   5.379 -1.0218  1.0442  0.0069
 6491SOL    HW220158   5.974   1.021   5.491  0.6213  0.2068 -0.5083
 6492SOL     OW20159   0.761   4.627   0.222  0.7136 -0.0522  0.0231
 6492SOL    HW120160   0.684   4.584   0.257 -1.0858  1.5823 -1.6837
 6492SOL    HW220161   0.790   4.570   0.150 -0.7147  0.7332 -1.2192
 6493SOL     OW20162   6.102   2.202   3.011  0.0946  0.2641  0.1482
 6493SOL    HW120163   6.142   2.120   2.981 -0.7507 -0.4676  0.9630
 6493SOL    HW220164   6.035   2.175   3.073 -2.3606  1.3637 -1.8444
 6494SOL     OW20165   1.511   4.756   0.048 -0.4877 -0.3492  0.2977
 6494SOL    HW120166   1.490   4.709  -0.032 -0.3525  0.7668 -0.4150
 6494SOL    HW220167   1.468   4.706   0.117 -0.8093 -1.1916 -0.4955
 6495SOL     OW20168   5.779   4.672   1.350 -1.0954  0.0088  0.3519
 6495SOL    HW120169   5.724   4.594   1.343 -1.4308  0.1709  1.1267
 6495SOL    HW220170   5.718   4.742   1.373 -0.7285  0.4202  0.0928
 6496SOL     OW20171   1.360   4.221   3.361 -0.3339  0.1593  0.4132
 6496SOL    HW120172   1.373   4.128   3.341  0.5383  0.1820  0.8197
 6496SOL    HW220173   1.372   4.266   3.278  0.1932 -0.0104  0.3966
 6497SOL     OW20174   6.548   0.718   4.160  0.3022 -0.3705  0.0767
 6497SOL    HW120175   6.637   0.684   4.161  0.4483 -0.0688 -1.0815
 6497SOL    HW220176   6.524   0.726   4.252  1.6052 -0.1024  0.4066
 6498SOL     OW20177   2.424   5.401   5.297 -0.1920 -0.0503 -0.4115
 6498SOL    HW120178   2.491   5.397   5.228 -0.0098  1.9188 -0.4146
 6498SOL    HW220179   2.372   5.478   5.274 -2.4397 -1.4829 -0.3454
 6499SOL     OW20180   4.041   4.519   5.531 -0.8626 -0.5184  0.0347
 6499SOL    HW120181   4.097   4.498   5.456  0.2572  2.1530  0.0058
 6499SOL    HW220182   4.070   4.460   5.600  2.5267  1.0607  0.1867
 6500SOL     OW20183   4.704   0.628   0.782  0.3085  0.1586 -0.0170
 6500SOL    HW120184   4.778   0.657   0.836 -0.2562 -0.0186  0.8715
 6500SOL    HW220185   4.629   0.677   0.817 -0.4490 -1.4458  0.7275
 6501SOL     OW20186   5.467   5.686   5.797  0.4990 -0.1121 -0.0413
 6501SOL    HW120187   5.424   5.647   5.874 -0.6439 -1.4029 -1.2854
 6501SOL    HW220188   5.535   5.743   5.834  0.6315 -1.4381  1.9092
 6502SOL     OW20189   5.789   5.086   4.938  0.0958  0.3367  0.1921
 6502SOL    HW120190   5.858   5.021   4.925  0.5208  0.7301  0.4344
 6502SOL    HW220191   5.709   5.035   4.949  0.7585 -0.2787  2.8533
 6503SOL     OW20192   6.601   0.599   0.154  0.2794 -0.1976  0.1921
 6503SOL    HW120193   6.525   0.570   0.103 -0.4215  1.1275  0.4559
 6503SOL    HW220194   6.670   0.610   0.089 -0.9851  2.8978 -0.8302
 6504SOL     OW20195   3.022   2.917   5.961 -0.6845 -0.5325  0.1233
 6504SOL    HW120196   3.083   2.871   5.904  0.3179  0.8256  0.0563
 6504SOL    HW220197   3.019   2.864   6.041  0.8475 -0.4558  0.2574
 6505SOL     OW20198   3.759   0.582   4.205  0.3869 -0.7766 -0.0862
 6505SOL    HW120199   3.780   0.669   4.238  1.9215 -0.1076 -2.5825
 6505SOL    HW220200   3.664   0.581   4.196  0.4277  1.1442 -1.1829
 6506SOL     OW20201   5.397   1.816   2.292 -0.4501  0.9891  0.0055
 6506SOL    HW120202   5.337   1.863   2.234  0.3990  1.4725 -0.5108
 6506SOL    HW220203   5.484   1.839   2.260  0.0210 -1.4251 -0.6665
 6507SOL     OW20204   6.587   4.348   5.728 -0.4348 -0.5990  0.1892
 6507SOL    HW120205   6.640   4.278   5.691 -0.4371 -0.4712 -0.0539
 6507SOL    HW220206   6.531   4.377   5.656 -0.7644 -0.6652  0.4167
 6508SOL     OW20207   4.241   5.108   1.827  0.2059  0.4301 -0.4374
 6508SOL    HW120208   4.281   5.047   1.766 -0.9804  0.7405 -1.5519
 6508SOL    HW220209   4.162   5.139   1.783  0.6387  2.5978  0.1792
 6509SOL     OW20210   5.725   5.379   5.793 -0.2515  0.1330 -0.2815
 6509SOL    HW120211   5.632   5.391   5.773 -0.4923 -0.7858  0.2604
 6509SOL    HW220212   5.734   5.287   5.816  0.6472  0.3829  0.4680
 6510SOL     OW20213   1.570   2.943   3.190 -0.7449  0.3242 -0.2137
 6510SOL    HW120214   1.475   2.936   3.185 -0.7775 -0.0891  0.7115
 6510SOL    HW220215   1.586   3.026   3.235 -0.6629  0.4815 -0.5326
 6511SOL     OW20216   2.020   2.623   1.287  0.2000  1.0678  0.4127
 6511SOL    HW120217   2.046   2.696   1.231  0.0521  0.3553 -0.6190
 6511SOL    HW220218   1.962   2.662   1.352  2.3302  2.3581  1.6318
 6512SOL     OW20219   5.949   6.804   4.397 -0.2643  0.3678 -0.0278
 6512SOL    HW120220   5.899   6.829   4.319 -0.0029 -0.8677 -0.6151
 6512SOL    HW220221   5.916   6.718   4.421 -0.7377  0.9710  1.5914
 6513SOL     OW20222   3.730   0.911   2.986 -0.0904 -0.7069 -0.0547
 6513SOL    HW120223   3.652   0.875   2.944  1.0241 -1.6164 -1.4335
 6513SOL    HW220224   3.695   0.965   3.057 -2.0866  0.7933 -1.9993
 6514SOL     OW20225   3.864   0.638   4.634 -0.0000  0.6521 -0.2360
 6514SOL    HW120226   3.842   0.664   4.723  0.2214 -0.6652  0.2120
 6514SOL    HW220227   3.793   0.674   4.580 -1.3619 -0.4935  0.7482
 6515SOL     OW20228   0.934   4.770   3.532  0.2757  0.7693 -0.0088
 6515SOL    HW120229   1.028   4.782   3.515  0.0962  2.2622 -0.0913
 6515SOL    HW220230   0.892   4.786   3.447 -0.0047 -0.9339 -0.2187
 6516SOL     OW20231   0.096   1.731   5.351 -0.1158 -0.2348  0.5366
 6516SOL    HW120232   0.081   1.636   5.355 -0.3323 -0.1663  2.7755
 6516SOL    HW220233   0.177   1.745   5.401 -0.7088  0.8589  1.2274
 6517SOL     OW20234   4.084   6.454   2.079 -0.4062 -0.2935  0.2349
 6517SOL    HW120235   3.998   6.445   2.039 -0.5054  0.7816  0.1629
 6517SOL    HW220236   4.146   6.442   2.007 -0.5647  0.8629 -0.1133
 6518SOL     OW20237   5.052   2.573   2.983 -0.4394  0.2259 -0.0987
 6518SOL    HW120238   5.105   2.542   2.909  0.8191 -0.1047  0.9040
 6518SOL    HW220239   5.034   2.665   2.963  0.9386  0.4871 -0.2425
 6519SOL     OW20240   3.063   2.953   1.692  0.1659 -0.0703 -0.3275
 6519SOL    HW120241   3.021   2.869   1.707  0.6511 -0.3944 -0.7282
 6519SOL    HW220242   3.088   2.984   1.780 -0.3482 -0.1604 -0.1479
 6520SOL     OW20243   6.747   5.390   6.090 -0.1527  0.2239 -0.6168
 6520SOL    HW120244   6.686   5.454   6.054  0.2838  0.9062 -0.1725
 6520SOL    HW220245   6.695   5.311   6.101 -1.1981  1.0351  0.5448
 6521SOL     OW20246   0.949   5.818   4.016 -0.0461 -0.6058  0.4665
 6521SOL    HW120247   0.895   5.837   4.093 -0.8535 -0.1010 -0.2040
 6521SOL    HW220248   0.918   5.879   3.949  1.4311 -0.2407  0.0818
 6522SOL     OW20249   1.866   6.477   1.504  0.0410 -0.7282  0.4122
 6522SOL    HW120250   1.796   6.424   1.464 -1.3110  0.7477  0.7101
 6522SOL    HW220251   1.845   6.476   1.597 -0.2085  0.5791  0.3841
 6523SOL     OW20252   4.193   4.491   0.788  0.0000 -0.3624 -0.0696
 6523SOL    HW120253   4.210   4.427   0.857 -2.5215 -0.1957  0.8109
 6523SOL    HW220254   4.253   4.563   0.807 -1.5380  0.3164  2.9068
 6524SOL     OW20255   4.730   1.994   3.483 -0.4395 -0.4109 -0.1941
 6524SOL    HW120256   4.677   2.048   3.541 -0.7291 -0.7167 -0.1691
 6524SOL    HW220257   4.815   2.037   3.481 -0.2275 -0.7470  0.9775
 6525SOL     OW20258   4.245   5.291   6.101  0.2333 -0.1483 -0.0500
 6525SOL    HW120259   4.162   5.257   6.067  0.3946 -0.8802  0.2666
 6525SOL    HW220260   4.312   5.239   6.056  0.5935  1.3784 -1.3553
 6526SOL     OW20261   0.823   0.637   6.865  0.0769  0.3489 -0.1238
 6526SOL    HW120262   0.756   0.570   6.851  0.8955 -0.3909 -0.6047
 6526SOL    HW220263   0.860   0.617   6.951  0.4642  0.0408 -0.3567
 6527SOL     OW20264   3.341   1.645   3.274 -0.0620  0.0445 -0.1362
 6527SOL    HW120265   3.355   1.666   3.366 -0.4915 -0.3528  0.0238
 6527SOL    HW220266   3.325   1.730   3.232  0.7526  0.2959  0.0348
 6528SOL     OW20267   5.127   6.240   5.894  0.6291  0.4155 -0.3219
 6528SOL    HW120268   5.179   6.173   5.850  0.4189  0.8591 -1.2853
 6528SOL    HW220269   5.037   6.213   5.880  0.5510  0.7689 -0.5196
 6529SOL     OW20270   1.436   4.837   5.062  0.0111  0.4008 -0.2282
 6529SOL    HW120271   1.368   4.842   5.128  0.2482  0.4358  0.0144
 6529SOL    HW220272   1.518   4.835   5.112  0.2132  0.9210 -0.5313
 6530SOL     OW20273   1.674   2.181   5.150 -0.0446  0.7242 -0.3903
 6530SOL    HW120274   1.712   2.164   5.064  1.5056  0.5279  0.3014
 6530SOL    HW220275   1.619   2.258   5.137 -0.2836  0.3658 -1.6678
 6531SOL     OW20276   0.162   0.510   1.849  0.4160  0.8193 -0.2808
 6531SOL    HW120277   0.069   0.526   1.865  0.3652  0.7873 -0.5458
 6531SOL    HW220278   0.167   0.420   1.819  0.3020  1.3973 -2.1540
 6532SOL     OW20279   0.916   5.195   1.946 -0.2803  0.2466  0.1036
 6532SOL    HW120280   0.958   5.188   1.860  0.4834  0.8008  0.4217
 6532SOL    HW220281   0.917   5.106   1.980  0.9926  0.3141  0.2652
 6533SOL     OW20282   0.870   0.687   6.319 -0.2635  0.3033  0.4129
 6533SOL    HW120283   0.837   0.776   6.331  1.8753  1.1815  0.3100
 6533SOL    HW220284   0.794   0.631   6.334 -1.9844  2.1631 -0.7137
 6534SOL     OW20285   5.494   1.609   1.547  0.1152  0.3608  0.6111
 6534SOL    HW120286   5.448   1.693   1.548  0.8541  0.7690  1.5943
 6534SOL    HW220287   5.425   1.544   1.553 -0.4033  0.9316  0.9512
 6535SOL     OW20288   3.898   1.615   6.642  0.4211 -0.0108  0.3097
 6535SOL    HW120289   3.895   1.562   6.722  2.8655  1.0358  1.1798
 6535SOL    HW220290   3.893   1.551   6.571  1.6583 -1.3039  1.3282
 6536SOL     OW20291   1.593   3.996   2.297 -0.0867  0.0962  0.0927
 6536SOL    HW120292   1.663   4.027   2.239 -0.1137 -0.4341 -0.2323
 6536SOL    HW220293   1.566   3.913   2.259 -1.9915  1.0278 -0.7113
 6537SOL     OW20294   6.095   1.697   4.595 -0.1199  0.1721  0.6724
 6537SOL    HW120295   6.147   1.747   4.532 -0.5680  0.7550  0.7656
 6537SOL    HW220296   6.005   1.703   4.563 -0.1906 -0.5213  0.7206
 6538SOL     OW20297   2.595   4.946   0.263 -0.3721  0.2568 -0.3321
 6538SOL    HW120298   2.624   4.932   0.353 -1.8399 -0.5130  0.0485
 6538SOL    HW220299   2.616   5.038   0.245  1.6732 -0.0803  0.0984
 6539SOL     OW20300   2.474   4.460   1.371 -0.0123 -0.1380 -0.0017
 6539SOL    HW120301   2.380   4.475   1.379  0.4515  1.9831  2.5534
 6539SOL    HW220302   2.486   4.370   1.402 -1.1878 -0.5679 -0.6914
 6540SOL     OW20303   1.657   5.389   5.091 -0.1634  0.0009 -0.1449
 6540SOL    HW120304   1.750   5.366   5.095 -0.4450 -0.9544  1.4211
 6540SOL    HW220305   1.636   5.387   4.997  1.4578  0.5774 -0.5564
 6541SOL     OW20306   5.088   2.107   0.645 -0.1492 -0.0959 -0.4957
 6541SOL    HW120307   5.142   2.171   0.691 -0.4350  0.1005 -0.4348
 6541SOL    HW220308   4.998   2.133   0.662 -0.3206 -1.3466  0.7309
 6542SOL     OW20309   3.438   3.249   5.500  0.1377 -0.5740  0.3026
 6542SOL    HW120310   3.499   3.299   5.446  0.6811 -0.6613  0.8217
 6542SOL    HW220311   3.485   3.168   5.522 -0.0510 -0.5238  0.9261
 6543SOL     OW20312   3.486   2.920   0.599  1.1227 -0.2167 -0.4772
 6543SOL    HW120313   3.548   2.988   0.625  1.5606 -0.3850 -1.0681
 6543SOL    HW220314   3.403   2.966   0.588  0.6376 -0.2907  2.2054
 6544SOL     OW20315   0.230   4.760   4.512  0.2391 -0.1668 -0.5428
 6544SOL    HW120316   0.260   4.708   4.438 -0.6273  0.1447 -1.1310
 6544SOL    HW220317   0.265   4.848   4.495 -1.7381  0.4578 -1.7674
 6545SOL     OW20318   4.667   4.234   4.112  0.2301 -0.4243  0.2778
 6545SOL    HW120319   4.665   4.159   4.172  0.9528 -0.1909  0.6029
 6545SOL    HW220320   4.575   4.261   4.105 -0.1205 -1.7195 -0.3284
 6546SOL     OW20321   2.334   6.821   2.040  0.0853  0.5136 -0.0035
 6546SOL    HW120322   2.365   6.905   2.006  0.3349 -0.2646 -1.8155
 6546SOL    HW220323   2.250   6.841   2.082  1.2319  2.0268  1.6889
 6547SOL     OW20324   1.912   6.858   4.695  1.0079 -0.0091  0.1799
 6547SOL    HW120325   1.916   6.763   4.706  0.4633 -0.1542 -0.7852
 6547SOL    HW220326   1.964   6.893   4.768  0.3294 -0.9989  1.1600
 6548SOL     OW20327   4.562   1.619   2.117 -0.0938 -0.5110  0.7643
 6548SOL    HW120328   4.502   1.686   2.151 -2.1104 -1.3841 -0.8527
 6548SOL    HW220329   4.565   1.553   2.186 -0.4967 -0.1534  1.1301
 6549SOL     OW20330   3.059   6.625   2.720 -0.3471  0.5257 -0.5654
 6549SOL    HW120331   3.024   6.680   2.790  0.1018 -0.6250  0.6048
 6549SOL    HW220332   3.055   6.536   2.755  1.3166  0.0851 -1.3883
 6550SOL     OW20333   2.531   2.404   2.077  0.2722  0.1319  0.4784
 6550SOL    HW120334   2.562   2.447   2.156  1.5001 -2.1426  1.3358
 6550SOL    HW220335   2.437   2.420   2.076 -0.0868 -1.2089  3.4100
 6551SOL     OW20336   0.100   5.665   2.147  0.3215  0.2740  0.1620
 6551SOL    HW120337   0.184   5.711   2.136  0.2197  0.1554 -1.2640
 6551SOL    HW220338   0.116   5.604   2.219  2.1388 -1.1881 -1.3670
 6552SOL     OW20339   5.788   4.678   5.713  0.0981  0.1182  0.5687
 6552SOL    HW120340   5.708   4.626   5.703  0.8212 -1.2864  1.6952
 6552SOL    HW220341   5.822   4.688   5.624 -0.9451  0.1202  0.1579
 6553SOL     OW20342   3.436   2.229   4.685  0.3236 -0.3980 -0.9284
 6553SOL    HW120343   3.394   2.238   4.599 -0.0137 -1.7026 -0.9181
 6553SOL    HW220344   3.503   2.297   4.686 -0.5473  0.5014 -1.6936
 6554SOL     OW20345   5.414   1.300   1.168 -0.3711 -0.1438  0.6529
 6554SOL    HW120346   5.366   1.306   1.251 -1.6000 -1.4020  0.0809
 6554SOL    HW220347   5.360   1.243   1.114  0.8795 -0.0979 -0.6966
 6555SOL     OW20348   5.745   2.652   2.450  0.1767  0.2822 -0.5807
 6555SOL    HW120349   5.746   2.561   2.481  2.5184 -0.0700 -1.4459
 6555SOL    HW220350   5.676   2.654   2.383 -0.2714 -0.7038 -0.1660
 6556SOL     OW20351   0.564   3.605   3.886  0.3588 -0.0062 -0.0638
 6556SOL    HW120352   0.650   3.645   3.899  1.0698 -0.5368 -2.5741
 6556SOL    HW220353   0.555   3.599   3.791 -2.5976  0.2587  0.1303
 6557SOL     OW20354   6.764   5.407   4.376  0.0916 -0.2353 -0.2973
 6557SOL    HW120355   6.782   5.323   4.419  3.5882  0.5110 -0.0053
 6557SOL    HW220356   6.808   5.472   4.431 -3.2894  2.0241  0.0076
 6558SOL     OW20357   5.075   6.687   5.373 -0.3062  0.7403  0.3419
 6558SOL    HW120358   4.992   6.669   5.417 -0.6952 -2.1791 -1.2859
 6558SOL    HW220359   5.084   6.782   5.375 -2.2188  0.9723  3.0797
 6559SOL     OW20360   0.458   4.528   2.254 -0.1821 -0.0355  0.3248
 6559SOL    HW120361   0.394   4.591   2.219  0.3446  0.4096  0.1498
 6559SOL    HW220362   0.541   4.552   2.212 -0.1515 -1.4541 -0.4830
 6560SOL     OW20363   4.383   3.531   2.007 -0.3746  0.4210 -0.1087
 6560SOL    HW120364   4.472   3.499   2.023  0.3918  1.6102 -1.6966
 6560SOL    HW220365   4.372   3.603   2.069 -0.0370  0.5907 -0.2455
 6561SOL     OW20366   5.702   6.399   4.721 -0.0454  0.8168 -0.1887
 6561SOL    HW120367   5.682   6.476   4.669 -2.7711  1.6271  1.8232
 6561SOL    HW220368   5.696   6.430   4.812  0.1742 -1.4690  0.6631
 6562SOL     OW20369   1.117   2.115   5.542 -0.1139  0.4124 -0.3876
 6562SOL    HW120370   1.103   2.163   5.624  0.3369  0.4442 -0.3275
 6562SOL    HW220371   1.031   2.079   5.521  0.3092 -2.1560  1.7077
 6563SOL     OW20372   1.187   2.819   5.319  0.5722 -0.1273 -0.1526
 6563SOL    HW120373   1.173   2.904   5.277 -0.1749  1.0200  2.2769
 6563SOL    HW220374   1.223   2.839   5.405  0.5996 -2.2896  0.4060
 6564SOL     OW20375   2.391   2.248   1.596  0.1899 -0.5322 -0.0329
 6564SOL    HW120376   2.343   2.183   1.546 -0.3078 -2.2205  2.4580
 6564SOL    HW220377   2.417   2.203   1.676 -0.5814  2.4013  2.0666
 6565SOL     OW20378   1.926   6.087   3.275  0.5978 -0.3841 -0.0804
 6565SOL    HW120379   1.967   6.124   3.198 -0.5486 -0.0003 -0.5301
 6565SOL    HW220380   1.940   6.152   3.344 -0.9222  0.6805 -0.7252
 6566SOL     OW20381   0.288   2.471   1.679  0.2406 -0.4959 -0.5005
 6566SOL    HW120382   0.213   2.414   1.661 -0.2082  0.1794 -0.8102
 6566SOL    HW220383   0.314   2.504   1.593 -0.5535  1.0590 -0.1723
 6567SOL     OW20384   0.237   5.839   5.077  0.2205 -0.5871  0.0177
 6567SOL    HW120385   0.271   5.850   5.166  0.7968 -0.8330 -0.1661
 6567SOL    HW220386   0.315   5.833   5.022 -0.1271 -0.7897 -0.4624
 6568SOL     OW20387   2.677   4.599   1.487 -0.1537  0.1307 -0.4249
 6568SOL    HW120388   2.596   4.556   1.460  0.1417 -0.5758 -0.2017
 6568SOL    HW220389   2.740   4.578   1.417  0.1598 -0.3304 -0.0112
 6569SOL     OW20390   3.809   2.553   2.042  0.0414  0.7186  0.0418
 6569SOL    HW120391   3.861   2.567   1.963 -1.1578 -0.9703 -1.1097
 6569SOL    HW220392   3.812   2.458   2.055 -0.1921  0.9245  1.7671
 6570SOL     OW20393   5.950   3.571   4.115 -0.2422 -0.3138  0.5838
 6570SOL    HW120394   5.999   3.609   4.042  0.1518 -0.5215  0.7366
 6570SOL    HW220395   5.940   3.642   4.177  1.4230 -0.7009  1.3534
 6571SOL     OW20396   2.855   2.557   0.772  0.2832  0.1174 -0.1256
 6571SOL    HW120397   2.898   2.495   0.831 -0.0303  0.3571  0.3605
 6571SOL    HW220398   2.807   2.503   0.710  3.6376 -0.3247 -2.6106
 6572SOL     OW20399   6.744   3.683   4.772  0.0383  0.1085  0.1788
 6572SOL    HW120400   6.772   3.745   4.706  0.3106  1.3821  1.4377
 6572SOL    HW220401   6.816   3.622   4.781  1.0687  1.3929  1.0222
 6573SOL     OW20402   6.840   4.473   4.470 -0.4703 -0.0794 -0.2146
 6573SOL    HW120403   6.797   4.540   4.524  0.7733  0.3375  0.2893
 6573SOL    HW220404   6.823   4.501   4.380 -3.3245 -1.2523 -0.1401
 6574SOL     OW20405   0.049   5.437   5.471 -0.0233 -0.0775  0.1534
 6574SOL    HW120406   0.096   5.380   5.532  1.0167 -0.6257 -1.1274
 6574SOL    HW220407  -0.041   5.405   5.473  0.4051 -1.3264 -0.0271
 6575SOL     OW20408   3.969   4.292   0.246 -0.1675 -0.3704 -0.0943
 6575SOL    HW120409   3.989   4.375   0.290  1.6347 -0.4432 -0.6971
 6575SOL    HW220410   3.879   4.274   0.271 -0.3851  1.4136  0.6245
 6576SOL     OW20411   1.578   3.399   3.249  0.0398 -0.1080  0.5241
 6576SOL    HW120412   1.602   3.433   3.163 -0.2555 -1.5315 -0.1490
 6576SOL    HW220413   1.638   3.326   3.264  0.3079  0.3252  1.6897
 6577SOL     OW20414   2.106   6.140   2.705 -0.0334 -0.4936  0.3404
 6577SOL    HW120415   2.063   6.124   2.621 -2.4897 -1.5820  1.6796
 6577SOL    HW220416   2.097   6.057   2.752  1.8418 -0.1041  1.4705
 6578SOL     OW20417   0.958   1.485   1.718  0.1319 -0.3231  0.4789
 6578SOL    HW120418   1.045   1.456   1.744 -0.4411 -1.8862  0.7218
 6578SOL    HW220419   0.908   1.485   1.799 -0.0381  0.8740  0.3941
 6579SOL     OW20420   3.343   2.949   2.485  0.6238 -0.1425  0.2932
 6579SOL    HW120421   3.425   2.961   2.436  0.6922  0.4533  0.5578
 6579SOL    HW220422   3.283   3.014   2.448  0.7971  0.5931  1.2716
 6580SOL     OW20423   1.442   2.458   4.468 -0.4953 -0.7143  0.5830
 6580SOL    HW120424   1.403   2.530   4.518 -0.4136 -0.4299  0.2401
 6580SOL    HW220425   1.520   2.495   4.429  1.1055 -1.7254  2.6229
 6581SOL     OW20426   3.905   6.556   0.629  0.0098 -0.1119 -0.4516
 6581SOL    HW120427   3.945   6.535   0.713  1.5973 -1.1785 -1.4350
 6581SOL    HW220428   3.812   6.535   0.641  0.2665 -0.5481  0.9192
 6582SOL     OW20429   2.003   4.178   3.795 -0.1747  0.1015  0.1699
 6582SOL    HW120430   2.010   4.168   3.700  2.6178 -0.1745  0.3393
 6582SOL    HW220431   2.053   4.105   3.831 -0.7281  0.5176  1.8627
 6583SOL     OW20432   5.911   5.533   6.092 -0.0809 -0.1122  0.2341
 6583SOL    HW120433   5.844   5.464   6.091  0.4496 -0.6388 -0.1333
 6583SOL    HW220434   5.977   5.500   6.153  0.3742 -0.1316 -0.2581
 6584SOL     OW20435   1.926   3.546   3.121  0.1919 -0.2917 -0.2182
 6584SOL    HW120436   1.850   3.569   3.067 -0.1680 -1.8773 -0.4203
 6584SOL    HW220437   1.953   3.460   3.091  0.4224 -0.9295  1.6477
 6585SOL     OW20438   5.601   2.222   2.499 -0.0102  0.1721  0.4448
 6585SOL    HW120439   5.619   2.181   2.414 -1.9662  1.8141 -0.8681
 6585SOL    HW220440   5.510   2.251   2.492  0.2801  1.7693  2.5256
 6586SOL     OW20441   4.140   5.900   0.130 -0.8526 -0.0340 -0.4950
 6586SOL    HW120442   4.147   5.995   0.131 -1.0370 -0.0004  1.4315
 6586SOL    HW220443   4.048   5.882   0.146 -0.8344 -0.5620 -0.9176
 6587SOL     OW20444   2.056   5.329   0.504  0.4121  0.0168 -0.0739
 6587SOL    HW120445   2.098   5.285   0.578  0.7186  0.3075 -0.0734
 6587SOL    HW220446   2.077   5.422   0.516  2.1081 -0.1171 -1.5620
 6588SOL     OW20447   1.028   6.475   6.703 -0.6138  0.1315  0.3994
 6588SOL    HW120448   1.027   6.571   6.704  1.1512  0.1871  0.0391
 6588SOL    HW220449   1.117   6.452   6.729  0.3823 -1.2911 -3.5757
 6589SOL     OW20450   4.488   5.514   2.267  0.4984  0.0416 -0.3081
 6589SOL    HW120451   4.445   5.460   2.201  0.2456  0.0764 -0.1703
 6589SOL    HW220452   4.447   5.600   2.259  0.8478  0.1964 -0.4769
 6590SOL     OW20453   4.762   6.411   3.355  0.6516  0.1335 -0.3160
 6590SOL    HW120454   4.823   6.470   3.399  0.2298 -0.5487  1.2288
 6590SOL    HW220455   4.818   6.355   3.300  1.5739 -1.0532  1.7246
 6591SOL     OW20456   3.690   2.793   1.263 -0.0080  0.2963  0.5042
 6591SOL    HW120457   3.618   2.769   1.321  0.3831  0.8760  1.2532
 6591SOL    HW220458   3.748   2.718   1.264 -0.5060 -0.1055  0.0349
 6592SOL     OW20459   3.819   4.216   4.287  0.4385 -0.4596 -0.0649
 6592SOL    HW120460   3.724   4.204   4.282  0.2088  1.2517 -0.6285
 6592SOL    HW220461   3.835   4.297   4.239  2.4127 -1.6085 -1.4826
 6593SOL     OW20462   3.023   4.502   1.475  0.0285  0.3699  0.1397
 6593SOL    HW120463   2.947   4.502   1.416  1.6083  1.3162 -2.0664
 6593SOL    HW220464   3.030   4.593   1.504  0.7335  0.4462 -0.2634
 6594SOL     OW20465   3.852   5.939   5.692  0.2390  0.5491  0.4249
 6594SOL    HW120466   3.921   5.982   5.743  2.5146  2.0562 -3.4668
 6594SOL    HW220467   3.811   6.010   5.643 -1.9350 -0.7598  0.2423
 6595SOL     OW20468   2.283   3.910   6.071 -0.0999 -0.1562 -0.0516
 6595SOL    HW120469   2.328   3.900   5.987  3.6625 -0.4833  1.7824
 6595SOL    HW220470   2.282   3.822   6.108  0.8649  0.3702  1.3393
 6596SOL     OW20471   1.311   5.818   2.325 -0.0944 -0.2112 -0.4634
 6596SOL    HW120472   1.227   5.778   2.347  0.3600 -1.1672 -0.4273
 6596SOL    HW220473   1.358   5.750   2.277  1.2841 -0.2928  0.9191
 6597SOL     OW20474   3.745   2.923   3.622  0.3050 -0.2558  0.6185
 6597SOL    HW120475   3.678   2.880   3.676  0.5839  0.2611  1.3968
 6597SOL    HW220476   3.822   2.867   3.632 -0.2776 -1.4413 -1.1327
 6598SOL     OW20477   0.438   2.408   0.806  0.1134  0.5385  0.0828
 6598SOL    HW120478   0.452   2.380   0.716  0.4038  3.1070 -0.7391
 6598SOL    HW220479   0.399   2.495   0.799  1.5071  1.4517  2.4112
 6599SOL     OW20480   3.969   0.312   2.599  0.1771  0.2176  0.1819
 6599SOL    HW120481   3.976   0.328   2.693  1.3489  0.2073  0.1087
 6599SOL    HW220482   3.970   0.217   2.591  0.4043  0.2242  0.1358
 6600SOL     OW20483   3.493   6.104   2.783  0.6771 -0.4540  0.5844
 6600SOL    HW120484   3.475   6.197   2.781 -3.1220 -1.0467  0.7086
 6600SOL    HW220485   3.496   6.082   2.877 -1.0457 -0.7841  0.5994
 6601SOL     OW20486   4.139   0.570   4.596 -0.1924 -0.0672  0.2849
 6601SOL    HW120487   4.044   0.581   4.593 -0.2535 -0.7020 -0.2886
 6601SOL    HW220488   4.165   0.564   4.504  0.5527  1.2745  0.3785
 6602SOL     OW20489   3.209   2.116   0.222 -0.2919  0.3138 -0.0121
 6602SOL    HW120490   3.199   2.209   0.198 -1.8002  0.1824  0.0312
 6602SOL    HW220491   3.120   2.087   0.241 -0.1487 -1.6856 -2.0441
 6603SOL     OW20492   5.036   1.326   1.536 -0.5824 -0.1021 -0.4557
 6603SOL    HW120493   4.981   1.341   1.460  0.7575  0.7355 -1.2971
 6603SOL    HW220494   4.989   1.368   1.608 -0.8989  0.8775 -1.2132
 6604SOL     OW20495   5.710   5.369   2.811 -0.0378  0.4915  0.8710
 6604SOL    HW120496   5.767   5.333   2.879 -1.0808 -1.1240  0.9465
 6604SOL    HW220497   5.641   5.303   2.800 -1.0171  1.6531 -0.3252
 6605SOL     OW20498   1.913   3.532   6.452 -0.1892  0.0083  0.0303
 6605SOL    HW120499   1.862   3.613   6.444  0.7472  0.6537  0.4062
 6605SOL    HW220500   1.958   3.540   6.536  1.7632  0.1981 -0.9619
 6606SOL     OW20501   2.637   4.971   6.073 -0.2709 -0.3070 -0.1980
 6606SOL    HW120502   2.695   5.044   6.051 -2.0097  0.6799 -1.7725
 6606SOL    HW220503   2.571   5.010   6.130  0.2825 -1.3077  1.1784
 6607SOL     OW20504   4.858   1.336   0.062 -0.5962  0.4238 -0.1673
 6607SOL    HW120505   4.823   1.376   0.142 -3.4931 -1.5438 -0.2604
 6607SOL    HW220506   4.813   1.382  -0.009  1.1656  1.4417 -0.6898
 6608SOL     OW20507   4.973   0.556   1.258 -0.2515 -0.0553 -0.5836
 6608SOL    HW120508   4.932   0.487   1.310  0.7928  1.0216  1.8212
 6608SOL    HW220509   4.900   0.609   1.226 -1.0904 -2.3036 -2.6911
 6609SOL     OW20510   5.331   4.229   1.107 -0.3599 -0.5923  0.2647
 6609SOL    HW120511   5.260   4.245   1.169 -1.0497  1.5629 -0.9803
 6609SOL    HW220512   5.409   4.221   1.162 -1.2129 -0.6072  1.5145
 6610SOL     OW20513   3.498   4.399   1.391  0.5918  0.2929  0.3007
 6610SOL    HW120514   3.437   4.341   1.346 -0.0423  0.7265  0.5908
 6610SOL    HW220515   3.583   4.356   1.382  0.2827 -0.2097 -0.2910
 6611SOL     OW20516   5.973   1.280   1.293  0.2925  0.0320 -0.8036
 6611SOL    HW120517   5.877   1.279   1.285  0.1265 -0.0904  0.8259
 6611SOL    HW220518   6.000   1.191   1.268 -0.1102 -0.2051 -0.4137
 6612SOL     OW20519   3.410   5.127   5.096  0.3379 -0.6422 -0.1734
 6612SOL    HW120520   3.408   5.210   5.144 -1.0838  0.4381 -1.9301
 6612SOL    HW220521   3.372   5.063   5.156 -2.5367  0.9044 -0.1490
 6613SOL     OW20522   4.809   5.786   0.384  0.7674 -0.1317 -0.0805
 6613SOL    HW120523   4.831   5.694   0.372  0.7630  0.0454 -1.6003
 6613SOL    HW220524   4.787   5.793   0.477  0.5084 -1.7098  0.0095
 6614SOL     OW20525   2.497   1.417   4.509  0.1468  0.2934 -0.6951
 6614SOL    HW120526   2.409   1.408   4.545  0.6585  3.4129  1.7912
 6614SOL    HW220527   2.523   1.507   4.530  5.1110 -1.2890  1.6085
 6615SOL     OW20528   2.020   5.430   0.869  0.2044  0.2285  0.5784
 6615SOL    HW120529   2.086   5.474   0.814  1.6687 -1.7420  0.6803
 6615SOL    HW220530   1.968   5.378   0.807  0.5773 -0.4383  0.8220
 6616SOL     OW20531   3.606   1.405   1.191  0.2384  0.6664 -0.2336
 6616SOL    HW120532   3.696   1.394   1.161  0.4249 -0.4131  0.6673
 6616SOL    HW220533   3.599   1.349   1.268 -0.4830  2.6861  1.2464
 6617SOL     OW20534   2.209   2.133   4.483  0.0486 -0.6651 -0.9694
 6617SOL    HW120535   2.201   2.117   4.389 -0.3493  0.6194 -1.1690
 6617SOL    HW220536   2.187   2.226   4.494 -0.7609 -1.0026  0.5056
 6618SOL     OW20537   1.321   0.407   6.068  0.5844 -0.3294 -0.1619
 6618SOL    HW120538   1.391   0.343   6.059  0.6889 -0.2835  0.2713
 6618SOL    HW220539   1.242   0.354   6.081  0.4301 -0.3927 -1.2748
 6619SOL     OW20540   2.136   2.828   5.880 -0.5910 -0.1808 -0.4610
 6619SOL    HW120541   2.198   2.885   5.835  0.3301  0.0309  1.0033
 6619SOL    HW220542   2.181   2.744   5.888 -0.6654 -0.1669  0.1907
 6620SOL     OW20543   4.433   4.091   5.361  0.1224  0.2678  0.5676
 6620SOL    HW120544   4.383   4.122   5.436 -0.0299  0.7447  0.2708
 6620SOL    HW220545   4.380   4.114   5.285  0.0784 -0.5749  0.3254
 6621SOL     OW20546   5.256   2.612   5.827  0.3886  0.0204 -0.2330
 6621SOL    HW120547   5.216   2.673   5.889 -1.5273 -0.8341 -0.5757
 6621SOL    HW220548   5.342   2.651   5.808  0.1669  1.3859  1.3090
 6622SOL     OW20549   5.927   2.777   3.230  1.0680 -0.3222  0.4726
 6622SOL    HW120550   5.916   2.746   3.320 -0.4807 -1.4472 -0.0515
 6622SOL    HW220551   5.965   2.702   3.184 -0.1008 -0.5121 -0.2256
 6623SOL     OW20552   5.743   5.820   0.829  0.3269 -0.3322  0.1284
 6623SOL    HW120553   5.699   5.889   0.879  0.4584 -1.3655  1.7279
 6623SOL    HW220554   5.683   5.747   0.831 -0.1580 -0.0763 -2.2337
 6624SOL     OW20555   2.493   0.090   1.403  0.1371  0.4736 -0.3573
 6624SOL    HW120556   2.421   0.028   1.391  1.1630 -1.4976  2.5787
 6624SOL    HW220557   2.564   0.054   1.350  0.5941 -0.7105  1.0038
 6625SOL     OW20558   6.172   4.827   1.367 -0.0888 -0.0866 -0.3166
 6625SOL    HW120559   6.238   4.816   1.435  0.6870  0.3844 -0.9643
 6625SOL    HW220560   6.111   4.754   1.379 -0.6305  0.6318  1.5903
 6626SOL     OW20561   0.434   5.920   4.099  0.0373  0.1188  0.2961
 6626SOL    HW120562   0.481   5.944   4.020 -1.0728  0.5188 -0.2635
 6626SOL    HW220563   0.461   5.985   4.164 -1.1984  1.5725 -0.5678
 6627SOL     OW20564   4.000   4.737   4.139  0.3280 -0.3459 -0.1414
 6627SOL    HW120565   4.035   4.725   4.227 -0.6980  0.7772  0.4567
 6627SOL    HW220566   3.906   4.751   4.153  0.1319 -0.2889 -1.4312
 6628SOL     OW20567   1.791   0.621   0.364 -0.8612 -0.0039 -0.6680
 6628SOL    HW120568   1.842   0.692   0.326  0.9190 -0.9363 -0.1626
 6628SOL    HW220569   1.700   0.646   0.350 -0.2854  1.2607 -2.5417
 6629SOL     OW20570   4.458   5.699   3.011 -0.3362 -0.7096 -0.0337
 6629SOL    HW120571   4.371   5.694   3.050 -1.3947 -3.4727 -2.4030
 6629SOL    HW220572   4.446   5.755   2.934 -0.2196 -1.7401 -0.8062
 6630SOL     OW20573   6.046   5.826   0.098  0.5491  0.2890 -0.8118
 6630SOL    HW120574   6.017   5.903   0.050 -0.8615 -0.2470 -0.8697
 6630SOL    HW220575   5.980   5.813   0.167  0.5437 -1.0467 -1.0277
 6631SOL     OW20576   0.469   4.569   3.039 -0.3069  0.4873 -0.2877
 6631SOL    HW120577   0.407   4.634   3.008  0.8149  0.9690 -1.6444
 6631SOL    HW220578   0.449   4.490   2.990  1.0056  1.0463 -1.8155
 6632SOL     OW20579   5.076   1.377   1.100  0.0629 -1.0320 -0.0861
 6632SOL    HW120580   5.007   1.396   1.037  1.1805 -1.5961 -1.5279
 6632SOL    HW220581   5.110   1.292   1.073  1.3656 -0.7346  0.5581
 6633SOL     OW20582   3.285   6.025   0.351  0.0833  0.1154 -0.0765
 6633SOL    HW120583   3.246   5.988   0.272 -0.3417  1.1321 -0.3625
 6633SOL    HW220584   3.212   6.064   0.399  0.2408 -0.9921  1.1361
 6634SOL     OW20585   6.000   0.960   0.420  0.1343  0.1176 -0.1295
 6634SOL    HW120586   6.056   1.032   0.447 -2.0948  1.7981  0.2615
 6634SOL    HW220587   5.956   0.932   0.500 -0.2361 -0.5840 -0.5665
 6635SOL     OW20588   1.503   3.228   0.184 -0.3096 -0.2320 -0.1961
 6635SOL    HW120589   1.553   3.260   0.259  0.8762  0.0140 -1.0631
 6635SOL    HW220590   1.535   3.139   0.170 -0.7608 -0.3932 -0.2245
 6636SOL     OW20591   1.305   3.974   1.789  0.2747 -0.5395  0.2975
 6636SOL    HW120592   1.392   3.971   1.749  0.7160 -1.7614  1.2359
 6636SOL    HW220593   1.286   3.882   1.811 -1.0300 -0.2273  0.5736
 6637SOL     OW20594   4.383   2.278   4.322 -0.3959 -0.1623  0.6967
 6637SOL    HW120595   4.343   2.220   4.386 -0.0909 -1.1220  0.0477
 6637SOL    HW220596   4.477   2.262   4.331 -0.3908 -1.1599 -0.7201
 6638SOL     OW20597   0.407   5.629   2.046 -0.3582  0.5139  0.9049
 6638SOL    HW120598   0.384   5.717   2.077 -0.3217  0.4276  1.1838
 6638SOL    HW220599   0.434   5.583   2.125  2.0276  0.9852  0.4449
 6639SOL     OW20600   0.510   4.670   5.728  0.6323 -0.1555 -0.0760
 6639SOL    HW120601   0.532   4.686   5.636  1.7696 -0.1922  0.1784
 6639SOL    HW220602   0.422   4.633   5.725 -0.0946  1.4987 -1.0292
 6640SOL     OW20603   0.058   3.928   0.648  0.0435  0.1129  0.5832
 6640SOL    HW120604   0.054   3.980   0.728  0.3095 -0.2293  0.8194
 6640SOL    HW220605   0.003   3.976   0.586  1.3807  1.4429  0.3708
 6641SOL     OW20606   2.775   4.294   1.607 -0.1984  0.4684  0.2230
 6641SOL    HW120607   2.756   4.327   1.519 -0.6121  0.0683  0.1616
 6641SOL    HW220608   2.714   4.340   1.664  0.3599  1.0489  0.3650
 6642SOL     OW20609   4.346   4.923   3.293 -0.2028  0.1010 -0.0689
 6642SOL    HW120610   4.266   4.954   3.251 -0.0993  0.9980  0.3545
 6642SOL    HW220611   4.344   4.964   3.380 -0.4044 -1.6759  0.8168
 6643SOL     OW20612   0.121   0.058   1.503 -0.2775  0.0314 -0.3239
 6643SOL    HW120613   0.201   0.101   1.530 -0.5374  1.1034 -1.1965
 6643SOL    HW220614   0.141   0.020   1.418 -0.5585 -0.0878 -0.3402
 6644SOL     OW20615   2.257   5.823   0.853 -0.2309 -0.3352  0.5432
 6644SOL    HW120616   2.165   5.842   0.832  0.2885 -0.0258 -1.7851
 6644SOL    HW220617   2.286   5.900   0.901 -0.5148  0.8721 -1.1058
 6645SOL     OW20618   3.368   2.108   3.255 -0.6114 -0.0279 -0.1739
 6645SOL    HW120619   3.291   2.164   3.256 -1.1376 -0.7366  0.3817
 6645SOL    HW220620   3.442   2.169   3.256 -1.1033  0.7045 -2.5591
 6646SOL     OW20621   4.269   6.064   6.795 -0.3749  0.4413  0.0152
 6646SOL    HW120622   4.268   5.970   6.775 -0.8108  0.8413 -2.0850
 6646SOL    HW220623   4.194   6.076   6.853 -1.5115 -0.2529 -1.2456
 6647SOL     OW20624   4.709   3.563   1.624 -0.1846  0.1005 -0.2233
 6647SOL    HW120625   4.712   3.597   1.713 -0.6384  2.2838 -0.9964
 6647SOL    HW220626   4.640   3.613   1.581 -0.2383 -1.1748 -1.7198
 6648SOL     OW20627   2.918   2.343   0.258 -0.2689  0.2648  0.6379
 6648SOL    HW120628   2.930   2.382   0.344  0.5850  0.2084  0.5561
 6648SOL    HW220629   2.850   2.277   0.270 -0.7361  0.8206  1.0792
 6649SOL     OW20630   4.755   2.132   2.862 -0.1269 -0.1341 -0.6105
 6649SOL    HW120631   4.824   2.167   2.918  0.6264  1.5977 -2.5170
 6649SOL    HW220632   4.800   2.079   2.797 -0.8298 -0.7645 -0.6073
 6650SOL     OW20633   1.546   3.374   0.891  0.1325  0.2418  0.8797
 6650SOL    HW120634   1.614   3.319   0.931 -0.5847 -1.2377  0.1371
 6650SOL    HW220635   1.488   3.397   0.963  1.0644  1.0185  1.4091
 6651SOL     OW20636   3.468   3.709   2.298 -0.2220 -0.1522  0.6219
 6651SOL    HW120637   3.456   3.674   2.209  0.2458  2.7145 -0.6760
 6651SOL    HW220638   3.521   3.643   2.343 -1.2800 -2.1340 -0.8672
 6652SOL     OW20639   5.923   0.467   5.909 -0.5728 -0.1175  0.1066
 6652SOL    HW120640   5.990   0.535   5.904  0.6152 -1.2945 -1.2495
 6652SOL    HW220641   5.860   0.490   5.841  1.4259 -1.8618 -2.5440
 6653SOL     OW20642   3.285   2.776   2.933 -0.1225 -0.2582 -0.4458
 6653SOL    HW120643   3.265   2.685   2.954 -0.2201  0.0920  1.1463
 6653SOL    HW220644   3.349   2.771   2.862 -1.4465 -1.5078 -1.6128
 6654SOL     OW20645   1.528   4.699   1.152 -0.0050  0.0065  0.2428
 6654SOL    HW120646   1.439   4.664   1.143 -0.5900  1.2378  1.0001
 6654SOL    HW220647   1.562   4.700   1.062 -0.6213 -0.7994 -0.0111
 6655SOL     OW20648   0.392   6.262   1.499  0.0261 -0.5928 -0.5386
 6655SOL    HW120649   0.469   6.205   1.491  2.1678  2.1458 -1.0446
 6655SOL    HW220650   0.365   6.279   1.409  0.0151 -0.0800 -0.4419
 6656SOL     OW20651   6.620   5.346   2.177  0.0000  0.0319 -0.3261
 6656SOL    HW120652   6.566   5.424   2.188 -0.4825  0.2761 -3.5897
 6656SOL    HW220653   6.672   5.363   2.099  1.3840 -2.1201  0.0444
 6657SOL     OW20654   1.206   1.637   2.368 -0.4655 -0.0741  0.6396
 6657SOL    HW120655   1.139   1.684   2.418  1.5871  3.3976  0.4293
 6657SOL    HW220656   1.286   1.646   2.420  0.9023  0.3329 -1.4298
 6658SOL     OW20657   5.471   6.067   1.711  0.1397  0.1430 -0.3136
 6658SOL    HW120658   5.389   6.026   1.682 -0.0274 -0.5214  1.0251
 6658SOL    HW220659   5.443   6.129   1.778  0.7745 -0.3860  0.4450
 6659SOL     OW20660   4.027   6.192   4.572  0.1392 -0.2282  0.1369
 6659SOL    HW120661   3.963   6.263   4.574  0.5596  0.2309 -1.4318
 6659SOL    HW220662   4.104   6.228   4.616 -0.0330 -0.1111  0.3425
 6660SOL     OW20663   3.283   0.363   5.174  0.6584  0.3607  0.7390
 6660SOL    HW120664   3.270   0.411   5.256  1.0897 -1.5641  2.0074
 6660SOL    HW220665   3.344   0.293   5.197 -1.6536 -2.2054 -0.3947
 6661SOL     OW20666   6.778   5.572   0.363  0.1807 -0.2192 -0.1265
 6661SOL    HW120667   6.719   5.624   0.309 -0.3417 -0.0464  0.5994
 6661SOL    HW220668   6.777   5.485   0.324 -0.4865 -0.1946 -0.1629
 6662SOL     OW20669   5.398   5.161   1.477 -0.1006  0.7777 -0.2331
 6662SOL    HW120670   5.489   5.136   1.494  0.4261  3.0305  0.6187
 6662SOL    HW220671   5.351   5.078   1.471  1.9136 -0.4302 -0.1985
 6663SOL     OW20672   3.702   3.940   1.137  0.3034  0.0507  0.1735
 6663SOL    HW120673   3.729   3.922   1.227 -1.8857  1.5724  1.2108
 6663SOL    HW220674   3.760   4.011   1.108  1.8939 -1.3120 -0.1701
 6664SOL     OW20675   2.969   4.455   5.540  0.3814 -0.6621 -0.3164
 6664SOL    HW120676   2.928   4.420   5.619  2.7549  0.7414  1.6991
 6664SOL    HW220677   2.914   4.528   5.514  0.0174 -0.6239  0.5464
 6665SOL     OW20678   5.446   2.874   3.924 -0.1035 -0.0330  0.1716
 6665SOL    HW120679   5.411   2.855   3.836 -0.2786  1.8367 -0.1992
 6665SOL    HW220680   5.369   2.893   3.977  0.1016  0.3225  0.3460
 6666SOL     OW20681   2.474   0.883   6.796  0.2366  0.0906  0.4565
 6666SOL    HW120682   2.545   0.879   6.732 -0.1080  0.1644  0.0695
 6666SOL    HW220683   2.440   0.972   6.789 -0.6820 -0.2913 -0.2248
 6667SOL     OW20684   4.342   3.033   0.154  0.4618  1.0259  0.7388
 6667SOL    HW120685   4.374   3.108   0.204 -1.1010  1.7437  0.7220
 6667SOL    HW220686   4.290   3.072   0.083  0.0122 -0.0570  0.4464
 6668SOL     OW20687   3.384   0.529   1.433 -0.1507  0.0646  0.1468
 6668SOL    HW120688   3.324   0.593   1.396 -0.9890 -0.5440  0.4122
 6668SOL    HW220689   3.424   0.487   1.356 -0.7177 -0.1227 -0.0520
 6669SOL     OW20690   3.572   5.379   1.924 -0.3667 -0.2388  0.3729
 6669SOL    HW120691   3.500   5.317   1.935 -0.2363 -0.5912 -0.6683
 6669SOL    HW220692   3.645   5.341   1.973  0.3968 -2.0751 -2.0024
 6670SOL     OW20693   0.999   4.373   3.765 -0.8171 -0.2856 -0.2239
 6670SOL    HW120694   1.042   4.299   3.807 -2.6126 -0.5770  1.2242
 6670SOL    HW220695   0.905   4.358   3.780 -1.4495  0.5777 -2.7796
 6671SOL     OW20696   0.506   2.175   3.032 -0.4554 -0.7231 -0.0961
 6671SOL    HW120697   0.482   2.256   3.076 -1.3216 -1.0484  0.0596
 6671SOL    HW220698   0.441   2.111   3.062  0.5557 -1.6260  0.2468
 6672SOL     OW20699   5.296   1.718   1.894  0.0796  0.2822 -0.1865
 6672SOL    HW120700   5.252   1.650   1.843 -0.6728 -0.5244  1.4839
 6672SOL    HW220701   5.356   1.670   1.951  0.2173  1.0852  0.3605
 6673SOL     OW20702   5.228   3.202   2.697  0.0802 -0.4100  0.0832
 6673SOL    HW120703   5.254   3.156   2.617  3.2319  2.3472 -0.6962
 6673SOL    HW220704   5.145   3.243   2.675  0.3725 -0.5552 -1.4112
 6674SOL     OW20705   0.345   0.475   0.724  0.8515  0.3545 -0.2071
 6674SOL    HW120706   0.377   0.462   0.814  0.9751  0.0335 -0.2962
 6674SOL    HW220707   0.273   0.537   0.734  1.3598  0.9137  0.0217
 6675SOL     OW20708   5.900   3.855   6.368 -0.3489  0.3023  0.3524
 6675SOL    HW120709   5.976   3.824   6.417 -0.5756  1.3684  1.4407
 6675SOL    HW220710   5.923   3.945   6.343 -0.7441  0.1969 -0.3990
 6676SOL     OW20711   2.912   2.620   5.204 -0.1785  0.2351  0.3018
 6676SOL    HW120712   2.854   2.641   5.277 -0.4324  1.5537 -0.2443
 6676SOL    HW220713   2.854   2.584   5.136 -0.2927  1.1007 -0.0659
 6677SOL     OW20714   2.205   4.358   0.111 -0.3219 -0.0791  0.2868
 6677SOL    HW120715   2.120   4.378   0.149 -1.2914 -0.7779 -1.4273
 6677SOL    HW220716   2.210   4.263   0.110 -1.1028 -0.1724 -2.8220
 6678SOL     OW20717   0.630   2.779   1.426 -0.5911 -0.1712 -0.0549
 6678SOL    HW120718   0.694   2.824   1.482 -0.3870 -1.8086  1.1137
 6678SOL    HW220719   0.680   2.707   1.387 -1.7184 -1.5262  0.9451
 6679SOL     OW20720   4.834   5.199   0.439 -0.7140  0.0846  0.2531
 6679SOL    HW120721   4.741   5.183   0.454 -0.6486 -0.3294  0.2367
 6679SOL    HW220722   4.847   5.291   0.461 -0.8968 -0.1409  1.3662
 6680SOL     OW20723   1.926   3.300   0.756  0.4688 -0.0031 -0.2674
 6680SOL    HW120724   1.900   3.288   0.665  1.8174  2.2992 -1.0288
 6680SOL    HW220725   1.855   3.261   0.807 -1.3371  0.5273 -2.2659
 6681SOL     OW20726   6.473   1.960   1.392  0.4448  0.1368 -0.2378
 6681SOL    HW120727   6.396   1.919   1.351 -0.0671 -1.0712  1.7905
 6681SOL    HW220728   6.541   1.954   1.325 -0.9251  0.2868 -1.7092
 6682SOL     OW20729   3.869   1.453   3.577 -0.0873 -0.0497 -0.1237
 6682SOL    HW120730   3.866   1.539   3.535 -1.1719 -0.4514 -0.9073
 6682SOL    HW220731   3.962   1.429   3.575  0.1692  0.9173 -0.2728
 6683SOL     OW20732   5.384   4.652   2.592 -0.1583 -0.1692  0.2084
 6683SOL    HW120733   5.453   4.593   2.622  1.1583  0.4315 -1.4697
 6683SOL    HW220734   5.379   4.719   2.661 -0.4233 -1.2208  1.2519
 6684SOL     OW20735   0.618   0.185   0.145 -0.2437 -0.0859  0.2808
 6684SOL    HW120736   0.667   0.114   0.103  1.4000  0.3585  1.3504
 6684SOL    HW220737   0.682   0.228   0.202 -1.7889  0.8243  1.4052
 6685SOL     OW20738   2.553   1.989   6.524  0.2709 -0.3108 -0.9164
 6685SOL    HW120739   2.474   2.043   6.513  0.1688 -0.1872  0.2984
 6685SOL    HW220740   2.624   2.044   6.493  0.0444  0.1346 -0.6624
 6686SOL     OW20741   3.355   5.446   6.289 -0.2491 -0.2670 -0.0460
 6686SOL    HW120742   3.262   5.453   6.310 -0.1290 -0.2078  0.4914
 6686SOL    HW220743   3.366   5.355   6.261 -0.2206 -0.6857  1.2432
 6687SOL     OW20744   0.073   2.251   6.206 -0.0679 -0.2711  0.6993
 6687SOL    HW120745   0.109   2.199   6.135 -0.2112 -1.3370  1.3829
 6687SOL    HW220746   0.006   2.305   6.165  0.5382 -0.1417 -0.1355
 6688SOL     OW20747   4.462   1.186   2.221  0.2185 -1.1122  0.6527
 6688SOL    HW120748   4.371   1.156   2.226  0.1702 -0.8127  1.8946
 6688SOL    HW220749   4.457   1.281   2.225  0.4905 -0.9682 -1.3612
 6689SOL     OW20750   1.768   5.021   1.737  1.0150  0.8161 -0.6679
 6689SOL    HW120751   1.733   4.970   1.810  2.9120  0.1366 -0.1798
 6689SOL    HW220752   1.694   5.073   1.706 -0.4789 -0.7865  0.0711
 6690SOL     OW20753   4.105   6.083   3.265 -0.3755  0.3117 -0.2954
 6690SOL    HW120754   4.087   6.058   3.356  0.1681 -1.1189 -0.5622
 6690SOL    HW220755   4.147   6.169   3.272 -0.3632  0.2300  0.8009
 6691SOL     OW20756   6.189   0.791   0.081 -0.3968 -0.1051 -0.1396
 6691SOL    HW120757   6.122   0.750   0.135 -0.1398  2.4909  2.3977
 6691SOL    HW220758   6.160   0.882   0.073  1.9218  0.6737 -0.4732
 6692SOL     OW20759   3.040   5.460   1.982  0.3022  0.5828 -0.0054
 6692SOL    HW120760   3.119   5.508   1.958  1.3360 -1.1914 -0.2647
 6692SOL    HW220761   3.071   5.378   2.018 -1.4227  0.0657  0.4024
 6693SOL     OW20762   5.807   4.413   0.644 -0.3550 -0.5025  0.7006
 6693SOL    HW120763   5.780   4.383   0.731 -2.0209 -1.9378 -0.2369
 6693SOL    HW220764   5.833   4.333   0.598  0.0807  0.1792 -0.2661
 6694SOL     OW20765   4.871   5.890   1.413  0.0137  0.3621  0.2382
 6694SOL    HW120766   4.932   5.850   1.475  0.3004 -0.9111 -0.8205
 6694SOL    HW220767   4.918   5.892   1.330 -1.6736 -1.6259 -0.8594
 6695SOL     OW20768   3.136   0.343   4.918 -0.3049  0.0216  0.1951
 6695SOL    HW120769   3.197   0.364   4.989  0.7898  1.5306 -1.1161
 6695SOL    HW220770   3.053   0.383   4.944  0.0073  0.3168  0.7371
 6696SOL     OW20771   2.901   1.645   1.912 -0.1096  0.1432  0.7697
 6696SOL    HW120772   2.931   1.726   1.953  1.5350 -0.0190 -0.0475
 6696SOL    HW220773   2.972   1.620   1.853 -1.5416 -0.6822 -0.6871
 6697SOL     OW20774   0.002   5.531   2.617  0.1442 -0.3494  0.0995
 6697SOL    HW120775   0.027   5.591   2.547  2.5270 -0.4179  0.8197
 6697SOL    HW220776  -0.047   5.462   2.573 -0.6655  0.9249 -1.0803
 6698SOL     OW20777   0.813   0.069   0.016 -0.0907 -0.1397  0.6543
 6698SOL    HW120778   0.870   0.139  -0.017 -0.6171  0.3987  0.8711
 6698SOL    HW220779   0.786   0.021  -0.063  0.3080 -0.1264  0.5071
 6699SOL     OW20780   2.628   6.105   1.400  0.1881  1.1334 -0.0310
 6699SOL    HW120781   2.671   6.190   1.397  0.3932  1.0033 -2.4451
 6699SOL    HW220782   2.543   6.119   1.358  0.0413  0.2631 -0.0426
 6700SOL     OW20783   5.096   1.053   2.574  0.4490  0.1702 -0.2488
 6700SOL    HW120784   5.013   1.101   2.572 -0.5338 -1.3904 -3.6393
 6700SOL    HW220785   5.162   1.116   2.545 -0.2653  0.3857 -1.4415
 6701SOL     OW20786   5.580   6.199   6.176 -0.2489  0.5235 -0.2846
 6701SOL    HW120787   5.598   6.116   6.132 -0.9149  0.8900 -1.2745
 6701SOL    HW220788   5.605   6.266   6.113 -0.4779  1.0693  0.1916
 6702SOL     OW20789   6.375   2.547   2.593  0.1173  0.1568 -0.0011
 6702SOL    HW120790   6.465   2.517   2.606  0.8231  1.7354 -0.9425
 6702SOL    HW220791   6.328   2.469   2.562  1.6326 -0.2732 -1.3462
 6703SOL     OW20792   3.135   4.771   3.605 -0.0689 -0.2643 -0.1229
 6703SOL    HW120793   3.073   4.698   3.613 -0.6371  0.1869 -0.3136
 6703SOL    HW220794   3.189   4.766   3.683 -0.5633 -0.4784  0.2114
 6704SOL     OW20795   3.068   2.833   1.338 -0.2950 -0.8058  0.2554
 6704SOL    HW120796   2.994   2.781   1.369 -1.3147  1.5674  2.0754
 6704SOL    HW220797   3.112   2.863   1.417  1.3887 -0.4029 -0.7723
 6705SOL     OW20798   1.264   6.097   2.400  0.0157  0.6483 -0.3042
 6705SOL    HW120799   1.276   6.009   2.366  0.5415  1.2389 -1.7115
 6705SOL    HW220800   1.184   6.128   2.358 -1.6953 -0.0443  2.1885
 6706SOL     OW20801   5.149   4.942   0.259  0.2440  0.2463  0.1043
 6706SOL    HW120802   5.092   4.868   0.283 -0.0909  0.1701 -0.8617
 6706SOL    HW220803   5.229   4.901   0.228  0.7326  0.3471  1.1946
 6707SOL     OW20804   4.269   6.147   2.177 -0.3063 -0.3020 -0.2517
 6707SOL    HW120805   4.281   6.076   2.239 -0.6178 -1.7327 -1.7618
 6707SOL    HW220806   4.180   6.178   2.192  0.1778  0.5061  1.1104
 6708SOL     OW20807   2.818   6.241   4.318  0.2147  0.0922 -0.0847
 6708SOL    HW120808   2.807   6.275   4.406  2.0334  0.4881  0.0388
 6708SOL    HW220809   2.795   6.148   4.325  0.5818  0.0583  0.8801
 6709SOL     OW20810   0.723   6.646   4.759  0.1743 -0.6354  0.4593
 6709SOL    HW120811   0.784   6.712   4.792 -1.4209  0.7526  0.7502
 6709SOL    HW220812   0.752   6.629   4.670  0.0928  1.1537  0.0507
 6710SOL     OW20813   5.350   1.503   5.338 -0.0359 -0.6013 -0.2522
 6710SOL    HW120814   5.271   1.532   5.383 -0.7027 -2.9812  0.2635
 6710SOL    HW220815   5.341   1.408   5.332  2.6143 -0.9266 -0.5365
 6711SOL     OW20816   1.595   2.354   3.110  0.2286 -0.5115 -0.1027
 6711SOL    HW120817   1.546   2.419   3.162 -0.4440  0.5092 -1.9324
 6711SOL    HW220818   1.578   2.378   3.019  2.1568 -1.6622 -0.8254
 6712SOL     OW20819   5.044   2.982   0.510  0.1412 -0.1548  0.0264
 6712SOL    HW120820   4.977   2.913   0.508  0.5170 -0.6523  2.3102
 6712SOL    HW220821   4.999   3.060   0.478 -0.7414 -1.0869 -1.0847
 6713SOL     OW20822   0.918   0.769   6.662  0.1045  0.1962 -0.6016
 6713SOL    HW120823   0.850   0.738   6.723  2.1626 -0.8632  1.3139
 6713SOL    HW220824   0.904   0.717   6.583  0.1009 -1.7837  0.6140
 6714SOL     OW20825   2.141   2.390   4.775  0.0130 -0.3486 -0.1962
 6714SOL    HW120826   2.214   2.385   4.837 -1.8460  0.3647  2.2204
 6714SOL    HW220827   2.082   2.319   4.802 -1.0908  0.3168 -0.7883
 6715SOL     OW20828   6.802   0.590   0.539  0.3281 -0.2582 -0.1380
 6715SOL    HW120829   6.748   0.625   0.611 -1.9111  0.8995 -2.2379
 6715SOL    HW220830   6.760   0.507   0.516  0.9500 -0.5533 -0.2279
 6716SOL     OW20831   1.168   0.838   6.794 -0.2430 -0.3155 -0.0349
 6716SOL    HW120832   1.133   0.857   6.880  0.3271  0.9865 -0.0629
 6716SOL    HW220833   1.092   0.819   6.740 -0.9282  2.2185 -0.0430
 6717SOL     OW20834   1.125   6.294   4.198 -0.3764  0.0096 -0.4710
 6717SOL    HW120835   1.155   6.304   4.288 -1.9791 -1.1923  0.2411
 6717SOL    HW220836   1.064   6.366   4.184 -0.5354 -0.1163 -0.4220
 6718SOL     OW20837   2.051   2.650   4.852  0.5704 -0.2521 -0.1972
 6718SOL    HW120838   2.075   2.557   4.849  0.7933 -0.1758 -2.3075
 6718SOL    HW220839   2.093   2.682   4.932  2.2067 -1.5446 -0.4607
 6719SOL     OW20840   5.124   4.311   1.268 -0.4370  0.1710 -0.1987
 6719SOL    HW120841   5.064   4.385   1.260 -0.8195 -0.1382 -0.1679
 6719SOL    HW220842   5.176   4.331   1.346  1.1509  1.6331 -1.5425
 6720SOL     OW20843   3.786   4.908   0.714  0.2104  0.1077  0.2395
 6720SOL    HW120844   3.818   4.982   0.663 -0.7258  0.4807  0.1725
 6720SOL    HW220845   3.752   4.846   0.649 -1.0029  0.5923  0.3964
 6721SOL     OW20846   5.016   2.897   6.253 -0.0065 -0.1890  0.5800
 6721SOL    HW120847   4.955   2.870   6.321  0.2022 -1.1022  0.4190
 6721SOL    HW220848   5.088   2.939   6.301  0.4064 -1.3258  0.9835
 6722SOL     OW20849   1.349   1.303   4.033  0.1523 -0.2312 -0.4473
 6722SOL    HW120850   1.396   1.386   4.039  0.0287 -0.1779 -0.2096
 6722SOL    HW220851   1.409   1.239   4.070  1.2619 -0.6744 -2.8391
 6723SOL     OW20852   3.806   3.968   6.793 -0.0481 -0.5520  0.0543
 6723SOL    HW120853   3.722   3.944   6.754 -0.3229 -0.4507  0.5791
 6723SOL    HW220854   3.784   4.003   6.880  0.3513  1.4230 -0.5818
 6724SOL     OW20855   3.287   4.741   6.653 -0.0773 -0.7218 -0.1909
 6724SOL    HW120856   3.329   4.659   6.681  0.7579  0.0544  0.9524
 6724SOL    HW220857   3.197   4.716   6.633 -0.5312 -1.5787  2.4073
 6725SOL     OW20858   4.436   6.199   5.541  0.2130 -0.3192  0.1740
 6725SOL    HW120859   4.394   6.191   5.456  1.1431  0.6825 -0.4042
 6725SOL    HW220860   4.364   6.209   5.603 -0.4571 -0.6649 -0.5412
 6726SOL     OW20861   0.531   6.856   6.363  0.0244 -0.3654 -0.4962
 6726SOL    HW120862   0.460   6.861   6.428 -0.9311  0.7004 -1.5578
 6726SOL    HW220863   0.500   6.911   6.291  1.8671 -0.0282 -1.0798
 6727SOL     OW20864   6.762   0.749   2.335 -1.0642 -0.1166 -0.4719
 6727SOL    HW120865   6.716   0.766   2.417 -2.4262 -1.2476 -0.9411
 6727SOL    HW220866   6.715   0.674   2.298  0.2958 -0.3915 -1.6951
 6728SOL     OW20867   3.832   5.562   1.699  0.0215 -0.5324 -0.2419
 6728SOL    HW120868   3.818   5.468   1.709  0.9473 -0.6204  0.3951
 6728SOL    HW220869   3.854   5.573   1.607  0.1052 -0.9707 -0.2786
 6729SOL     OW20870   2.717   4.711   2.424 -0.0806  0.2802 -0.0443
 6729SOL    HW120871   2.656   4.711   2.351 -0.5623 -3.5425  0.1850
 6729SOL    HW220872   2.801   4.685   2.385  0.3105  0.8246  0.4063
 6730SOL     OW20873   5.966   5.742   1.810 -0.0397 -0.3336 -0.2113
 6730SOL    HW120874   5.887   5.771   1.764  0.8949 -0.7433 -2.1735
 6730SOL    HW220875   6.035   5.801   1.779  0.4557  0.0163  1.4738
 6731SOL     OW20876   3.080   2.224   4.137 -0.4223  0.3311  0.3575
 6731SOL    HW120877   3.173   2.243   4.149  0.2257 -0.3266 -2.6700
 6731SOL    HW220878   3.048   2.295   4.081 -0.8442 -1.1751 -1.4156
 6732SOL     OW20879   3.764   6.134   6.572  0.0509  0.1677 -0.2025
 6732SOL    HW120880   3.698   6.147   6.505 -0.7008 -1.0135  0.2742
 6732SOL    HW220881   3.833   6.083   6.528 -0.3076 -0.3579 -0.1606
 6733SOL     OW20882   5.603   1.565   4.015 -0.6323 -0.6461 -0.2140
 6733SOL    HW120883   5.559   1.619   4.081  2.8835 -2.2358  3.8770
 6733SOL    HW220884   5.634   1.628   3.950 -2.2347  1.3716  0.8678
 6734SOL     OW20885   3.595   0.971   6.070  0.0655  0.9649  0.5786
 6734SOL    HW120886   3.519   0.950   6.124 -0.7561  2.5290  0.0866
 6734SOL    HW220887   3.559   1.015   5.993  1.3181 -0.1252 -0.6913
 6735SOL     OW20888   0.014   1.146   2.455  0.0959 -0.1704  0.2268
 6735SOL    HW120889   0.077   1.083   2.491 -0.1694 -0.9557 -0.6248
 6735SOL    HW220890   0.067   1.203   2.399  0.3319  0.3551  0.9714
 6736SOL     OW20891   1.290   6.288   4.423 -0.1161  0.3098 -0.1258
 6736SOL    HW120892   1.338   6.213   4.387 -1.7994 -0.3769 -1.0405
 6736SOL    HW220893   1.344   6.317   4.497  0.9885 -1.2909 -0.2391
 6737SOL     OW20894   2.337   0.460   4.141  0.2098  0.0967  0.1985
 6737SOL    HW120895   2.377   0.426   4.222  1.5748  1.9676  0.3838
 6737SOL    HW220896   2.378   0.410   4.071  2.1545  1.1816  0.4679
 6738SOL     OW20897   4.675   3.668   0.672 -0.1610 -0.5523  0.5086
 6738SOL    HW120898   4.593   3.660   0.623 -1.0713 -0.4048  1.9633
 6738SOL    HW220899   4.743   3.650   0.607 -1.2900  0.0914 -0.9179
 6739SOL     OW20900   3.808   1.411   2.483  0.2498  0.1209 -0.3705
 6739SOL    HW120901   3.737   1.433   2.543  0.4215 -0.3695  0.0133
 6739SOL    HW220902   3.867   1.486   2.488  0.1090  0.2185 -0.1612
 6740SOL     OW20903   2.629   1.435   0.906  0.2803  0.1351 -0.8174
 6740SOL    HW120904   2.659   1.457   0.818 -0.2315  0.7903 -0.8364
 6740SOL    HW220905   2.696   1.469   0.964 -0.0730  0.9648 -0.8908
 6741SOL     OW20906   2.536   2.743   5.624  0.7115  0.0759  0.3854
 6741SOL    HW120907   2.548   2.653   5.653 -0.3680 -0.0869  0.3763
 6741SOL    HW220908   2.574   2.797   5.693  0.9349 -0.3746  0.6138
 6742SOL     OW20909   3.334   5.491   3.865 -0.2272  0.5929  0.0620
 6742SOL    HW120910   3.287   5.571   3.890 -1.4765 -0.1586  0.1898
 6742SOL    HW220911   3.335   5.493   3.769  0.2303  1.0152  0.0679
 6743SOL     OW20912   6.661   4.715   6.038  0.5342  0.4738 -0.1484
 6743SOL    HW120913   6.617   4.797   6.019 -0.0065 -0.1649 -1.8256
 6743SOL    HW220914   6.651   4.663   5.958  0.8273 -1.2392  0.8789
 6744SOL     OW20915   4.388   1.538   6.811 -0.0041  0.0263  0.3747
 6744SOL    HW120916   4.383   1.483   6.732  1.1558  0.2764  0.1018
 6744SOL    HW220917   4.419   1.622   6.778  1.3238 -0.1144  1.1903
 6745SOL     OW20918   3.169   4.975   1.429 -0.0508  0.1875  0.3071
 6745SOL    HW120919   3.245   4.923   1.404  0.0590  0.2148  0.5725
 6745SOL    HW220920   3.190   5.063   1.398  0.2825  0.3159  0.8767
 6746SOL     OW20921   4.263   1.872   1.365 -0.1904  0.3815 -0.4966
 6746SOL    HW120922   4.351   1.837   1.379 -0.4503 -0.5307 -1.0211
 6746SOL    HW220923   4.255   1.879   1.270 -0.7356  0.2866 -0.4631
 6747SOL     OW20924   5.905   2.000   6.764 -0.0857 -0.2170  0.1307
 6747SOL    HW120925   5.911   2.096   6.772  0.6716 -0.0956 -1.4964
 6747SOL    HW220926   5.966   1.967   6.829 -0.7100  0.3776  1.0493
 6748SOL     OW20927   2.035   4.871   6.685  0.0281  0.2075 -0.0469
 6748SOL    HW120928   2.103   4.806   6.665  0.0686  0.3635 -0.4141
 6748SOL    HW220929   1.953   4.829   6.658  0.0787  0.4024 -0.5130
 6749SOL     OW20930   0.320   0.093   2.866 -0.9048  0.8046 -0.1526
 6749SOL    HW120931   0.265   0.015   2.874  0.3009  0.0741  1.6839
 6749SOL    HW220932   0.390   0.080   2.930 -0.0845  2.9345 -0.5251
 6750SOL     OW20933   2.193   3.980   1.959  0.1599 -0.1540 -0.2075
 6750SOL    HW120934   2.241   4.055   1.996 -0.3454 -0.3513  0.8943
 6750SOL    HW220935   2.182   4.002   1.867  0.3770  0.9429  0.0087
 6751SOL     OW20936   2.525   3.616   2.833 -0.0521 -0.0874  0.1573
 6751SOL    HW120937   2.529   3.657   2.919  1.9220  1.5217 -0.6254
 6751SOL    HW220938   2.510   3.688   2.772 -1.4472 -1.2006 -0.8709
 6752SOL     OW20939   1.189   5.952   4.149 -0.4877  0.3581 -0.3587
 6752SOL    HW120940   1.110   5.905   4.123  0.6369 -1.0637 -1.3599
 6752SOL    HW220941   1.164   5.998   4.230 -2.8437  1.4334 -1.5845
 6753SOL     OW20942   6.890   2.380   3.534 -1.1198  0.1633  0.4890
 6753SOL    HW120943   6.891   2.459   3.588  0.0929  0.7931 -0.4167
 6753SOL    HW220944   6.973   2.382   3.486 -1.3166 -1.3704  0.0208
 6754SOL     OW20945   1.385   6.262   3.300  0.1383  0.1416 -0.7101
 6754SOL    HW120946   1.315   6.209   3.336  0.2775  1.0339  0.9609
 6754SOL    HW220947   1.457   6.200   3.284 -0.3606 -0.4655 -0.6189
 6755SOL     OW20948   5.836   0.977   3.944  0.0627 -0.4993 -0.1833
 6755SOL    HW120949   5.843   0.883   3.964  1.8840 -0.6640 -1.3121
 6755SOL    HW220950   5.818   0.980   3.850  0.4875  0.2636 -0.2488
 6756SOL     OW20951   1.704   4.057   2.587 -0.1146  0.0269 -0.3113
 6756SOL    HW120952   1.612   4.040   2.570 -0.1520 -1.8750  1.4366
 6756SOL    HW220953   1.747   4.043   2.503 -1.3190  0.3654 -1.0136
 6757SOL     OW20954   0.902   4.647   2.594  0.6518 -0.4167  0.1476
 6757SOL    HW120955   0.954   4.596   2.656  1.4984 -1.4128 -1.3281
 6757SOL    HW220956   0.838   4.585   2.558  0.3139  0.0893 -0.1476
 6758SOL     OW20957   4.388   1.511   6.208 -0.1528  1.3291 -0.4551
 6758SOL    HW120958   4.374   1.517   6.302 -2.1437  0.1631 -0.6278
 6758SOL    HW220959   4.300   1.509   6.170  0.5601  0.0460 -2.2008
 6759SOL     OW20960   4.653   4.039   6.676  0.1083  0.6600  0.1567
 6759SOL    HW120961   4.689   4.020   6.763  1.8500 -2.4124 -1.1218
 6759SOL    HW220962   4.566   3.999   6.678  1.2134 -1.8964 -0.3416
 6760SOL     OW20963   5.185   2.946   3.363 -0.1149  0.6104  0.0985
 6760SOL    HW120964   5.238   2.951   3.283  0.7309  0.4829  0.6385
 6760SOL    HW220965   5.226   3.007   3.423 -0.4030  0.2786  0.6384
 6761SOL     OW20966   5.751   1.881   1.457  0.5422  0.0432  0.1441
 6761SOL    HW120967   5.802   1.817   1.508  1.6634 -0.2021 -1.1963
 6761SOL    HW220968   5.783   1.966   1.486 -0.0159 -0.0429  1.0154
 6762SOL     OW20969   2.866   1.188   0.884  0.6511  0.2934 -0.1779
 6762SOL    HW120970   2.881   1.251   0.955  0.9292 -0.1979  0.2077
 6762SOL    HW220971   2.911   1.225   0.809  0.3718  0.8115 -0.0904
 6763SOL     OW20972   1.851   6.388   5.777 -0.8202  0.2708  0.8315
 6763SOL    HW120973   1.912   6.384   5.851  1.4138 -1.0070 -0.9406
 6763SOL    HW220974   1.908   6.401   5.700 -2.6100 -2.3808 -1.1119
 6764SOL     OW20975   3.351   1.174   0.784 -0.2337 -0.3513  0.0575
 6764SOL    HW120976   3.264   1.215   0.785 -0.2763 -0.3793 -1.0894
 6764SOL    HW220977   3.403   1.229   0.725  0.4681 -0.4720  0.5517
 6765SOL     OW20978   2.477   1.494   4.807  1.2292  0.3901  0.0513
 6765SOL    HW120979   2.522   1.578   4.813  0.4912  0.7873  0.2164
 6765SOL    HW220980   2.416   1.495   4.881 -0.1280  0.5318 -1.0250
 6766SOL     OW20981   0.083   5.804   6.492 -0.0689  0.0922 -0.6248
 6766SOL    HW120982   0.029   5.877   6.463 -0.4444 -0.8152 -2.3614
 6766SOL    HW220983   0.069   5.736   6.426  1.5272 -0.9625  0.0510
 6767SOL     OW20984   6.549   4.192   3.480 -0.5330 -0.0826  0.7084
 6767SOL    HW120985   6.594   4.237   3.408  1.2064 -1.1468  1.0576
 6767SOL    HW220986   6.573   4.241   3.558 -2.8240  1.3706  0.5849
 6768SOL     OW20987   3.748   4.970   3.970 -0.3262 -0.9668 -0.0262
 6768SOL    HW120988   3.770   5.018   4.049 -0.8989  2.2379 -1.6492
 6768SOL    HW220989   3.832   4.956   3.926 -0.3290  0.7853 -0.6603
 6769SOL     OW20990   2.039   4.715   1.061  0.2499 -0.0747 -0.4279
 6769SOL    HW120991   1.976   4.664   1.009 -0.0200  0.0790 -0.2530
 6769SOL    HW220992   1.997   4.801   1.072 -0.1966 -0.4586  0.9991
 6770SOL     OW20993   4.884   0.139   5.017 -0.0630 -0.4648  0.2289
 6770SOL    HW120994   4.866   0.049   4.988 -0.4760  0.2224 -1.8187
 6770SOL    HW220995   4.808   0.189   4.989  0.9227  0.8294 -0.2273
 6771SOL     OW20996   1.404   6.562   1.086 -0.1096 -0.5433 -0.3721
 6771SOL    HW120997   1.369   6.499   1.149  0.4971  0.1873  0.7300
 6771SOL    HW220998   1.491   6.529   1.064 -0.5442 -1.1152 -1.3223
 6772SOL     OW20999   2.535   2.518   2.331 -0.5441  0.0754  0.3565
 6772SOL    HW121000   2.608   2.560   2.376  0.4891  0.8718 -1.8833
 6772SOL    HW221001   2.530   2.431   2.370  1.4818  0.0868  0.7543
 6773SOL     OW21002   5.543   0.784   3.622  0.3815  0.1025 -0.2321
 6773SOL    HW121003   5.555   0.799   3.528 -1.8418  0.8997 -0.4295
 6773SOL    HW221004   5.628   0.807   3.660  0.9857  0.8327 -1.9041
 6774SOL     OW21005   6.695   4.141   5.416 -0.1285 -0.3376  0.0267
 6774SOL    HW121006   6.626   4.076   5.408  0.5101 -0.8717 -1.4589
 6774SOL    HW221007   6.706   4.152   5.511 -2.7319  0.3532  0.3199
 6775SOL     OW21008   3.019   6.236   3.351 -0.0302 -0.2142 -0.0777
 6775SOL    HW121009   3.027   6.246   3.445  1.9943 -0.6131 -0.1656
 6775SOL    HW221010   3.072   6.307   3.314  1.3680 -1.5967 -0.8509
 6776SOL     OW21011   6.718   0.958   1.899 -0.2538 -0.1826 -0.0139
 6776SOL    HW121012   6.697   0.919   1.983 -0.5673 -2.6459 -1.1511
 6776SOL    HW221013   6.814   0.966   1.899 -0.1826 -0.9948  0.2513
 6777SOL     OW21014   6.445   5.804   3.061  0.0700  0.3618 -0.1974
 6777SOL    HW121015   6.443   5.737   2.992  0.1873  0.3780 -0.2162
 6777SOL    HW221016   6.356   5.805   3.096  0.4269 -0.9148  0.8601
 6778SOL     OW21017   1.432   1.466   5.058  0.5648 -0.0437 -0.0265
 6778SOL    HW121018   1.396   1.379   5.040  2.1733 -0.8484  0.4582
 6778SOL    HW221019   1.403   1.485   5.147  1.1541 -0.6032  0.2930
 6779SOL     OW21020   1.496   0.349   1.040  0.1616 -0.3956 -0.4205
 6779SOL    HW121021   1.477   0.255   1.034  1.9959 -0.7301 -2.1086
 6779SOL    HW221022   1.544   0.358   1.122  1.0915 -1.1901 -0.8513
 6780SOL     OW21023   1.729   2.146   2.848  0.6961 -0.3830 -0.2402
 6780SOL    HW121024   1.785   2.223   2.848  2.1107 -1.3605  0.0738
 6780SOL    HW221025   1.678   2.152   2.928 -0.1894  0.8658 -0.8626
 6781SOL     OW21026   2.278   6.533   2.359  0.3286  0.0412  0.6259
 6781SOL    HW121027   2.236   6.450   2.383  1.5138 -0.5046  0.8813
 6781SOL    HW221028   2.353   6.507   2.305  0.9839  0.9204  1.1010
 6782SOL     OW21029   1.807   5.736   3.083  1.0258 -0.0751 -0.2179
 6782SOL    HW121030   1.901   5.741   3.069  1.0366  1.1708  0.1546
 6782SOL    HW221031   1.787   5.643   3.081  2.2816 -0.3612 -0.1693
 6783SOL     OW21032   2.305   5.127   5.745  0.2426 -0.3873 -0.6833
 6783SOL    HW121033   2.338   5.197   5.688 -1.2584 -0.6981 -2.0298
 6783SOL    HW221034   2.278   5.058   5.684 -1.1927 -0.8475  0.4143
 6784SOL     OW21035   6.871   4.745   4.596 -0.2798  0.3474  0.0118
 6784SOL    HW121036   6.961   4.743   4.563 -0.2067 -0.5932  0.2467
 6784SOL    HW221037   6.880   4.774   4.687 -0.1226 -0.5235  0.2848
 6785SOL     OW21038   4.535   1.903   6.628  0.0779 -0.1295 -0.1989
 6785SOL    HW121039   4.521   1.908   6.722 -0.4594 -3.2425 -0.0078
 6785SOL    HW221040   4.630   1.904   6.617  0.2259 -2.0746  0.6204
 6786SOL     OW21041   0.620   1.691   3.402 -0.3883  0.2217  0.0595
 6786SOL    HW121042   0.617   1.613   3.347  0.2798  0.2024  0.0454
 6786SOL    HW221043   0.699   1.680   3.455  0.0246  1.1643 -0.3478
 6787SOL     OW21044   2.099   2.373   2.693 -0.5079 -0.4077  0.0699
 6787SOL    HW121045   2.107   2.384   2.598 -0.8372 -0.0050  0.0851
 6787SOL    HW221046   2.188   2.380   2.726 -0.4122 -0.3774 -0.1953
 6788SOL     OW21047   3.904   6.896   5.148 -0.1203 -0.4441 -0.3159
 6788SOL    HW121048   3.913   6.801   5.141 -0.7920 -0.6297  1.0595
 6788SOL    HW221049   3.987   6.930   5.114 -1.1625 -1.3153 -4.1732
 6789SOL     OW21050   1.646   4.174   3.350 -0.2597 -0.1940  0.1872
 6789SOL    HW121051   1.653   4.268   3.334  2.7430 -0.4461 -0.4841
 6789SOL    HW221052   1.633   4.135   3.264  1.7517 -0.5570 -0.0029
 6790SOL     OW21053   6.197   4.030   5.844  0.0247  0.4675  0.4412
 6790SOL    HW121054   6.193   4.062   5.754  2.1558  0.6723  0.3656
 6790SOL    HW221055   6.225   4.106   5.895 -0.2189  0.1001  1.1343
 6791SOL     OW21056   4.070   6.716   6.099  0.2022  0.3806 -0.0622
 6791SOL    HW121057   4.136   6.697   6.166 -0.6738 -0.0835  0.6829
 6791SOL    HW221058   4.110   6.686   6.018  1.7653  2.0168  0.0310
 6792SOL     OW21059   3.719   3.967   5.390 -0.1371  0.3130 -0.2204
 6792SOL    HW121060   3.670   3.886   5.376 -1.6266  1.0172  0.6807
 6792SOL    HW221061   3.670   4.013   5.459  0.5377  2.0788 -0.8692
 6793SOL     OW21062   1.195   4.443   0.279  0.0785  0.0652  0.5494
 6793SOL    HW121063   1.105   4.445   0.312 -0.0175 -0.1528  0.3042
 6793SOL    HW221064   1.187   4.406   0.191  0.5511 -1.1420  0.9961
 6794SOL     OW21065   1.017   0.044   6.301  0.6642  0.0779 -0.3104
 6794SOL    HW121066   1.021   0.134   6.270  1.1826  0.4299  0.7518
 6794SOL    HW221067   1.085   0.038   6.368 -0.6444 -0.5642  1.0030
 6795SOL     OW21068   2.360   1.772   3.423 -1.0200 -0.2759 -0.2375
 6795SOL    HW121069   2.345   1.687   3.465 -0.9801 -0.7925 -1.2287
 6795SOL    HW221070   2.427   1.754   3.357 -1.2648  0.4512 -0.6944
 6796SOL     OW21071   1.942   3.796   3.880  0.2193  0.2112 -0.1254
 6796SOL    HW121072   1.969   3.724   3.822  0.6147 -0.0747  0.3994
 6796SOL    HW221073   2.023   3.820   3.926  0.0208  0.7886 -0.0729
 6797SOL     OW21074   4.098   5.619   0.352  0.2406 -0.3377  0.5344
 6797SOL    HW121075   4.043   5.696   0.335  2.2232  0.5527 -2.5278
 6797SOL    HW221076   4.156   5.646   0.423  0.1409  0.5539  0.2818
 6798SOL     OW21077   4.266   6.016   0.483  0.0812  0.7514  0.3742
 6798SOL    HW121078   4.287   5.963   0.407 -0.5114 -1.0273  1.3891
 6798SOL    HW221079   4.347   6.019   0.534 -0.4519 -1.2721  1.4704
 6799SOL     OW21080   1.445   5.678   5.980  0.8116  0.0464  0.1276
 6799SOL    HW121081   1.349   5.680   5.986  0.8637 -0.1902  1.2587
 6799SOL    HW221082   1.470   5.768   5.964  0.4072  0.1416  0.0238
 6800SOL     OW21083   0.868   6.666   0.444  0.0395  0.9513 -0.0467
 6800SOL    HW121084   0.894   6.717   0.520  1.3666  0.3025 -0.0345
 6800SOL    HW221085   0.854   6.731   0.375 -1.2212  1.5436  0.7373
 6801SOL     OW21086   1.578   0.127   1.686 -0.0331 -0.2770 -0.0251
 6801SOL    HW121087   1.583   0.197   1.751 -1.5232  0.4754 -0.6791
 6801SOL    HW221088   1.589   0.172   1.602 -1.1551 -0.7997 -0.4652
 6802SOL     OW21089   4.197   1.775   2.423 -0.2619 -0.8821  0.5464
 6802SOL    HW121090   4.126   1.743   2.478 -0.3078 -0.2985  0.8335
 6802SOL    HW221091   4.239   1.843   2.475 -1.9421  1.5908 -1.1126
 6803SOL     OW21092   2.624   2.264   6.791  0.1245  0.2388 -0.3049
 6803SOL    HW121093   2.534   2.235   6.801 -0.0376  0.9354  0.3779
 6803SOL    HW221094   2.617   2.351   6.752  0.5245  0.0765 -0.7471
 6804SOL     OW21095   1.715   2.884   5.265 -0.2215  0.1705  0.0372
 6804SOL    HW121096   1.789   2.887   5.326  0.3541  0.2048 -0.6503
 6804SOL    HW221097   1.654   2.821   5.305  1.6963 -2.5759 -1.0453
 6805SOL     OW21098   3.069   5.856   1.992 -0.2101 -0.4434  0.2662
 6805SOL    HW121099   3.139   5.814   1.941 -0.7220 -0.7530 -0.1904
 6805SOL    HW221100   2.989   5.813   1.963 -0.7472  0.8053 -0.1864
 6806SOL     OW21101   5.781   2.396   3.846  0.0082 -0.6434  0.0682
 6806SOL    HW121102   5.790   2.490   3.861 -0.1395 -0.4499 -0.9454
 6806SOL    HW221103   5.697   2.373   3.884 -0.1762 -0.2623 -0.1062
 6807SOL     OW21104   1.893   4.327   5.483  0.0284  0.2508  0.2241
 6807SOL    HW121105   1.864   4.314   5.574 -0.0850 -1.8520 -0.0602
 6807SOL    HW221106   1.980   4.289   5.480  0.2522  0.7976 -0.4360
 6808SOL     OW21107   1.100   0.565   2.087  0.4307  0.1183 -0.3293
 6808SOL    HW121108   1.119   0.608   2.170  2.0355  0.4046 -0.8157
 6808SOL    HW221109   1.085   0.636   2.025  0.8251 -0.0566 -0.6321
 6809SOL     OW21110   4.860   2.868   1.295 -0.3451  0.5760  0.2158
 6809SOL    HW121111   4.943   2.830   1.323  0.1817  0.5739 -1.2655
 6809SOL    HW221112   4.794   2.806   1.326  0.3241 -0.2561  0.0086
 6810SOL     OW21113   0.791   2.192   1.017  0.2718  0.4477  0.0718
 6810SOL    HW121114   0.765   2.273   1.061 -0.2441 -0.1955  0.9948
 6810SOL    HW221115   0.793   2.215   0.924  0.6361  1.6434  0.3519
 6811SOL     OW21116   1.561   2.126   6.425  0.5309 -0.0611 -0.2004
 6811SOL    HW121117   1.568   2.175   6.507 -0.6360  0.1588 -0.2173
 6811SOL    HW221118   1.468   2.129   6.402  0.0518 -3.6490  0.6258
 6812SOL     OW21119   3.970   4.098   3.295 -0.5841  0.3071  0.8192
 6812SOL    HW121120   4.012   4.063   3.374  0.7834  0.2053  0.0919
 6812SOL    HW221121   3.966   4.192   3.309 -1.4167  0.1820  1.4839
 6813SOL     OW21122   1.406   6.773   4.869  0.5797 -0.2925  0.0748
 6813SOL    HW121123   1.393   6.693   4.920 -0.0823 -0.8756 -0.9691
 6813SOL    HW221124   1.352   6.838   4.913 -2.0553 -1.4057 -1.2272
 6814SOL     OW21125   5.220   1.831   6.266  0.5416  0.2740  0.2313
 6814SOL    HW121126   5.223   1.856   6.174 -2.1965 -0.0559 -0.0286
 6814SOL    HW221127   5.257   1.743   6.269 -0.2470 -0.1002 -0.7305
 6815SOL     OW21128   6.753   4.191   2.867  0.6592 -0.6102  0.2790
 6815SOL    HW121129   6.668   4.146   2.866  0.8963 -1.0702 -0.6079
 6815SOL    HW221130   6.816   4.123   2.843  1.3337 -0.3641  1.2982
 6816SOL     OW21131   0.548   6.677   5.260 -0.0495 -0.0309  0.0049
 6816SOL    HW121132   0.474   6.657   5.203 -0.6788 -1.3853  1.2336
 6816SOL    HW221133   0.621   6.692   5.200 -1.5014  2.5625 -1.3068
 6817SOL     OW21134   6.767   0.468   2.678  0.5192 -0.2414 -0.2093
 6817SOL    HW121135   6.822   0.466   2.600  1.3884  0.8027  0.3392
 6817SOL    HW221136   6.819   0.422   2.745  0.2080 -0.2861  0.0045
 6818SOL     OW21137   3.841   1.069   3.389 -0.8381  0.0349  0.6379
 6818SOL    HW121138   3.791   0.996   3.353  1.7307 -1.5399 -0.0225
 6818SOL    HW221139   3.828   1.141   3.327 -0.3979 -1.0917 -0.7938
 6819SOL     OW21140   4.006   2.623   2.493 -0.0815 -0.2686  0.1408
 6819SOL    HW121141   3.938   2.625   2.426 -1.0040  2.0316  1.0432
 6819SOL    HW221142   3.977   2.685   2.559  2.3863  0.0230  1.0856
 6820SOL     OW21143   6.614   6.716   5.568 -0.5821  0.2741  0.1980
 6820SOL    HW121144   6.668   6.719   5.647 -1.0797 -1.4316  0.6339
 6820SOL    HW221145   6.657   6.777   5.508  1.2058 -0.2004  0.9180
 6821SOL     OW21146   3.919   6.160   0.950 -0.5421 -0.2921  0.1379
 6821SOL    HW121147   3.894   6.177   0.860  0.4498  1.1726  0.1050
 6821SOL    HW221148   3.842   6.185   1.002 -1.1791 -1.3181 -0.2991
 6822SOL     OW21149   2.527   3.973   6.885  0.4474  0.0174  0.4301
 6822SOL    HW121150   2.482   3.924   6.816  1.8278  0.5241 -0.8799
 6822SOL    HW221151   2.558   3.905   6.945  0.8364 -0.6025 -0.4437
 6823SOL     OW21152   4.879   3.830   1.933  0.0972 -0.7465 -0.0488
 6823SOL    HW121153   4.911   3.900   1.876  0.4654  0.2661  1.3418
 6823SOL    HW221154   4.958   3.779   1.954 -0.3126 -2.2188 -1.8204
 6824SOL     OW21155   2.855   5.159   2.072 -0.1706  0.4799  0.2820
 6824SOL    HW121156   2.861   5.177   2.166  1.2074  0.3038  0.2529
 6824SOL    HW221157   2.847   5.064   2.066 -0.4162  0.5035  0.2234
 6825SOL     OW21158   4.529   5.337   4.079  0.2137 -0.3233  0.4402
 6825SOL    HW121159   4.507   5.292   3.998  0.8120  0.9836 -0.4747
 6825SOL    HW221160   4.614   5.376   4.063  0.7901 -0.8137  2.0485
 6826SOL     OW21161   3.978   3.607   1.082  0.3973  0.0721 -0.2055
 6826SOL    HW121162   3.947   3.656   1.005 -0.2411 -1.1466 -0.7570
 6826SOL    HW221163   3.998   3.520   1.047  1.0611 -0.1996  0.8363
 6827SOL     OW21164   6.597   2.863   3.000 -0.4982 -0.0691 -0.3471
 6827SOL    HW121165   6.544   2.865   3.080  1.4736 -0.6010  1.0713
 6827SOL    HW221166   6.574   2.780   2.959 -1.7649  0.3505 -0.5278
 6828SOL     OW21167   1.464   5.772   4.871  0.2783  0.4241  0.3200
 6828SOL    HW121168   1.486   5.688   4.831 -0.5566  0.5244 -0.3612
 6828SOL    HW221169   1.423   5.748   4.955 -2.7207 -0.0257 -1.1448
 6829SOL     OW21170   3.765   6.624   5.104 -0.4585  0.1226  0.0198
 6829SOL    HW121171   3.709   6.655   5.175 -1.1673 -0.3902 -0.3006
 6829SOL    HW221172   3.802   6.542   5.137 -0.7366 -0.0825 -0.1759
 6830SOL     OW21173   0.417   5.511   3.595  0.1245 -0.2754 -0.1017
 6830SOL    HW121174   0.357   5.438   3.607  1.6712 -1.3590  1.5592
 6830SOL    HW221175   0.504   5.473   3.607  1.0002  1.7924  0.6370
 6831SOL     OW21176   4.979   0.465   5.508 -0.0689  0.4336 -0.8072
 6831SOL    HW121177   4.920   0.425   5.572  1.2299  1.8333  1.3657
 6831SOL    HW221178   4.928   0.536   5.470 -0.5770  0.1047 -0.7581
 6832SOL     OW21179   3.156   1.123   1.235 -0.1466 -0.1166 -0.1484
 6832SOL    HW121180   3.204   1.194   1.191 -0.1462 -0.9962 -1.6443
 6832SOL    HW221181   3.153   1.053   1.170  0.9253 -1.9881  1.6943
 6833SOL     OW21182   4.827   3.554   2.527  0.0669  0.0831  0.3454
 6833SOL    HW121183   4.806   3.538   2.619 -1.0369 -0.2948  0.0424
 6833SOL    HW221184   4.791   3.641   2.510  1.6114  0.8132  0.6539
 6834SOL     OW21185   0.811   3.018   4.250 -0.0616  0.0299  0.1546
 6834SOL    HW121186   0.894   3.030   4.296  0.1006 -1.0489  0.1701
 6834SOL    HW221187   0.749   2.992   4.318 -0.3770  0.6721  0.1174
 6835SOL     OW21188   0.977   6.196   4.977 -0.0900  0.6168 -0.1752
 6835SOL    HW121189   0.927   6.122   5.012  1.2906 -0.7200 -0.9528
 6835SOL    HW221190   0.918   6.271   4.988 -1.5990 -0.6031  0.4698
 6836SOL     OW21191   5.300   1.610   4.756 -0.4209  0.2462 -0.3577
 6836SOL    HW121192   5.253   1.527   4.763 -1.2544  0.4618 -2.4675
 6836SOL    HW221193   5.388   1.592   4.789 -0.8048 -1.2689 -0.1129
 6837SOL     OW21194   1.159   3.062   0.540  0.3698 -0.7760 -0.0501
 6837SOL    HW121195   1.098   3.008   0.490  0.2871 -1.2213  0.5291
 6837SOL    HW221196   1.107   3.093   0.615  0.7180 -0.7601  0.1830
 6838SOL     OW21197   4.312   1.045   4.249 -0.0510  0.3527 -0.0158
 6838SOL    HW121198   4.302   0.991   4.170  0.1385  1.8264 -1.0992
 6838SOL    HW221199   4.403   1.074   4.246 -0.1239  0.6464  0.5973
 6839SOL     OW21200   4.589   5.100   1.561  0.4121  0.0468 -0.0667
 6839SOL    HW121201   4.633   5.034   1.508  0.0133  0.0766 -0.4352
 6839SOL    HW221202   4.661   5.144   1.608  0.6834 -0.5751  0.1056
 6840SOL     OW21203   3.449   0.975   2.606 -0.3253  0.2719  0.4215
 6840SOL    HW121204   3.541   0.961   2.632  0.1543 -0.0298 -1.3256
 6840SOL    HW221205   3.399   0.923   2.670  0.6569  0.8290  1.7075
 6841SOL     OW21206   1.526   6.095   4.333 -0.1455  0.1584 -0.2667
 6841SOL    HW121207   1.506   6.137   4.250  2.9097  1.0331 -0.6873
 6841SOL    HW221208   1.579   6.160   4.381  1.7156 -1.8179  0.5542
 6842SOL     OW21209   2.268   2.620   5.783  0.1842  0.0433 -0.1936
 6842SOL    HW121210   2.259   2.585   5.872 -0.6279 -1.9848 -1.0186
 6842SOL    HW221211   2.325   2.558   5.738  1.4674  1.6177 -0.8441
 6843SOL     OW21212   2.396   2.143   5.183 -0.0112 -0.1902  0.3050
 6843SOL    HW121213   2.344   2.223   5.193  0.1605 -0.0374  0.0076
 6843SOL    HW221214   2.428   2.147   5.093  0.1487 -0.5057  0.3463
 6844SOL     OW21215   0.341   6.611   2.105  0.0522 -0.0154  0.3811
 6844SOL    HW121216   0.353   6.550   2.177 -0.3274 -0.4194  0.1053
 6844SOL    HW221217   0.248   6.603   2.082 -0.1912  1.2343  0.8524
 6845SOL     OW21218   1.683   1.667   5.155  0.1578  0.3653 -0.2061
 6845SOL    HW121219   1.646   1.742   5.201 -0.4058  1.6069 -2.5235
 6845SOL    HW221220   1.615   1.640   5.094  0.6763 -1.5293 -0.0225
 6846SOL     OW21221   5.338   1.452   2.063  0.0836 -0.4800 -0.3090
 6846SOL    HW121222   5.310   1.381   2.004 -0.9879  0.0282 -0.4297
 6846SOL    HW221223   5.432   1.438   2.073  0.3067 -0.5623 -2.1698
 6847SOL     OW21224   4.254   1.770   4.561  0.1969 -0.2550  0.8370
 6847SOL    HW121225   4.256   1.687   4.513 -1.2218 -0.1988  0.6549
 6847SOL    HW221226   4.274   1.745   4.651  0.3800 -0.7017  0.6812
 6848SOL     OW21227   5.797   4.299   2.586 -0.3809 -0.0543  0.3777
 6848SOL    HW121228   5.861   4.358   2.545  0.0125  0.7786  2.0651
 6848SOL    HW221229   5.811   4.215   2.544  1.3040  0.3002  0.1417
 6849SOL     OW21230   6.268   3.988   6.468 -0.0393 -0.2375  0.1053
 6849SOL    HW121231   6.307   3.937   6.398  1.3401 -1.9590  2.0210
 6849SOL    HW221232   6.205   3.928   6.509 -0.8330  0.7436  0.3679
 6850SOL     OW21233   2.156   5.439   5.363 -0.1046  0.0979  0.3564
 6850SOL    HW121234   2.228   5.376   5.360  0.0206  0.2909 -0.9378
 6850SOL    HW221235   2.162   5.488   5.281 -2.3386 -0.6173 -0.3139
 6851SOL     OW21236   6.807   2.066   4.530 -0.3903 -0.0714 -0.1848
 6851SOL    HW121237   6.787   1.998   4.466 -2.9943 -1.2386  1.6548
 6851SOL    HW221238   6.758   2.142   4.501 -1.0915 -0.4118  0.0924
 6852SOL     OW21239   1.939   2.325   0.840 -0.0648  0.5004 -0.2176
 6852SOL    HW121240   1.931   2.420   0.829 -3.7919  0.4941  1.1659
 6852SOL    HW221241   1.981   2.315   0.926 -1.0413  0.9299  0.3183
 6853SOL     OW21242   2.241   1.220   2.476 -0.3445  0.0292 -0.8354
 6853SOL    HW121243   2.238   1.299   2.422 -0.5996  1.0340  0.5778
 6853SOL    HW221244   2.150   1.204   2.501 -0.1351  0.1393  0.0372
 6854SOL     OW21245   2.762   4.073   2.761 -0.2541 -0.5640  0.3303
 6854SOL    HW121246   2.714   4.073   2.844 -1.0905 -2.0805 -0.1155
 6854SOL    HW221247   2.853   4.090   2.786 -0.8330  1.3590  1.3002
 6855SOL     OW21248   3.046   2.404   4.432  0.5684  0.0854 -0.0869
 6855SOL    HW121249   2.971   2.351   4.459  0.7917  0.0578  0.5006
 6855SOL    HW221250   3.041   2.483   4.485  1.3761 -0.2518  0.5141
 6856SOL     OW21251   5.542   3.514   0.071 -0.3100  0.0098 -0.4578
 6856SOL    HW121252   5.477   3.577   0.039 -2.2484 -1.6346  0.0890
 6856SOL    HW221253   5.502   3.474   0.148  1.3895 -1.0310 -0.0567
 6857SOL     OW21254   4.667   0.397   3.944 -0.4170  0.0047  0.5588
 6857SOL    HW121255   4.596   0.460   3.953 -2.0024 -1.7668  0.7873
 6857SOL    HW221256   4.638   0.319   3.991  1.7311 -0.7446  0.7611
 6858SOL     OW21257   6.821   6.351   1.297  0.1989  0.4203 -0.0695
 6858SOL    HW121258   6.873   6.431   1.291  0.7257  0.0611 -0.4105
 6858SOL    HW221259   6.789   6.350   1.387 -1.5617  2.0724 -0.6300
 6859SOL     OW21260   0.094   2.202   0.155  0.6693 -0.3639 -0.5167
 6859SOL    HW121261   0.080   2.202   0.060  0.6400  1.4035 -0.5500
 6859SOL    HW221262   0.186   2.179   0.166  0.5730 -0.9708 -0.9499
 6860SOL     OW21263   4.118   3.329   6.648  0.0692  0.5688 -0.1592
 6860SOL    HW121264   4.174   3.348   6.573 -0.8537  0.4526 -0.8910
 6860SOL    HW221265   4.116   3.411   6.698  1.6852  0.2879  0.4414
 6861SOL     OW21266   3.319   6.131   1.075 -0.2057 -0.2716  0.3612
 6861SOL    HW121267   3.297   6.198   1.140 -1.4926  0.1324 -0.4541
 6861SOL    HW221268   3.414   6.122   1.081 -0.0552  1.2947  0.8183
 6862SOL     OW21269   1.262   3.749   6.328 -0.3408 -0.3874  0.2391
 6862SOL    HW121270   1.187   3.787   6.281 -0.1062 -2.2820 -1.8642
 6862SOL    HW221271   1.338   3.781   6.279 -0.0436 -1.7453 -0.2264
 6863SOL     OW21272   2.744   5.837   1.988  0.2653  0.4048 -0.1765
 6863SOL    HW121273   2.652   5.813   2.004  0.5279 -0.7909 -0.3804
 6863SOL    HW221274   2.743   5.932   1.988 -0.6242  0.4684  1.9446
 6864SOL     OW21275   0.408   4.781   4.083 -0.4094  0.1235 -0.1173
 6864SOL    HW121276   0.471   4.742   4.023  0.1733  0.6756  0.1188
 6864SOL    HW221277   0.434   4.873   4.088  1.1861 -0.3598  2.9193
 6865SOL     OW21278   3.394   3.811   2.759  0.1422 -0.4821  0.3895
 6865SOL    HW121279   3.466   3.789   2.818 -1.4185 -0.4876  2.4017
 6865SOL    HW221280   3.384   3.734   2.703  2.3273 -0.0705 -0.6599
 6866SOL     OW21281   3.606   4.612   0.885 -0.0226 -0.0296 -0.6426
 6866SOL    HW121282   3.529   4.648   0.928 -0.7193  1.3346 -2.8480
 6866SOL    HW221283   3.669   4.597   0.955 -1.5162  0.8836  0.9420
 6867SOL     OW21284   4.945   2.820   3.271 -0.0208  0.2727 -0.4915
 6867SOL    HW121285   4.976   2.730   3.271 -1.4063 -0.2214 -0.6219
 6867SOL    HW221286   5.022   2.872   3.295  0.3998 -1.0678  1.2776
 6868SOL     OW21287   1.611   5.527   0.151  0.3601 -0.2314 -0.2695
 6868SOL    HW121288   1.611   5.561   0.241  2.7248 -2.1556  0.5707
 6868SOL    HW221289   1.525   5.484   0.142 -0.9970  2.2044  0.0488
 6869SOL     OW21290   0.298   6.118   3.280 -0.2662 -0.6010 -0.2234
 6869SOL    HW121291   0.235   6.153   3.217 -0.2108 -0.1702 -0.0424
 6869SOL    HW221292   0.384   6.132   3.240 -0.2487 -0.6354 -0.1986
 6870SOL     OW21293   2.416   5.237   6.817  0.0660  0.1001 -0.0315
 6870SOL    HW121294   2.361   5.242   6.896  1.7793  2.3171  1.1680
 6870SOL    HW221295   2.495   5.286   6.841  1.8992 -1.6263 -2.1955
 6871SOL     OW21296   4.386   0.338   1.097 -0.3257  0.4924 -0.4120
 6871SOL    HW121297   4.329   0.352   1.172 -0.6567 -1.0736 -0.3381
 6871SOL    HW221298   4.329   0.348   1.020 -0.3739  0.4299 -0.3847
 6872SOL     OW21299   3.572   3.259   2.885 -0.0397 -0.1618  0.1445
 6872SOL    HW121300   3.634   3.267   2.957  1.3636 -0.9558 -0.8984
 6872SOL    HW221301   3.605   3.319   2.818 -1.2196  0.4439  0.0974
 6873SOL     OW21302   0.402   6.039   5.869  0.6376 -0.5877  0.2028
 6873SOL    HW121303   0.492   6.020   5.840  0.9883  1.3947 -0.1723
 6873SOL    HW221304   0.399   6.134   5.875 -1.9039 -0.4945 -1.2913
 6874SOL     OW21305   2.156   1.999   6.884  0.0844 -0.0588  0.0292
 6874SOL    HW121306   2.072   1.970   6.920  0.1395  0.3439  0.4940
 6874SOL    HW221307   2.136   2.023   6.793 -0.5079  0.8922  0.3876
 6875SOL     OW21308   2.472   2.645   2.796  0.0191  0.2435  0.0291
 6875SOL    HW121309   2.423   2.677   2.721  0.4593 -1.2815 -0.9435
 6875SOL    HW221310   2.563   2.643   2.768 -0.1463 -3.9463 -0.8942
 6876SOL     OW21311   3.234   5.820   2.520 -0.3072 -0.0322  0.0240
 6876SOL    HW121312   3.233   5.809   2.425 -1.7775  1.7558 -0.2155
 6876SOL    HW221313   3.244   5.914   2.533  2.0329 -0.4217  1.7196
 6877SOL     OW21314   4.329   5.053   3.546 -0.1282  0.1928  0.1368
 6877SOL    HW121315   4.354   4.977   3.599  0.1971 -1.6839 -2.4728
 6877SOL    HW221316   4.235   5.059   3.557 -0.3371 -1.3817 -0.4998
 6878SOL     OW21317   0.106   4.273   6.377 -0.1140  0.0391 -0.2562
 6878SOL    HW121318   0.053   4.299   6.301 -2.2401 -3.4095 -0.1684
 6878SOL    HW221319   0.157   4.199   6.346  0.7950  0.0824  1.0749
 6879SOL     OW21320   3.104   1.075   0.593  0.0620 -0.3446 -0.1869
 6879SOL    HW121321   3.072   0.984   0.596 -0.1193 -0.3298  3.2080
 6879SOL    HW221322   3.198   1.067   0.581 -0.2016 -0.7802 -2.4061
 6880SOL     OW21323   6.388   3.363   3.452  0.2810 -0.1173 -0.1461
 6880SOL    HW121324   6.391   3.423   3.378 -2.7763 -0.1237 -0.4042
 6880SOL    HW221325   6.443   3.404   3.519  1.6749  0.7610 -1.7492
 6881SOL     OW21326   4.394   0.403   5.001  0.3777 -0.5435  0.2554
 6881SOL    HW121327   4.353   0.318   5.015  1.7172 -1.4810 -1.1376
 6881SOL    HW221328   4.486   0.389   5.024  0.2531  1.1146  1.9884
 6882SOL     OW21329   1.717   6.114   4.708 -1.3065  0.2520 -0.1781
 6882SOL    HW121330   1.768   6.076   4.636 -1.3285 -1.3163  0.5909
 6882SOL    HW221331   1.736   6.208   4.703  0.9919 -0.1551 -0.4565
 6883SOL     OW21332   6.706   6.404   4.773 -0.3772 -0.6465  0.1570
 6883SOL    HW121333   6.770   6.333   4.766 -0.0982 -0.5495  1.3868
 6883SOL    HW221334   6.750   6.480   4.734 -0.4039 -0.9683 -0.5171
 6884SOL     OW21335   6.403   5.102   5.383 -0.0674  0.1511  0.2572
 6884SOL    HW121336   6.460   5.048   5.437  0.7630  0.2969 -0.4579
 6884SOL    HW221337   6.394   5.054   5.301 -0.2599  0.5510  0.0380
 6885SOL     OW21338   5.154   3.442   6.317 -0.1685 -0.1826  0.1801
 6885SOL    HW121339   5.118   3.376   6.376  0.1401 -0.4899  0.0256
 6885SOL    HW221340   5.079   3.471   6.265 -0.7472  1.0864  1.6361
 6886SOL     OW21341   5.464   6.016   5.532  0.1790 -0.4679  0.5214
 6886SOL    HW121342   5.472   6.088   5.469  0.2325 -1.2099 -0.3424
 6886SOL    HW221343   5.554   5.996   5.558  0.2277 -0.7405  0.1518
 6887SOL     OW21344   3.649   5.340   0.861 -0.0023 -0.5174  0.0927
 6887SOL    HW121345   3.659   5.258   0.813  0.8881 -0.7020  0.5604
 6887SOL    HW221346   3.575   5.384   0.819  1.5734 -0.0154 -2.3801
 6888SOL     OW21347   5.991   5.743   1.248  0.3598 -0.4059 -0.1383
 6888SOL    HW121348   5.993   5.789   1.165  0.1281 -0.2265 -0.0471
 6888SOL    HW221349   5.991   5.650   1.225 -0.3123 -0.3533 -0.3551
 6889SOL     OW21350   5.568   0.113   5.442 -0.2498  0.3585 -0.5879
 6889SOL    HW121351   5.638   0.103   5.378  0.5225  1.6271  0.0200
 6889SOL    HW221352   5.493   0.068   5.403  1.2096 -2.1465 -0.7013
 6890SOL     OW21353   2.427   3.986   2.206 -0.6298  0.0740  0.5500
 6890SOL    HW121354   2.388   3.899   2.216  1.4055 -1.0079 -0.1679
 6890SOL    HW221355   2.511   3.980   2.252  1.0833  0.4774 -2.2608
 6891SOL     OW21356   2.254   2.179   0.611 -0.0360  0.1633  0.1218
 6891SOL    HW121357   2.258   2.197   0.517  1.4847  0.7747  0.2698
 6891SOL    HW221358   2.231   2.263   0.651 -2.4309 -0.4678  0.2316
 6892SOL     OW21359   6.705   1.018   3.463  0.3126  0.4726  0.1815
 6892SOL    HW121360   6.637   1.026   3.530  0.2467 -0.5140  0.2579
 6892SOL    HW221361   6.748   1.103   3.460 -1.1183  1.2097 -0.0721
 6893SOL     OW21362   2.367   2.947   5.808  0.3283  0.1100  0.5684
 6893SOL    HW121363   2.408   2.902   5.733 -0.5411 -0.3970  0.3788
 6893SOL    HW221364   2.430   2.937   5.879  0.3640 -1.0449  0.4008
 6894SOL     OW21365   5.068   5.988   6.773  0.1929 -0.1372 -0.4170
 6894SOL    HW121366   5.160   5.964   6.762  0.4917  0.6142  0.3682
 6894SOL    HW221367   5.042   5.948   6.856  0.6352  1.9573  0.8021
 6895SOL     OW21368   4.211   5.229   5.669 -0.6645  1.1406  0.4579
 6895SOL    HW121369   4.260   5.169   5.612 -0.5005  1.5794  0.1314
 6895SOL    HW221370   4.234   5.202   5.758 -1.3046  0.1245  0.3400
 6896SOL     OW21371   4.713   3.675   4.268  0.4549 -0.6524  0.0250
 6896SOL    HW121372   4.777   3.606   4.249  0.8270  0.2148 -2.1563
 6896SOL    HW221373   4.766   3.754   4.281 -0.1129 -0.1581 -0.6319
 6897SOL     OW21374   2.421   4.363   5.184 -0.3278 -0.4802 -0.4374
 6897SOL    HW121375   2.353   4.368   5.116 -0.0012 -1.0787 -0.8098
 6897SOL    HW221376   2.503   4.357   5.136 -0.1048 -1.0605  0.0128
 6898SOL     OW21377   1.792   5.209   5.705  0.2271 -0.4438  0.4334
 6898SOL    HW121378   1.840   5.271   5.762  0.5981 -0.6868  0.3885
 6898SOL    HW221379   1.741   5.265   5.647  0.1759 -0.1849  0.7259
 6899SOL     OW21380   4.563   1.495   1.703 -0.7607  0.1529  0.1131
 6899SOL    HW121381   4.615   1.502   1.623 -0.4724  2.9064  0.4504
 6899SOL    HW221382   4.585   1.574   1.753 -1.6598 -1.0155  2.4851
 6900SOL     OW21383   1.556   5.225   4.581  0.6352 -0.1955 -0.4244
 6900SOL    HW121384   1.516   5.211   4.496  0.5643 -2.3939 -0.0913
 6900SOL    HW221385   1.640   5.180   4.576  1.6866  1.6547 -0.0770
 6901SOL     OW21386   2.655   6.361   6.775 -0.4080  0.1407 -0.0734
 6901SOL    HW121387   2.581   6.417   6.801 -0.1763  0.0202  0.8996
 6901SOL    HW221388   2.645   6.282   6.828  0.4618  0.1576  0.1359
 6902SOL     OW21389   5.468   1.150   4.741  0.2180 -0.2662  0.3923
 6902SOL    HW121390   5.530   1.122   4.809  2.1895  0.6109 -0.9531
 6902SOL    HW221391   5.518   1.143   4.660 -1.7455 -0.2782 -0.8630
 6903SOL     OW21392   4.552   1.796   2.445 -0.0659  0.0369 -0.2484
 6903SOL    HW121393   4.624   1.856   2.425 -0.8739  1.7625  1.6579
 6903SOL    HW221394   4.588   1.736   2.511  0.5308 -1.2198 -1.6510
 6904SOL     OW21395   5.712   5.730   6.450  0.5121 -0.2922 -0.2633
 6904SOL    HW121396   5.735   5.822   6.461  0.3177 -0.3299  0.4992
 6904SOL    HW221397   5.690   5.699   6.538  0.0412 -0.9228 -0.5876
 6905SOL     OW21398   2.537   1.440   1.716  0.6893 -0.5777 -0.0382
 6905SOL    HW121399   2.538   1.530   1.748 -0.2532 -0.4806 -0.2440
 6905SOL    HW221400   2.612   1.398   1.758  1.4575  0.4421 -0.3568
 6906SOL     OW21401   5.630   1.899   6.802 -0.0288  0.0386 -0.4355
 6906SOL    HW121402   5.722   1.918   6.780  0.0831 -0.1825 -0.1643
 6906SOL    HW221403   5.633   1.867   6.892 -0.3200 -0.4258 -0.5880
 6907SOL     OW21404   6.516   4.782   4.346 -0.0435 -0.6179  0.6314
 6907SOL    HW121405   6.491   4.714   4.408 -1.8320  1.9537  3.0010
 6907SOL    HW221406   6.602   4.813   4.377 -0.6283  0.2090  1.4744
 6908SOL     OW21407   5.274   0.687   6.532 -0.1695  0.8066 -0.1445
 6908SOL    HW121408   5.290   0.624   6.602  0.4373 -1.0816 -1.9079
 6908SOL    HW221409   5.352   0.743   6.531 -0.6028  1.4985  1.2564
 6909SOL     OW21410   0.067   2.044   1.099 -0.2866  0.2977 -0.1478
 6909SOL    HW121411   0.143   1.997   1.068 -0.1165  0.7961 -0.5060
 6909SOL    HW221412   0.002   1.977   1.118 -0.3775 -0.0262 -1.5406
 6910SOL     OW21413   3.884   2.592   1.189  0.2456  0.1940  0.5017
 6910SOL    HW121414   3.969   2.595   1.144  0.1703  0.4644  0.3752
 6910SOL    HW221415   3.822   2.566   1.122  0.4450 -1.4842  0.9310
 6911SOL     OW21416   5.646   5.248   5.518 -0.3946 -0.5575 -0.1342
 6911SOL    HW121417   5.623   5.156   5.529 -0.2266 -0.6929 -0.8695
 6911SOL    HW221418   5.580   5.295   5.570 -1.4122 -1.0215 -0.9602
 6912SOL     OW21419   1.699   3.260   1.200 -0.1520 -0.3906 -0.4261
 6912SOL    HW121420   1.663   3.349   1.202  0.5267 -0.1086  0.3796
 6912SOL    HW221421   1.634   3.206   1.244  0.1705  0.0231  0.5839
 6913SOL     OW21422   1.704   1.970   5.294  0.4145  0.0065 -0.1187
 6913SOL    HW121423   1.665   2.049   5.257 -0.4310  0.9150  2.4499
 6913SOL    HW221424   1.777   2.001   5.347  1.5865 -1.2262 -0.9344
 6914SOL     OW21425   3.883   2.709   3.273 -0.1327  0.4124  0.0783
 6914SOL    HW121426   3.817   2.737   3.210  0.0486  1.7020  0.4169
 6914SOL    HW221427   3.942   2.652   3.223 -0.5407  0.6256 -0.6637
 6915SOL     OW21428   6.514   2.887   4.603 -0.4129 -0.1834  0.0756
 6915SOL    HW121429   6.547   2.826   4.668 -0.5829  0.6490  0.9612
 6915SOL    HW221430   6.429   2.916   4.636 -1.4193 -1.1988 -1.4709
 6916SOL     OW21431   4.407   1.176   0.825  0.3957 -0.6671 -0.1576
 6916SOL    HW121432   4.457   1.188   0.744  0.5623  0.0358  0.0381
 6916SOL    HW221433   4.391   1.082   0.830  0.3608 -0.7132 -1.0182
 6917SOL     OW21434   6.812   1.335   0.196  0.3288  0.0458  0.2874
 6917SOL    HW121435   6.885   1.320   0.255  1.5072  2.0912 -0.5636
 6917SOL    HW221436   6.769   1.414   0.229  0.0633  0.3180 -0.6685
 6918SOL     OW21437   1.486   4.252   5.320 -0.1193  0.9845 -0.3522
 6918SOL    HW121438   1.497   4.187   5.390 -2.7479  1.4186  0.5602
 6918SOL    HW221439   1.574   4.289   5.309  1.1618 -1.6683  0.0840
 6919SOL     OW21440   4.259   0.532   6.860 -0.4308  0.1534 -0.0501
 6919SOL    HW121441   4.273   0.617   6.818 -2.2971  0.7929  0.4781
 6919SOL    HW221442   4.333   0.522   6.920  0.1853  1.0744 -0.6302
 6920SOL     OW21443   3.307   6.083   0.803 -0.3291 -0.3415  0.1571
 6920SOL    HW121444   3.293   6.114   0.892  1.9825  1.3904 -0.0069
 6920SOL    HW221445   3.311   6.162   0.749  0.5555 -1.2075 -1.1199
 6921SOL     OW21446   5.577   2.119   1.325  0.0501  0.2171  0.2165
 6921SOL    HW121447   5.623   2.116   1.409  0.5113  0.8599 -0.0064
 6921SOL    HW221448   5.550   2.028   1.309  2.0091 -0.3527 -0.0582
 6922SOL     OW21449   5.392   5.490   1.299  0.7413  0.4445 -0.1116
 6922SOL    HW121450   5.346   5.528   1.374 -0.6077 -0.1932 -0.5718
 6922SOL    HW221451   5.451   5.425   1.337 -1.1487 -1.0905  0.3486
 6923SOL     OW21452   3.828   4.237   5.363 -0.0595 -0.1855  0.3746
 6923SOL    HW121453   3.847   4.215   5.454 -0.5776 -1.6424  0.1606
 6923SOL    HW221454   3.791   4.156   5.327  0.3362  0.3060 -1.1826
 6924SOL     OW21455   6.199   4.530   0.447  0.0234  0.3241 -0.0112
 6924SOL    HW121456   6.118   4.506   0.403  0.3431  0.2813 -0.5834
 6924SOL    HW221457   6.174   4.601   0.507 -0.3659  0.5720 -0.4601
 6925SOL     OW21458   4.310   5.582   1.187 -0.1900  0.2234 -0.6001
 6925SOL    HW121459   4.278   5.558   1.274  1.4605 -1.8089 -0.4659
 6925SOL    HW221460   4.256   5.656   1.161 -0.5027  1.1399  2.2943
 6926SOL     OW21461   5.618   5.752   1.956 -1.1277  0.6412  0.4347
 6926SOL    HW121462   5.686   5.748   2.023 -1.7721  0.6370  1.1013
 6926SOL    HW221463   5.578   5.839   1.968 -0.7322  0.9600 -0.4643
 6927SOL     OW21464   4.876   5.472   5.597 -0.7804  0.2607 -0.1749
 6927SOL    HW121465   4.855   5.407   5.663  0.2371  0.0925  0.0117
 6927SOL    HW221466   4.874   5.556   5.643 -0.0652  0.1433  0.0929
 6928SOL     OW21467   4.807   1.034   4.216  0.1742 -0.2896  0.3482
 6928SOL    HW121468   4.869   1.013   4.285  0.3844  0.6190  0.4477
 6928SOL    HW221469   4.822   1.127   4.197  0.6569 -0.6919 -1.4599
 6929SOL     OW21470   6.213   1.739   3.632 -0.7471  0.2906 -0.2791
 6929SOL    HW121471   6.296   1.752   3.587 -1.3649  1.9046 -1.0048
 6929SOL    HW221472   6.169   1.824   3.628 -1.3578  0.1824  2.3348
 6930SOL     OW21473   5.866   5.064   1.098 -0.1632  0.7023  0.1271
 6930SOL    HW121474   5.918   5.144   1.107 -0.9658  1.5052 -1.6911
 6930SOL    HW221475   5.927   4.993   1.113  0.6994  1.6378  1.2550
 6931SOL     OW21476   1.632   4.462   3.747 -0.0835  0.3785  0.1038
 6931SOL    HW121477   1.557   4.423   3.702 -0.9310  2.2166 -0.1717
 6931SOL    HW221478   1.657   4.397   3.813 -1.6753 -0.4436 -0.0561
 6932SOL     OW21479   1.633   6.277   2.933  0.6265 -0.1729  0.2482
 6932SOL    HW121480   1.600   6.190   2.955  0.1062 -0.6524 -2.1301
 6932SOL    HW221481   1.578   6.305   2.860  1.9021  1.4310 -0.1498
 6933SOL     OW21482   5.461   1.467   2.599 -0.0222 -0.1033 -0.2315
 6933SOL    HW121483   5.435   1.556   2.574 -0.6615  0.1676  1.2670
 6933SOL    HW221484   5.518   1.479   2.675 -0.0805 -0.9838 -0.0374
 6934SOL     OW21485   6.114   4.744   2.500  0.0062 -0.3234 -0.4567
 6934SOL    HW121486   6.115   4.728   2.594  0.4341  0.8793 -0.2415
 6934SOL    HW221487   6.031   4.790   2.483 -0.2393 -0.8570 -0.7288
 6935SOL     OW21488   1.061   0.809   1.959 -0.2171 -0.0193  0.4534
 6935SOL    HW121489   1.023   0.859   1.887  1.2731 -0.4948 -0.7072
 6935SOL    HW221490   1.011   0.837   2.036 -1.6208  0.7643 -0.6800
 6936SOL     OW21491   5.329   2.317   2.944 -0.3426 -0.0432  0.6775
 6936SOL    HW121492   5.326   2.379   2.872 -1.2263  1.1769  1.7263
 6936SOL    HW221493   5.406   2.343   2.995  0.0008 -0.6037  0.4602
 6937SOL     OW21494   4.567   3.757   3.358 -0.1719 -0.2080  0.3503
 6937SOL    HW121495   4.571   3.689   3.291 -0.8567  0.0397  0.0464
 6937SOL    HW221496   4.657   3.787   3.366  0.2019 -1.3627  0.7192
 6938SOL     OW21497   3.937   2.952   3.374  0.0008 -0.3804 -0.1908
 6938SOL    HW121498   3.959   2.922   3.462 -0.6490  1.8435  0.8073
 6938SOL    HW221499   3.925   2.872   3.324 -1.3693 -1.7829  2.1731
 6939SOL     OW21500   3.580   0.167   6.364  0.7446 -0.4073 -0.0456
 6939SOL    HW121501   3.624   0.252   6.361  1.2368 -0.6700 -0.8136
 6939SOL    HW221502   3.510   0.175   6.299  1.0781 -0.7335 -0.4479
 6940SOL     OW21503   6.372   5.627   4.572 -0.1744  0.5037  0.1643
 6940SOL    HW121504   6.304   5.691   4.549 -0.1005  0.6441  0.3394
 6940SOL    HW221505   6.415   5.608   4.488  0.4166  1.3870  0.2518
 6941SOL     OW21506   0.115   5.987   4.414  0.4879  0.2068 -0.2437
 6941SOL    HW121507   0.125   6.061   4.353  0.6088  0.0448 -0.4215
 6941SOL    HW221508   0.036   5.942   4.384 -1.0465  1.6883  1.3761
 6942SOL     OW21509   6.803   1.146   5.278  0.1022 -0.4790 -0.5047
 6942SOL    HW121510   6.777   1.086   5.207 -1.1714 -1.0550  0.4033
 6942SOL    HW221511   6.767   1.230   5.251 -0.1631 -0.6419 -0.6721
 6943SOL     OW21512   2.881   3.518   6.101  0.9449 -0.6600  0.0429
 6943SOL    HW121513   2.906   3.469   6.023  0.8912 -0.4418 -0.1103
 6943SOL    HW221514   2.791   3.491   6.119  0.7978 -0.3552 -0.2412
 6944SOL     OW21515   0.714   1.583   1.090 -0.0110  0.6039  0.7763
 6944SOL    HW121516   0.738   1.620   1.004 -2.2234  3.4209  1.2122
 6944SOL    HW221517   0.738   1.491   1.084  3.1199  1.3909 -1.6023
 6945SOL     OW21518   2.467   0.637   5.767 -0.8243  0.2019 -0.5233
 6945SOL    HW121519   2.441   0.663   5.856  0.6885 -0.0612  0.0129
 6945SOL    HW221520   2.388   0.653   5.714 -1.6435  0.6905  0.7878
 6946SOL     OW21521   3.468   2.035   0.865 -0.2423 -0.1823 -0.0501
 6946SOL    HW121522   3.530   2.108   0.866 -0.5286  0.1284 -1.7232
 6946SOL    HW221523   3.393   2.069   0.815 -1.3500 -0.8710  1.0903
 6947SOL     OW21524   0.500   6.507   3.677  0.1370 -0.4560  0.2494
 6947SOL    HW121525   0.408   6.499   3.651  0.7980 -0.1353 -2.5270
 6947SOL    HW221526   0.506   6.593   3.718 -0.4293  0.5265 -1.6273
 6948SOL     OW21527   3.284   2.010   0.456 -0.7132  0.2848  0.1200
 6948SOL    HW121528   3.290   1.917   0.435  0.5445  0.6113 -1.1962
 6948SOL    HW221529   3.246   2.049   0.377 -0.1624  1.0153  0.2079
 6949SOL     OW21530   2.502   3.315   5.775 -0.4137 -0.3165  0.5679
 6949SOL    HW121531   2.520   3.397   5.821  0.6690  0.6493 -1.4594
 6949SOL    HW221532   2.589   3.279   5.755 -0.7730 -0.0540 -1.7441
 6950SOL     OW21533   4.582   0.072   3.811 -0.1359 -0.9704  0.4368
 6950SOL    HW121534   4.621   0.027   3.736  0.1009 -0.4061  0.2160
 6950SOL    HW221535   4.640   0.051   3.884  0.1119 -0.8178  0.2836
 6951SOL     OW21536   2.395   4.652   2.873  0.3567  0.3813  0.2825
 6951SOL    HW121537   2.467   4.632   2.814  1.9179  2.7404  1.2122
 6951SOL    HW221538   2.417   4.607   2.954 -0.7812 -1.2659 -0.2793
 6952SOL     OW21539   1.262   5.466   1.799  0.2704 -0.2687 -0.2519
 6952SOL    HW121540   1.231   5.556   1.786 -2.0433 -0.8409  0.8315
 6952SOL    HW221541   1.203   5.412   1.746  0.1839 -1.3148  0.8571
 6953SOL     OW21542   5.125   4.092   3.452  0.5510  0.2565  0.5172
 6953SOL    HW121543   5.108   4.011   3.404  0.8883 -0.1052  0.9895
 6953SOL    HW221544   5.127   4.160   3.385  1.5405 -0.3076 -0.0643
 6954SOL     OW21545   2.644   0.726   3.722 -0.3818 -0.0162 -0.1580
 6954SOL    HW121546   2.738   0.729   3.702 -0.0721 -0.7250  1.0944
 6954SOL    HW221547   2.630   0.802   3.779 -0.6559  0.2733 -0.5967
 6955SOL     OW21548   4.819   1.040   3.234 -0.1272  0.0166  0.1246
 6955SOL    HW121549   4.787   1.130   3.243 -0.4814  0.4530 -3.7522
 6955SOL    HW221550   4.754   0.987   3.279 -0.9215  1.5576  0.8715
 6956SOL     OW21551   2.082   4.777   3.263 -0.1940 -0.6401  0.6192
 6956SOL    HW121552   2.160   4.792   3.317 -0.3464 -0.2653  0.7434
 6956SOL    HW221553   2.082   4.850   3.201  0.2489 -1.3352 -0.2112
 6957SOL     OW21554   1.761   6.704   6.714 -0.2881 -0.0709  0.0707
 6957SOL    HW121555   1.817   6.724   6.639 -0.7692  1.7492  0.1489
 6957SOL    HW221556   1.808   6.739   6.789  0.6304 -2.6783  0.8399
 6958SOL     OW21557   6.691   4.775   3.898 -0.5459 -0.7336  0.2228
 6958SOL    HW121558   6.617   4.745   3.845 -0.8604  0.0988  0.1699
 6958SOL    HW221559   6.701   4.868   3.875  0.3780 -0.7793  0.3955
 6959SOL     OW21560   0.643   3.365   2.617 -0.0242  0.4394  0.0470
 6959SOL    HW121561   0.643   3.390   2.709  1.0126  3.5928 -0.6984
 6959SOL    HW221562   0.727   3.322   2.603 -0.0369  0.2783  0.4560
 6960SOL     OW21563   1.797   2.984   4.524  0.8101 -0.0911  0.4130
 6960SOL    HW121564   1.730   2.928   4.564 -0.0950  1.2168  0.8035
 6960SOL    HW221565   1.787   3.068   4.568  1.6072  0.6178 -0.7097
 6961SOL     OW21566   0.760   2.034   3.687 -0.2459 -0.8919  0.1210
 6961SOL    HW121567   0.841   1.984   3.701  0.3738  0.0144 -0.1564
 6961SOL    HW221568   0.781   2.093   3.614 -0.5349  0.6787  1.2595
 6962SOL     OW21569   2.631   3.492   5.078  0.6661  0.4519 -0.0269
 6962SOL    HW121570   2.545   3.465   5.111 -0.0407  0.8573 -1.4894
 6962SOL    HW221571   2.668   3.545   5.149 -0.0515 -0.1560  0.8276
 6963SOL     OW21572   1.286   4.229   1.105  0.3485 -0.0865 -0.6876
 6963SOL    HW121573   1.308   4.169   1.034  1.3275  0.1545 -0.5984
 6963SOL    HW221574   1.252   4.173   1.174 -1.9280 -0.2159 -1.7876
 6964SOL     OW21575   4.329   0.966   5.051 -0.0153 -0.7375  0.0232
 6964SOL    HW121576   4.372   0.951   4.967 -0.9659  0.4233 -0.7081
 6964SOL    HW221577   4.290   0.881   5.074 -1.6213 -0.5634 -1.8327
 6965SOL     OW21578   1.830   3.245   3.868  0.1824 -0.2807  0.0359
 6965SOL    HW121579   1.792   3.263   3.782 -0.1278 -2.1283 -0.2636
 6965SOL    HW221580   1.862   3.155   3.861 -0.2527 -0.6326  1.9942
 6966SOL     OW21581   6.374   4.297   1.736  0.3061  0.0879 -0.0703
 6966SOL    HW121582   6.312   4.336   1.675 -0.8551 -1.1310  0.2838
 6966SOL    HW221583   6.389   4.209   1.701  0.9107 -0.0459  0.5075
 6967SOL     OW21584   5.470   2.892   4.975  0.2657  0.0570 -0.4852
 6967SOL    HW121585   5.437   2.802   4.975 -2.0945  0.8536 -0.7401
 6967SOL    HW221586   5.464   2.920   5.067 -0.4052  0.3887 -0.6190
 6968SOL     OW21587   4.551   6.160   4.453 -0.1706 -0.1478 -0.0469
 6968SOL    HW121588   4.527   6.242   4.410  1.1357  2.0135  3.0038
 6968SOL    HW221589   4.469   6.110   4.455 -1.4981  1.8559 -0.3940
 6969SOL     OW21590   2.378   6.379   0.584  0.0726 -0.6743 -0.4136
 6969SOL    HW121591   2.457   6.432   0.583  0.7346 -1.6034  0.2767
 6969SOL    HW221592   2.394   6.313   0.652 -1.4376 -0.6719 -0.0151
 6970SOL     OW21593   6.853   2.526   1.117 -0.9611 -0.4042  0.2361
 6970SOL    HW121594   6.933   2.519   1.065 -0.5993 -0.6451  0.8083
 6970SOL    HW221595   6.861   2.456   1.183 -0.5800  0.9497  1.7000
 6971SOL     OW21596   5.444   3.288   2.842 -0.1317 -0.1423 -0.0933
 6971SOL    HW121597   5.504   3.222   2.807 -2.0799 -1.9459 -0.2168
 6971SOL    HW221598   5.363   3.275   2.793 -0.8163  1.8516  0.4336
 6972SOL     OW21599   4.749   3.579   2.850 -0.7354 -0.1564  0.3706
 6972SOL    HW121600   4.823   3.636   2.828 -0.9089 -0.6087 -1.6309
 6972SOL    HW221601   4.786   3.513   2.909  0.8677 -1.1548 -1.5835
 6973SOL     OW21602   3.061   1.924   4.899 -0.2080 -0.2435  0.2017
 6973SOL    HW121603   3.129   1.856   4.903  0.8046  0.4077 -3.1391
 6973SOL    HW221604   2.993   1.887   4.844 -0.2458  0.9587 -0.5845
 6974SOL     OW21605   3.613   2.207   2.427 -0.1989  0.4847 -0.4702
 6974SOL    HW121606   3.648   2.154   2.499  0.7497 -1.3551 -2.1638
 6974SOL    HW221607   3.690   2.252   2.391 -0.5846  1.0185 -0.6389
 6975SOL     OW21608   2.351   5.164   1.845 -0.1667  0.2743 -0.3772
 6975SOL    HW121609   2.336   5.258   1.853  0.1554  0.3096 -0.1513
 6975SOL    HW221610   2.314   5.127   1.926  1.1950  0.3951  0.3293
 6976SOL     OW21611   5.332   3.774   4.546 -0.1732  0.3291 -0.1940
 6976SOL    HW121612   5.288   3.718   4.609 -1.0519  1.7935  0.5636
 6976SOL    HW221613   5.302   3.742   4.461 -0.9393 -0.1169  0.2316
 6977SOL     OW21614   4.739   0.646   3.407 -0.0874 -0.0304 -0.0261
 6977SOL    HW121615   4.718   0.730   3.368  0.1041  0.0904  0.1290
 6977SOL    HW221616   4.831   0.631   3.383  0.0101  0.0106  0.3139
 6978SOL     OW21617   6.415   6.745   6.574  0.7071  0.6069 -0.3063
 6978SOL    HW121618   6.400   6.833   6.539 -1.9518  0.4644  0.3080
 6978SOL    HW221619   6.407   6.754   6.669 -0.5353 -0.4166 -0.2845
 6979SOL     OW21620   5.392   4.879   0.076 -0.6897  0.3204 -0.0400
 6979SOL    HW121621   5.389   4.973   0.060  2.1390  0.3530 -0.9251
 6979SOL    HW221622   5.321   4.843   0.023 -0.0560  1.7606 -2.0122
 6980SOL     OW21623   6.877   5.655   6.714 -0.2073 -0.0927 -0.2152
 6980SOL    HW121624   6.951   5.701   6.674 -2.3972  1.0431 -3.3290
 6980SOL    HW221625   6.823   5.725   6.751 -0.7321 -0.7119  0.2093
 6981SOL     OW21626   4.705   5.412   1.117  0.2383 -0.3787  0.1959
 6981SOL    HW121627   4.688   5.323   1.150  0.7580 -0.8649 -0.8015
 6981SOL    HW221628   4.795   5.408   1.085 -0.2102  0.0971 -1.1895
 6982SOL     OW21629   3.925   5.205   0.175 -0.0608  0.1241 -0.2628
 6982SOL    HW121630   3.934   5.301   0.173 -1.2334  0.2490 -0.2399
 6982SOL    HW221631   3.984   5.177   0.245  0.5434  0.7954 -0.4918
 6983SOL     OW21632   4.573   4.601   2.684 -0.3050  0.8036 -0.4359
 6983SOL    HW121633   4.630   4.534   2.647 -0.4549  0.3963  0.0760
 6983SOL    HW221634   4.622   4.637   2.758  0.1720  1.9094 -1.2422
 6984SOL     OW21635   4.221   5.336   5.112  0.0432  0.4473  0.2961
 6984SOL    HW121636   4.138   5.381   5.096  0.3701  1.4159  1.1929
 6984SOL    HW221637   4.269   5.396   5.169  0.9570 -0.5515  0.5884
 6985SOL     OW21638   5.326   3.249   5.639  0.1617  0.3726  0.1068
 6985SOL    HW121639   5.264   3.178   5.622 -0.2373  0.8006 -0.2461
 6985SOL    HW221640   5.353   3.236   5.730  0.2591 -0.3591 -0.0196
 6986SOL     OW21641   1.599   2.752   6.200 -0.1643  0.1199 -0.4939
 6986SOL    HW121642   1.561   2.699   6.271 -0.6417 -1.0792 -1.6046
 6986SOL    HW221643   1.656   2.814   6.245 -2.7773  1.4910  1.2074
 6987SOL     OW21644   1.650   6.053   0.539 -0.5510 -0.0189 -0.5001
 6987SOL    HW121645   1.582   6.096   0.488 -0.4802 -0.3136 -0.8432
 6987SOL    HW221646   1.723   6.115   0.540 -0.7936  0.2684 -0.1885
 6988SOL     OW21647   4.132   1.578   3.717 -0.5000  0.8874 -0.1992
 6988SOL    HW121648   4.128   1.486   3.690  2.6879  0.8478 -0.9554
 6988SOL    HW221649   4.084   1.625   3.649 -4.6121 -0.2919  1.6163
 6989SOL     OW21650   5.157   1.742   3.722 -0.1479  0.1203 -0.0596
 6989SOL    HW121651   5.107   1.688   3.784  0.4551 -0.9450 -0.4800
 6989SOL    HW221652   5.246   1.708   3.727 -0.1258 -0.1235 -1.6599
 6990SOL     OW21653   3.865   6.447   1.892 -0.5308  0.4024 -0.1037
 6990SOL    HW121654   3.886   6.375   1.832 -0.7066 -0.2868  0.6387
 6990SOL    HW221655   3.896   6.525   1.848  0.9745 -0.2833 -0.3045
 6991SOL     OW21656   2.082   5.508   0.082 -0.0559 -0.1264  0.2668
 6991SOL    HW121657   2.130   5.485   0.002  0.8317  0.8706  0.4949
 6991SOL    HW221658   1.990   5.498   0.058  0.1866  0.3396 -0.9546
 6992SOL     OW21659   6.415   4.274   1.021 -0.6653 -0.7280 -0.2384
 6992SOL    HW121660   6.404   4.230   1.105  0.5412 -0.1529  0.2309
 6992SOL    HW221661   6.334   4.325   1.010 -1.2900 -1.6282  0.0574
 6993SOL     OW21662   6.115   0.247   5.902  0.0718  0.7478  0.5778
 6993SOL    HW121663   6.108   0.158   5.937  0.1437  0.0441 -1.0952
 6993SOL    HW221664   6.042   0.294   5.941 -0.7375 -0.4050  0.5033
 6994SOL     OW21665   0.589   4.441   1.388 -0.3783 -0.1407  0.2594
 6994SOL    HW121666   0.646   4.476   1.319 -1.6272  0.1102 -0.6874
 6994SOL    HW221667   0.642   4.444   1.467  1.1027 -0.4353 -0.6854
 6995SOL     OW21668   0.101   6.441   3.182  0.1018  0.0424  0.0004
 6995SOL    HW121669   0.105   6.451   3.277 -0.3738 -2.2245  0.3106
 6995SOL    HW221670   0.085   6.348   3.168 -0.8963  0.4820 -2.2834
 6996SOL     OW21671   3.398   5.454   2.642  0.5458  0.7402 -0.3817
 6996SOL    HW121672   3.474   5.467   2.700  1.4484  0.4343 -1.4467
 6996SOL    HW221673   3.327   5.502   2.684  0.6490 -0.9572  1.9546
 6997SOL     OW21674   4.665   5.766   1.755 -0.0173  0.5550  0.1029
 6997SOL    HW121675   4.629   5.722   1.832 -0.3583  0.9268  0.1597
 6997SOL    HW221676   4.718   5.837   1.791  1.0918 -0.1983  0.0338
 6998SOL     OW21677   2.359   0.802   0.714  0.2629  0.1971 -0.5329
 6998SOL    HW121678   2.415   0.879   0.718  0.0393  0.3117  0.8792
 6998SOL    HW221679   2.301   0.818   0.639 -1.3365  2.5198  1.0461
 6999SOL     OW21680   6.362   2.155   1.181 -0.3766  0.7524  0.1598
 6999SOL    HW121681   6.393   2.068   1.157 -0.7218  0.5348  0.4973
 6999SOL    HW221682   6.389   2.166   1.272  2.1635  2.1280 -0.6561
 7000SOL     OW21683   2.240   6.648   6.186 -0.1369  0.4653 -0.1426
 7000SOL    HW121684   2.237   6.709   6.112  2.0190 -1.2201 -1.7715
 7000SOL    HW221685   2.257   6.562   6.146  1.3694 -0.4973  2.2978
 7001SOL     OW21686   6.165   3.022   2.007  0.1171  0.4167  0.1773
 7001SOL    HW121687   6.168   3.069   2.090 -0.3083 -0.4337  0.6790
 7001SOL    HW221688   6.177   2.930   2.030 -0.7379  0.0927 -0.6268
 7002SOL     OW21689   1.359   3.404   5.674  0.1095  0.2225  0.9011
 7002SOL    HW121690   1.299   3.359   5.734 -0.5452 -0.5121 -0.2498
 7002SOL    HW221691   1.382   3.337   5.610  1.0264  0.9058  0.5040
 7003SOL     OW21692   5.667   5.110   4.144  0.3817  0.0062  0.3053
 7003SOL    HW121693   5.679   5.167   4.068  0.1810 -0.9657 -0.4679
 7003SOL    HW221694   5.699   5.024   4.116  1.6685 -0.0592  1.7871
 7004SOL     OW21695   4.301   0.020   3.929  0.2837  0.1679  0.1146
 7004SOL    HW121696   4.370   0.073   3.889  0.5239 -0.1723  0.0804
 7004SOL    HW221697   4.334  -0.069   3.927 -1.0433 -0.3425 -1.8533
 7005SOL     OW21698   1.316   3.385   2.428 -0.2594  0.3686 -0.2414
 7005SOL    HW121699   1.400   3.413   2.466  0.1120  1.9979 -2.0976
 7005SOL    HW221700   1.340   3.338   2.348 -1.0966  0.9568 -0.8602
 7006SOL     OW21701   3.281   0.073   6.708 -0.0231  0.4371  0.1652
 7006SOL    HW121702   3.236   0.081   6.624  1.2211  0.4836 -0.5216
 7006SOL    HW221703   3.212   0.050   6.770 -1.4875  3.1267 -0.2962
 7007SOL     OW21704   2.432   0.199   4.305  0.0910  0.6022  0.0179
 7007SOL    HW121705   2.402   0.156   4.225 -2.2875  0.3828  0.9469
 7007SOL    HW221706   2.357   0.194   4.365  1.5244  1.4443  1.9968
 7008SOL     OW21707   5.445   6.187   3.544  0.0069  0.3695  0.3478
 7008SOL    HW121708   5.437   6.248   3.471  1.8306  0.8682  0.5292
 7008SOL    HW221709   5.387   6.223   3.612  0.3155  1.3582  0.0997
 7009SOL     OW21710   3.480   0.350   4.505 -0.3257 -0.3273 -0.0603
 7009SOL    HW121711   3.404   0.360   4.562 -0.7469 -0.7110 -0.5473
 7009SOL    HW221712   3.523   0.435   4.509 -0.3321 -0.3562  0.8443
 7010SOL     OW21713   1.622   5.387   1.355  0.4545  0.4249 -0.4984
 7010SOL    HW121714   1.628   5.300   1.316  1.1729  0.6239 -0.8570
 7010SOL    HW221715   1.698   5.434   1.320  0.0992  1.1816 -0.2748
 7011SOL     OW21716   2.557   0.130   3.144  0.4056 -0.4296  0.1999
 7011SOL    HW121717   2.574   0.112   3.051 -2.1719 -2.0622 -0.0728
 7011SOL    HW221718   2.518   0.049   3.177  0.2022  0.5095  2.4278
 7012SOL     OW21719   4.948   2.160   1.997  0.8009  0.0567  0.1935
 7012SOL    HW121720   4.896   2.106   1.938  0.3883  1.8887 -1.2394
 7012SOL    HW221721   4.997   2.219   1.939 -0.6659  2.8832  1.6015
 7013SOL     OW21722   6.134   3.117   4.696  0.1050 -0.1664  0.0115
 7013SOL    HW121723   6.207   3.093   4.753  0.5039 -0.4818 -0.6227
 7013SOL    HW221724   6.175   3.145   4.614 -0.4439  0.6897  0.0128
 7014SOL     OW21725   4.304   0.278   1.684  0.6255  0.8038 -0.0848
 7014SOL    HW121726   4.311   0.366   1.721 -1.1810 -0.1813  2.9556
 7014SOL    HW221727   4.211   0.257   1.692  1.1261 -1.6268 -0.0721
 7015SOL     OW21728   1.177   1.709   3.980  0.2753  0.0885  0.3524
 7015SOL    HW121729   1.223   1.700   3.897 -0.4161 -0.6235  0.0357
 7015SOL    HW221730   1.141   1.623   3.997  1.7571 -0.2383  2.2184
 7016SOL     OW21731   4.668   1.233   6.435  0.0885 -0.0649 -0.2414
 7016SOL    HW121732   4.666   1.324   6.464  1.3706 -0.8908  2.7419
 7016SOL    HW221733   4.755   1.221   6.397 -0.0112 -0.1255 -0.4571
 7017SOL     OW21734   5.414   4.275   5.586 -0.0770 -0.2130 -0.5972
 7017SOL    HW121735   5.436   4.362   5.554  0.4840 -0.6054 -1.3350
 7017SOL    HW221736   5.448   4.216   5.518 -0.1657 -1.0135  0.0405
 7018SOL     OW21737   0.608   6.745   0.244  0.2390  0.1530 -0.6622
 7018SOL    HW121738   0.623   6.740   0.150  1.4336 -1.3423 -0.4210
 7018SOL    HW221739   0.623   6.656   0.276  0.2524  0.7161  0.9926
 7019SOL     OW21740   3.503   6.198   3.726 -0.3623  0.0434  0.1677
 7019SOL    HW121741   3.437   6.227   3.663 -0.0902 -1.9907 -1.1383
 7019SOL    HW221742   3.568   6.268   3.727 -0.3985  0.1712 -1.8097
 7020SOL     OW21743   5.386   1.699   5.775  0.0264  0.6805 -0.4167
 7020SOL    HW121744   5.446   1.774   5.774  1.6133 -0.5157  0.1137
 7020SOL    HW221745   5.407   1.652   5.856 -2.6836  0.9625  0.5576
 7021SOL     OW21746   3.227   3.643   1.553 -0.1156  0.5097 -0.1549
 7021SOL    HW121747   3.224   3.719   1.495 -1.6070  1.6794  1.3358
 7021SOL    HW221748   3.164   3.581   1.515 -0.1460  0.7217 -0.4535
 7022SOL     OW21749   5.780   4.788   6.202 -0.6828  0.1982  0.1406
 7022SOL    HW121750   5.764   4.880   6.179 -0.0732  0.9740  2.5174
 7022SOL    HW221751   5.789   4.744   6.118  2.2635  2.8819 -1.1608
 7023SOL     OW21752   4.185   2.415   6.128  0.4321 -0.2522 -0.1261
 7023SOL    HW121753   4.250   2.346   6.140  2.7783  1.7835 -0.1483
 7023SOL    HW221754   4.159   2.439   6.217 -0.8691 -1.5169 -0.1343
 7024SOL     OW21755   5.293   5.863   6.200  0.2481  0.0142 -0.1211
 7024SOL    HW121756   5.299   5.806   6.276  0.2967 -0.1980 -0.2842
 7024SOL    HW221757   5.378   5.855   6.157  2.5964  4.4176  2.8433
 7025SOL     OW21758   1.956   0.163   1.997  0.0485 -0.3481 -0.1375
 7025SOL    HW121759   1.891   0.233   1.988  1.1123  0.8514  1.0157
 7025SOL    HW221760   2.011   0.171   1.919  1.2395  1.3236  0.8118
 7026SOL     OW21761   2.478   6.728   4.218  0.0325 -0.1585 -0.8958
 7026SOL    HW121762   2.497   6.636   4.202  0.0919 -0.0775 -1.3087
 7026SOL    HW221763   2.562   6.766   4.244 -0.3340 -0.5840  1.0901
 7027SOL     OW21764   6.176   4.877   5.290  0.0306 -0.1339  0.2936
 7027SOL    HW121765   6.169   4.945   5.357 -1.3124 -0.8642  0.9406
 7027SOL    HW221766   6.230   4.916   5.222 -0.3889  1.4332  0.8150
 7028SOL     OW21767   1.487   2.402   0.796  0.0866  0.0264 -0.2826
 7028SOL    HW121768   1.446   2.410   0.710 -1.2172 -3.2722 -0.0917
 7028SOL    HW221769   1.578   2.382   0.778 -0.0889 -0.2516 -0.8832
 7029SOL     OW21770   4.544   6.792   1.229 -0.4120 -0.3983  0.1354
 7029SOL    HW121771   4.614   6.854   1.250 -1.4017  0.2603  1.6873
 7029SOL    HW221772   4.514   6.818   1.142  0.2734  0.2816  0.0922
 7030SOL     OW21773   0.664   4.125   3.245 -0.0876 -0.1789 -0.0191
 7030SOL    HW121774   0.597   4.124   3.313  1.2805  0.4851  1.4004
 7030SOL    HW221775   0.735   4.071   3.279  1.2600  1.3865 -0.1611
 7031SOL     OW21776   0.086   0.173   3.293  0.2976 -0.0681 -0.4591
 7031SOL    HW121777   0.129   0.088   3.308  1.3072  0.5849  0.5123
 7031SOL    HW221778   0.003   0.151   3.250 -0.3167 -1.7125  1.3956
 7032SOL     OW21779   2.195   3.393   1.680  1.0260 -0.1491  0.7033
 7032SOL    HW121780   2.200   3.326   1.748  0.0944 -0.8473  0.1026
 7032SOL    HW221781   2.136   3.459   1.715  1.0437 -0.2009  0.8288
 7033SOL     OW21782   6.723   1.027   5.031  0.3588 -0.3330 -0.3411
 7033SOL    HW121783   6.806   0.998   4.993  0.5272  2.1937 -2.1148
 7033SOL    HW221784   6.672   0.946   5.041  2.7982 -1.8903  0.3602
 7034SOL     OW21785   1.661   0.309   6.645  0.5206 -0.2435  0.0548
 7034SOL    HW121786   1.678   0.403   6.640  0.8776 -0.3374 -0.8287
 7034SOL    HW221787   1.748   0.270   6.657  0.2984 -0.4244  1.1105
 7035SOL     OW21788   4.252   0.762   5.852 -0.8899  0.1073 -0.0479
 7035SOL    HW121789   4.247   0.858   5.855  0.0499  0.2114 -1.0084
 7035SOL    HW221790   4.269   0.743   5.760 -1.0468 -0.9945  0.1453
 7036SOL     OW21791   0.499   0.736   1.855  0.2716  0.1259  0.0752
 7036SOL    HW121792   0.560   0.794   1.902 -0.0093 -0.8234  1.6788
 7036SOL    HW221793   0.445   0.795   1.803  1.4208  1.1227 -0.0278
 7037SOL     OW21794   4.862   6.520   6.364 -0.1856  0.2892  0.3548
 7037SOL    HW121795   4.831   6.588   6.424 -2.1697  0.6500 -0.9718
 7037SOL    HW221796   4.831   6.438   6.402 -1.2231  0.4952 -0.0228
 7038SOL     OW21797   5.625   4.485   6.279  0.0819  0.6855  0.0210
 7038SOL    HW121798   5.609   4.531   6.197  0.0587  1.2718  0.3536
 7038SOL    HW221799   5.615   4.551   6.347 -2.5978 -0.3285  0.7435
 7039SOL     OW21800   3.801   6.682   6.127 -0.0695  0.3921 -0.0355
 7039SOL    HW121801   3.897   6.676   6.131  0.0087  0.8232 -0.8373
 7039SOL    HW221802   3.784   6.718   6.040 -1.0052 -0.4251 -0.2060
 7040SOL     OW21803   3.384   6.805   4.749 -0.2622 -0.0116 -0.1577
 7040SOL    HW121804   3.323   6.870   4.714 -1.1641 -0.2577  0.9058
 7040SOL    HW221805   3.335   6.760   4.818  0.7408 -1.0198 -0.0706
 7041SOL     OW21806   1.929   0.738   2.107 -0.3211  0.1272 -0.2833
 7041SOL    HW121807   1.998   0.674   2.089  0.5508  1.2531 -1.1036
 7041SOL    HW221808   1.951   0.772   2.194  1.4060  1.9343 -1.3471
 7042SOL     OW21809   5.726   2.526   1.434 -0.2104 -0.3768 -0.1132
 7042SOL    HW121810   5.817   2.508   1.408  0.9548  3.9552  0.1863
 7042SOL    HW221811   5.673   2.482   1.367  2.2108 -0.9805 -1.7734
 7043SOL     OW21812   5.130   2.372   5.887 -0.1807  0.6742 -0.0137
 7043SOL    HW121813   5.205   2.322   5.919 -0.0743 -0.8515 -2.3906
 7043SOL    HW221814   5.164   2.461   5.875  1.6156 -0.2075 -2.0022
 7044SOL     OW21815   4.835   3.125   6.443 -0.2132  0.5736  0.3907
 7044SOL    HW121816   4.795   3.075   6.372  1.4597  0.2770 -0.3784
 7044SOL    HW221817   4.767   3.127   6.511 -1.7069  0.5198 -1.0290
 7045SOL     OW21818   0.101   1.539   3.561  0.7540  0.2719 -0.5628
 7045SOL    HW121819   0.088   1.623   3.604  0.4207  1.3430 -2.6451
 7045SOL    HW221820   0.196   1.526   3.560  0.9152  1.3770 -1.5415
 7046SOL     OW21821   4.984   5.609   0.211  0.1199  0.4798  0.5390
 7046SOL    HW121822   4.930   5.575   0.140 -0.7292  2.1548  0.3450
 7046SOL    HW221823   4.960   5.555   0.287 -1.0757  0.5191  0.2093
 7047SOL     OW21824   6.382   6.616   5.693  0.2227  0.0508  0.0923
 7047SOL    HW121825   6.395   6.655   5.779  0.8159  2.4643 -1.0045
 7047SOL    HW221826   6.446   6.660   5.637 -0.7071 -0.8444 -1.7542
 7048SOL     OW21827   2.962   6.236   1.563 -0.1881 -0.0533  0.3905
 7048SOL    HW121828   2.895   6.256   1.628  0.7909  1.5234  0.9742
 7048SOL    HW221829   3.028   6.305   1.575  1.2592 -1.2273 -0.5362
 7049SOL     OW21830   4.537   3.587   1.055 -0.3682  0.1537 -0.1465
 7049SOL    HW121831   4.516   3.678   1.075  0.5262  0.1387  0.9666
 7049SOL    HW221832   4.537   3.543   1.140 -0.9778 -0.9387 -0.6948
 7050SOL     OW21833   1.059   5.718   5.108 -0.0154 -0.3699  0.4141
 7050SOL    HW121834   1.117   5.739   5.034 -0.4679 -0.7822 -0.0658
 7050SOL    HW221835   1.109   5.654   5.159 -0.6311 -1.9248 -0.8358
 7051SOL     OW21836   1.411   1.717   2.900  0.3699  0.2593 -0.4894
 7051SOL    HW121837   1.432   1.727   2.807  1.5042  2.3948 -0.0753
 7051SOL    HW221838   1.473   1.775   2.945 -1.4375  0.8311  1.4347
 7052SOL     OW21839   1.091   5.261   1.398  0.1842  0.0417 -0.1229
 7052SOL    HW121840   1.117   5.172   1.375  1.0661 -0.2073  1.6293
 7052SOL    HW221841   1.171   5.303   1.429 -0.4705  1.0027  0.3501
 7053SOL     OW21842   4.134   3.932   5.798  0.6279 -0.1838  0.2203
 7053SOL    HW121843   4.146   3.913   5.705  0.7920  0.7175  0.0455
 7053SOL    HW221844   4.046   3.968   5.804  0.8008  0.2396  0.3198
 7054SOL     OW21845   5.678   2.427   5.902 -0.3178  0.4760  0.1245
 7054SOL    HW121846   5.666   2.334   5.882 -0.2932  0.1476  1.5270
 7054SOL    HW221847   5.772   2.438   5.910 -0.1766  1.0465 -1.8119
 7055SOL     OW21848   4.499   4.998   2.236  0.7414  0.5392 -0.2184
 7055SOL    HW121849   4.437   5.046   2.181 -1.2593  0.0365  1.4586
 7055SOL    HW221850   4.499   5.046   2.319  2.4190  0.3302 -0.0537
 7056SOL     OW21851   0.490   1.598   0.601  0.2326  0.0325  0.3331
 7056SOL    HW121852   0.414   1.539   0.598  0.0027  0.3752 -1.2025
 7056SOL    HW221853   0.452   1.686   0.592  0.7125  0.3017  0.8987
 7057SOL     OW21854   1.822   6.670   1.969  0.6869  0.1546  0.3013
 7057SOL    HW121855   1.782   6.714   1.894  0.5898 -1.4196 -0.6145
 7057SOL    HW221856   1.912   6.701   1.970  0.1856  1.6529  0.7232
 7058SOL     OW21857   4.672   6.804   3.585 -0.3138 -0.8857  0.7610
 7058SOL    HW121858   4.640   6.716   3.601  0.6146 -1.7663 -1.6697
 7058SOL    HW221859   4.690   6.806   3.491  0.9266  1.4776  0.9651
 7059SOL     OW21860   0.181   4.842   5.289 -0.7156  0.3057  0.0609
 7059SOL    HW121861   0.200   4.917   5.233 -0.5647  0.3558  0.1771
 7059SOL    HW221862   0.245   4.776   5.264  0.1133  0.7423  0.9707
 7060SOL     OW21863   0.107   0.727   5.793  0.0506 -0.6398 -0.2132
 7060SOL    HW121864   0.160   0.806   5.787 -1.0208  0.2020  0.8229
 7060SOL    HW221865   0.054   0.727   5.713 -1.0539  0.5567  0.4900
 7061SOL     OW21866   5.732   6.034   1.819 -0.1189  0.2353 -0.1644
 7061SOL    HW121867   5.646   6.039   1.776 -0.6318  0.5556  0.8796
 7061SOL    HW221868   5.744   5.941   1.836 -0.0815  0.1465 -0.6465
 7062SOL     OW21869   5.300   4.249   6.745  0.2823 -0.0455 -0.3479
 7062SOL    HW121870   5.235   4.216   6.683 -0.8555  1.0449  0.2196
 7062SOL    HW221871   5.384   4.218   6.711 -0.6558 -3.9639  0.3903
 7063SOL     OW21872   2.296   6.059   3.767  0.0451  0.5124  0.0265
 7063SOL    HW121873   2.304   6.141   3.718  1.3511 -0.4716 -1.5260
 7063SOL    HW221874   2.252   5.999   3.706  1.1956 -0.5864  0.2300
 7064SOL     OW21875   3.216   1.145   6.358 -0.2198  0.0561 -0.2297
 7064SOL    HW121876   3.125   1.164   6.383 -0.4850 -3.0245  1.6226
 7064SOL    HW221877   3.268   1.205   6.411 -1.0923  1.9355 -1.3810
 7065SOL     OW21878   6.089   3.758   5.692  1.3655 -0.0139  0.2317
 7065SOL    HW121879   6.063   3.835   5.642  0.2452 -0.9420 -0.6810
 7065SOL    HW221880   6.034   3.759   5.770  1.4614  0.1779  0.2976
 7066SOL     OW21881   0.707   1.245   3.622 -0.6098  0.3307  0.0796
 7066SOL    HW121882   0.647   1.170   3.625  2.3107 -2.2176 -0.4772
 7066SOL    HW221883   0.697   1.287   3.708 -0.8261 -2.0083  1.2718
 7067SOL     OW21884   4.890   5.670   2.349  0.8379  0.2399  0.1687
 7067SOL    HW121885   4.876   5.764   2.332  1.7715  0.2924 -0.3694
 7067SOL    HW221886   4.983   5.656   2.332  0.1804 -1.3993 -2.7411
 7068SOL     OW21887   6.273   2.727   1.588 -0.0022  0.5484  0.3007
 7068SOL    HW121888   6.245   2.731   1.496 -0.6503  0.3075  0.4781
 7068SOL    HW221889   6.252   2.814   1.623 -2.2602 -0.1562  0.8909
 7069SOL     OW21890   3.836   4.223   4.936  0.0314 -0.6925  0.0738
 7069SOL    HW121891   3.786   4.282   4.992 -0.9955 -1.5991  0.1306
 7069SOL    HW221892   3.826   4.259   4.848  0.5695 -0.0069  0.2830
 7070SOL     OW21893   6.306   1.926   3.281  0.2192 -0.1557 -0.4376
 7070SOL    HW121894   6.389   1.895   3.247 -0.0725 -1.5385  0.0275
 7070SOL    HW221895   6.243   1.858   3.257 -0.7908  0.8709 -0.8030
 7071SOL     OW21896   3.655   3.584   1.089 -0.3058 -0.2160 -0.0870
 7071SOL    HW121897   3.631   3.516   1.025  0.6707 -0.5695 -0.0881
 7071SOL    HW221898   3.721   3.637   1.044 -0.8048  0.5385  0.0419
 7072SOL     OW21899   2.487   1.885   5.256 -0.3571 -0.0137 -0.4732
 7072SOL    HW121900   2.564   1.887   5.314 -0.5940 -1.3525 -0.0887
 7072SOL    HW221901   2.470   1.978   5.237 -0.6262  0.5264  2.0664
 7073SOL     OW21902   6.587   2.279   0.964 -0.1583 -0.5511  0.2330
 7073SOL    HW121903   6.681   2.280   0.946 -0.3070  0.0553 -0.5791
 7073SOL    HW221904   6.580   2.247   1.054  0.7995 -0.9529  0.1755
 7074SOL     OW21905   2.082   5.871   1.669  0.6453  0.7593  0.2895
 7074SOL    HW121906   2.124   5.813   1.605  0.3858 -0.9409  1.5902
 7074SOL    HW221907   1.989   5.864   1.650  0.5829  0.4068  0.7106
 7075SOL     OW21908   6.431   6.285   6.586  0.3874 -0.6028 -0.1253
 7075SOL    HW121909   6.446   6.292   6.492 -1.5766 -1.0615 -0.5245
 7075SOL    HW221910   6.511   6.319   6.626  0.0657  2.7028 -1.9281
 7076SOL     OW21911   1.400   2.455   4.864  0.7975  0.3821  0.0771
 7076SOL    HW121912   1.371   2.366   4.841  1.5832  0.4305 -1.2065
 7076SOL    HW221913   1.446   2.444   4.947 -0.0218 -0.2304  0.4606
 7077SOL     OW21914   3.630   4.642   5.936  0.5135 -0.5725 -0.3945
 7077SOL    HW121915   3.681   4.603   5.864  1.8195 -1.8873  1.1400
 7077SOL    HW221916   3.548   4.594   5.936 -1.2879  2.1459 -3.4473
 7078SOL     OW21917   5.216   6.823   4.295 -0.6027  0.1685  0.1306
 7078SOL    HW121918   5.300   6.776   4.292 -0.1774  0.9383 -0.4191
 7078SOL    HW221919   5.239   6.909   4.331 -1.5282 -0.3358  2.1073
 7079SOL     OW21920   4.272   4.733   6.326 -0.6107 -0.0136 -0.3244
 7079SOL    HW121921   4.328   4.808   6.348 -0.0786  0.4182 -2.8800
 7079SOL    HW221922   4.199   4.739   6.387  0.1876  1.6662  0.5463
 7080SOL     OW21923   5.018   4.585   1.728  0.4546  0.0442 -0.5174
 7080SOL    HW121924   5.091   4.591   1.789  0.2970 -2.0895 -0.0222
 7080SOL    HW221925   5.052   4.619   1.646  0.9419  2.1619  0.5031
 7081SOL     OW21926   1.243   0.795   4.232  0.4537 -0.5051 -0.8752
 7081SOL    HW121927   1.187   0.748   4.294  2.7046  1.4641  3.0489
 7081SOL    HW221928   1.198   0.878   4.218  1.7765  0.7234  1.5876
 7082SOL     OW21929   1.674   3.261   5.402  0.7755  0.5917  0.6539
 7082SOL    HW121930   1.717   3.335   5.446  0.8214 -0.7689  3.0911
 7082SOL    HW221931   1.602   3.238   5.461  2.5057 -3.1082  1.5888
 7083SOL     OW21932   5.679   6.785   2.464  0.7720 -0.0697 -0.0060
 7083SOL    HW121933   5.714   6.718   2.404 -0.2101 -0.1593 -0.5040
 7083SOL    HW221934   5.629   6.735   2.528  1.5341  0.0581  0.7024
 7084SOL     OW21935   3.387   1.686   5.906  0.4162 -0.1042  0.1119
 7084SOL    HW121936   3.295   1.708   5.914  0.1721 -0.0477 -2.1036
 7084SOL    HW221937   3.422   1.753   5.847  1.4941 -1.0640 -0.3780
 7085SOL     OW21938   4.005   5.495   5.077  0.1821 -0.2160 -0.7613
 7085SOL    HW121939   4.017   5.498   5.172 -1.9935 -0.5685 -0.4134
 7085SOL    HW221940   3.941   5.564   5.059  1.9416  1.1146 -2.2692
 7086SOL     OW21941   5.492   5.163   4.634 -0.0042  0.0968  0.5846
 7086SOL    HW121942   5.410   5.140   4.678 -1.4990 -0.7909 -2.3578
 7086SOL    HW221943   5.487   5.258   4.621  0.6901  0.4521  2.6059
 7087SOL     OW21944   5.357   4.040   4.474  0.4573  0.0412  0.0121
 7087SOL    HW121945   5.451   4.035   4.456  0.3302  0.0762 -0.6871
 7087SOL    HW221946   5.333   3.950   4.497  1.2842  0.5813  3.5761
 7088SOL     OW21947   2.830   3.393   3.154  0.6646  0.8305  0.3255
 7088SOL    HW121948   2.905   3.429   3.106  0.4154  0.6305 -0.2192
 7088SOL    HW221949   2.841   3.298   3.147 -0.8048  0.7344 -1.6796
 7089SOL     OW21950   4.017   4.808   3.039 -0.5455 -0.4281 -0.4615
 7089SOL    HW121951   3.945   4.864   3.068 -0.5143 -0.1224 -0.9655
 7089SOL    HW221952   4.096   4.862   3.050 -0.4917 -0.4448 -0.7428
 7090SOL     OW21953   5.898   2.415   2.930  0.1910  0.0516  0.1746
 7090SOL    HW121954   5.947   2.497   2.935  0.3816 -0.0584  0.0991
 7090SOL    HW221955   5.946   2.354   2.986 -2.2503  1.1333  3.8209
 7091SOL     OW21956   3.768   4.087   3.866 -0.0433  0.1214 -0.2377
 7091SOL    HW121957   3.857   4.115   3.847  0.0710  0.2638  0.5042
 7091SOL    HW221958   3.777   3.997   3.897  0.0782  0.8072  1.8453
 7092SOL     OW21959   1.172   3.363   0.672  0.3611  1.3317  0.0621
 7092SOL    HW121960   1.103   3.319   0.722  1.3497  1.1398  1.3062
 7092SOL    HW221961   1.248   3.305   0.681  1.1448  2.3415  0.1241
 7093SOL     OW21962   2.115   2.489   3.196  0.5097 -0.7549  0.4642
 7093SOL    HW121963   2.054   2.537   3.251  0.9681 -1.3903  1.5632
 7093SOL    HW221964   2.064   2.416   3.161  0.0183  0.0682 -0.5858
 7094SOL     OW21965   2.383   2.173   6.863 -0.0574 -0.0092 -0.3513
 7094SOL    HW121966   2.313   2.239   6.864  0.2141  0.3353  2.1821
 7094SOL    HW221967   2.337   2.090   6.877 -0.0117  0.3618  3.0032
 7095SOL     OW21968   1.395   5.810   6.511  0.0424  0.9460 -0.4328
 7095SOL    HW121969   1.340   5.811   6.589 -0.2385  0.0763 -0.5972
 7095SOL    HW221970   1.476   5.852   6.538 -0.2315  1.0931  0.1877
 7096SOL     OW21971   1.576   4.785   0.885 -0.2691  0.1684 -0.1554
 7096SOL    HW121972   1.573   4.881   0.882  0.2779  0.2168  0.4239
 7096SOL    HW221973   1.662   4.763   0.848 -0.3422 -0.0899 -0.1715
 7097SOL     OW21974   3.608   6.306   4.525 -0.1757  0.2679 -0.0997
 7097SOL    HW121975   3.686   6.361   4.528  0.2137 -0.3157  0.6823
 7097SOL    HW221976   3.636   6.222   4.561 -1.3783  0.3086  1.0123
 7098SOL     OW21977   0.127   5.928   0.810 -0.0764 -0.2012 -0.5592
 7098SOL    HW121978   0.064   5.990   0.774  0.4304  0.6467 -0.0101
 7098SOL    HW221979   0.198   5.927   0.747 -0.2659 -0.5499 -0.7739
 7099SOL     OW21980   5.595   6.324   6.408  0.0632  0.0982 -0.7767
 7099SOL    HW121981   5.688   6.305   6.421 -0.4483 -3.7570 -1.4883
 7099SOL    HW221982   5.570   6.275   6.330 -2.2856  2.3694 -1.6244
 7100SOL     OW21983   0.196   5.521   1.211 -0.0707  0.1856 -0.0004
 7100SOL    HW121984   0.257   5.450   1.193 -0.2891 -0.4320  1.5690
 7100SOL    HW221985   0.126   5.480   1.261 -0.4119  1.4285  0.5650
 7101SOL     OW21986   1.416   4.388   0.001  0.5540  0.7444 -0.3886
 7101SOL    HW121987   1.404   4.466  -0.054 -0.0043 -0.1207 -1.5363
 7101SOL    HW221988   1.328   4.351   0.007  0.3755  1.4381  2.0796
 7102SOL     OW21989   5.192   6.389   6.103 -0.3031  0.3336  0.6131
 7102SOL    HW121990   5.105   6.428   6.097 -0.2446  0.5844  1.3387
 7102SOL    HW221991   5.197   6.330   6.028 -0.7049  1.0931 -0.0300
 7103SOL     OW21992   0.859   0.056   2.842 -0.2117 -0.1842  0.7822
 7103SOL    HW121993   0.824  -0.011   2.783  1.3006 -0.6238  0.3347
 7103SOL    HW221994   0.950   0.029   2.857  0.8271  2.3509 -0.3514
 7104SOL     OW21995   1.492   6.789   6.496 -0.3100 -0.0187 -0.0735
 7104SOL    HW121996   1.489   6.883   6.512  0.5479  0.2014 -1.0578
 7104SOL    HW221997   1.408   6.770   6.453 -1.4149 -0.1241  2.0129
 7105SOL     OW21998   4.970   1.999   4.750  0.4237  0.8216 -0.0729
 7105SOL    HW121999   4.907   1.935   4.717 -0.5201  0.9592  1.3901
 7105SOL    HW222000   5.051   1.949   4.760  0.0902  0.2125 -0.3383
 7106SOL     OW22001   0.742   0.416   4.165  0.1022 -0.4591 -0.5393
 7106SOL    HW122002   0.751   0.329   4.126  0.4318 -0.5636 -0.2376
 7106SOL    HW222003   0.778   0.407   4.253 -3.0037 -0.9083  0.8114
 7107SOL     OW22004   3.994   2.743   3.932  0.0390  0.6766 -0.3272
 7107SOL    HW122005   4.061   2.742   3.863 -2.6612 -0.8460 -3.1572
 7107SOL    HW222006   4.022   2.675   3.993  1.4022  0.5373 -1.0698
 7108SOL     OW22007   2.641   0.349   6.679 -0.2020  0.5724 -0.1174
 7108SOL    HW122008   2.571   0.372   6.618  0.1729  0.9461 -0.4078
 7108SOL    HW222009   2.633   0.255   6.690 -1.2045  0.6992  0.4002
 7109SOL     OW22010   1.575   1.657   5.467 -0.0674 -0.1895 -0.1483
 7109SOL    HW122011   1.608   1.674   5.555 -3.1706 -0.5872  1.2335
 7109SOL    HW222012   1.599   1.566   5.449  0.1473 -0.2686  0.5264
 7110SOL     OW22013   1.881   2.655   2.926 -0.1320  0.0385  0.0910
 7110SOL    HW122014   1.839   2.741   2.920 -0.4119 -0.1212 -0.2580
 7110SOL    HW222015   1.974   2.674   2.931 -0.0136  0.3039 -2.1225
 7111SOL     OW22016   0.508   4.159   3.767 -0.3264  0.2526  0.4390
 7111SOL    HW122017   0.459   4.112   3.835 -2.1852  1.3800 -0.0595
 7111SOL    HW222018   0.519   4.247   3.802  0.0135  0.4333 -0.1202
 7112SOL     OW22019   3.216   6.823   0.519 -0.4592 -0.5708  0.3835
 7112SOL    HW122020   3.222   6.729   0.501 -0.8722 -0.6420  0.5977
 7112SOL    HW222021   3.239   6.865   0.436  1.1614 -0.8330  0.6822
 7113SOL     OW22022   0.844   3.808   2.065 -0.5473  0.0002  0.1227
 7113SOL    HW122023   0.810   3.798   2.154  0.3415  4.0204  1.0829
 7113SOL    HW222024   0.786   3.872   2.023  0.6178  0.2193 -1.2552
 7114SOL     OW22025   6.422   5.487   6.424  0.2281 -0.1009  0.0403
 7114SOL    HW122026   6.486   5.464   6.493 -1.5619 -0.6160  1.6125
 7114SOL    HW222027   6.337   5.482   6.468 -1.1422 -1.8381 -2.5400
 7115SOL     OW22028   5.662   1.532   2.803  0.0308  0.4225 -0.3130
 7115SOL    HW122029   5.751   1.549   2.773 -0.0024  0.6746 -0.2704
 7115SOL    HW222030   5.656   1.578   2.886  0.1608 -0.3618  0.1478
 7116SOL     OW22031   1.264   6.047   0.606  0.1755  0.3972  0.5197
 7116SOL    HW122032   1.304   5.965   0.634  1.4856  0.0730 -1.9791
 7116SOL    HW222033   1.178   6.022   0.574  0.3283  0.0862  0.3486
 7117SOL     OW22034   2.009   5.835   1.942  0.4963  0.1984 -0.1707
 7117SOL    HW122035   1.991   5.747   1.974  1.9462 -0.0515 -0.0109
 7117SOL    HW222036   2.058   5.822   1.861  1.6347  0.8523  0.3991
 7118SOL     OW22037   3.577   0.317   2.821  0.0210  0.2913  0.0417
 7118SOL    HW122038   3.622   0.244   2.779 -0.5401 -0.2768  0.4028
 7118SOL    HW222039   3.646   0.366   2.867  0.2577 -0.6305  0.6895
 7119SOL     OW22040   4.168   2.788   2.919  0.5861 -0.1512  0.4256
 7119SOL    HW122041   4.212   2.759   2.839  0.6089  0.2258  0.3001
 7119SOL    HW222042   4.235   2.782   2.987 -0.2078 -3.3425  1.0523
 7120SOL     OW22043   5.082   0.426   1.782  0.2274  0.1375  0.2391
 7120SOL    HW122044   5.159   0.372   1.800  0.4828  0.8904  1.5178
 7120SOL    HW222045   5.071   0.479   1.861 -0.1399  1.8059 -0.8766
 7121SOL     OW22046   5.673   6.703   3.835 -0.7704  0.1698  0.3417
 7121SOL    HW122047   5.756   6.725   3.793  0.4131 -1.9138  1.4275
 7121SOL    HW222048   5.637   6.787   3.862  1.1877  1.1127  0.2042
 7122SOL     OW22049   5.624   1.125   1.797  0.3813 -0.0582 -0.1733
 7122SOL    HW122050   5.707   1.100   1.836  0.8095  0.6097 -0.6345
 7122SOL    HW222051   5.642   1.208   1.751 -0.1218 -0.7497 -1.6944
 7123SOL     OW22052   6.586   1.369   3.835 -0.2582 -0.2979 -0.2022
 7123SOL    HW122053   6.676   1.393   3.815 -0.8668  0.2569 -2.6457
 7123SOL    HW222054   6.588   1.273   3.845  0.6044 -0.2836 -0.1765
 7124SOL     OW22055   4.301   4.415   4.516  0.6930 -0.3517 -0.1335
 7124SOL    HW122056   4.212   4.420   4.482  0.1569  0.8870  1.3346
 7124SOL    HW222057   4.356   4.406   4.438 -0.6553 -0.4264 -1.1059
 7125SOL     OW22058   2.657   2.001   6.775 -0.1485 -0.0058 -0.0504
 7125SOL    HW122059   2.657   2.097   6.778 -2.0008  0.0532 -0.5961
 7125SOL    HW222060   2.604   1.979   6.698 -0.0527 -1.4705  0.2696
 7126SOL     OW22061   5.296   3.416   3.624 -0.2838  0.1579  0.0365
 7126SOL    HW122062   5.379   3.410   3.577  0.3116 -0.6170  1.1457
 7126SOL    HW222063   5.322   3.429   3.715 -1.3763 -0.4457  0.4453
 7127SOL     OW22064   0.191   2.548   2.575 -0.0016  0.2373  0.1710
 7127SOL    HW122065   0.280   2.527   2.601 -0.4203 -0.5408  1.0088
 7127SOL    HW222066   0.142   2.555   2.657 -1.6216 -3.4726 -0.2918
 7128SOL     OW22067   6.447   5.228   6.219 -0.1002  0.1149 -0.4706
 7128SOL    HW122068   6.421   5.315   6.248 -2.2410 -0.2481 -1.1140
 7128SOL    HW222069   6.419   5.224   6.127 -0.0462 -1.2271 -0.4494
 7129SOL     OW22070   1.895   5.585   2.671 -0.1069 -0.3913  0.2643
 7129SOL    HW122071   1.956   5.521   2.707 -0.3120 -0.0789  1.1830
 7129SOL    HW222072   1.809   5.557   2.703 -0.4015 -0.5309 -0.5947
 7130SOL     OW22073   1.001   3.485   6.035 -0.0272  0.3428  0.2829
 7130SOL    HW122074   1.038   3.518   6.117 -0.6714 -0.4829  0.9257
 7130SOL    HW222075   0.921   3.536   6.023  0.0160  0.3949  0.2139
 7131SOL     OW22076   4.531   6.800   6.373  0.0975 -0.0917 -0.0450
 7131SOL    HW122077   4.554   6.742   6.445 -0.5288 -1.4270 -0.8901
 7131SOL    HW222078   4.445   6.834   6.396 -0.0691 -0.4576 -0.1194
 7132SOL     OW22079   2.882   1.176   1.232 -0.4711  0.3505 -0.1433
 7132SOL    HW122080   2.840   1.093   1.257 -4.2390  0.9887 -3.4115
 7132SOL    HW222081   2.976   1.155   1.231 -1.1790 -3.7100 -0.3093
 7133SOL     OW22082   3.311   4.664   2.683 -0.0338  0.0113 -0.7474
 7133SOL    HW122083   3.284   4.755   2.672  1.5406  0.6802  0.3903
 7133SOL    HW222084   3.391   4.670   2.735 -0.2011 -2.0690 -0.1721
 7134SOL     OW22085   0.127   0.929   0.282 -0.1163  0.3695  0.3288
 7134SOL    HW122086   0.186   0.889   0.347  0.2520 -0.8346 -0.6960
 7134SOL    HW222087   0.074   0.856   0.250 -0.2743  0.9272 -0.7252
 7135SOL     OW22088   1.201   4.100   6.555  0.3075 -0.3536  0.1733
 7135SOL    HW122089   1.193   4.177   6.500  0.8449  0.3035  0.9962
 7135SOL    HW222090   1.147   4.120   6.632  1.6034 -0.1708  1.0572
 7136SOL     OW22091   2.152   5.674   5.572  0.4738 -0.7233 -0.2529
 7136SOL    HW122092   2.184   5.620   5.645 -0.4168 -0.5461  0.2836
 7136SOL    HW222093   2.123   5.610   5.506  0.7679 -0.8869 -0.2257
 7137SOL     OW22094   4.295   4.697   1.062 -0.2426 -0.1964 -0.1010
 7137SOL    HW122095   4.363   4.705   0.995 -1.1850 -1.7621 -1.3130
 7137SOL    HW222096   4.335   4.643   1.130  0.1805  0.0523 -0.1478
 7138SOL     OW22097   2.798   6.092   3.306  0.4001 -0.0518 -0.1935
 7138SOL    HW122098   2.876   6.146   3.322  0.7929 -0.6107 -0.1884
 7138SOL    HW222099   2.827   6.003   3.325 -0.0665 -0.3370 -0.8186
 7139SOL     OW22100   0.461   0.788   0.031  0.0612  0.4788  0.1910
 7139SOL    HW122101   0.398   0.841   0.079 -0.8867 -0.4231 -0.0243
 7139SOL    HW222102   0.520   0.753   0.098  3.0742  4.6406  0.0980
 7140SOL     OW22103   3.238   5.912   1.257  0.1812  0.3722 -0.1207
 7140SOL    HW122104   3.278   5.975   1.197 -1.4083  0.9466 -0.6100
 7140SOL    HW222105   3.232   5.958   1.340  0.5720  0.2574 -0.0247
 7141SOL     OW22106   2.130   1.216   0.747 -0.0941  0.6762  0.2478
 7141SOL    HW122107   2.036   1.229   0.754 -0.2393 -0.2351  0.0598
 7141SOL    HW222108   2.160   1.208   0.838 -0.5809 -1.4931  0.2814
 7142SOL     OW22109   5.513   4.514   0.804 -0.5815 -0.3773 -0.4340
 7142SOL    HW122110   5.602   4.504   0.838 -1.0099  0.2170  0.9164
 7142SOL    HW222111   5.499   4.608   0.800 -0.7135 -0.4306 -1.8917
 7143SOL     OW22112   5.332   6.681   6.542  0.2163 -0.3106  0.7478
 7143SOL    HW122113   5.341   6.660   6.635  0.2289 -1.1920  0.5614
 7143SOL    HW222114   5.242   6.656   6.521  0.7890 -1.9652  0.0971
 7144SOL     OW22115   2.691   4.135   5.923 -0.3542  0.4061  0.1653
 7144SOL    HW122116   2.684   4.220   5.966 -0.7050  0.1259  0.6780
 7144SOL    HW222117   2.601   4.115   5.894 -0.4816 -0.2396  0.9484
 7145SOL     OW22118   5.856   1.222   0.707  0.6304 -0.0178  0.2529
 7145SOL    HW122119   5.926   1.257   0.651 -1.1251  1.7523 -0.9945
 7145SOL    HW222120   5.877   1.254   0.794  0.9068  1.3116 -0.2751
 7146SOL     OW22121   2.316   0.301   0.211 -0.2120  0.0035 -0.0252
 7146SOL    HW122122   2.235   0.294   0.260  1.1997 -0.8127  2.3683
 7146SOL    HW222123   2.348   0.211   0.205  0.0940  0.1866 -1.7784
 7147SOL     OW22124   6.832   5.418   5.117 -0.1233  0.3960 -0.1672
 7147SOL    HW122125   6.817   5.362   5.041 -1.6580  0.2618  0.1939
 7147SOL    HW222126   6.919   5.455   5.103  0.5308 -1.3218 -0.8904
 7148SOL     OW22127   2.924   0.810   6.195 -0.1192  0.3564 -0.4254
 7148SOL    HW122128   2.942   0.741   6.131  1.2233  1.5988 -1.4431
 7148SOL    HW222129   2.837   0.790   6.228 -0.9496 -0.2244 -2.7997
 7149SOL     OW22130   4.578   3.446   3.385 -0.0884  0.0145  0.4232
 7149SOL    HW122131   4.663   3.468   3.346 -1.0159  1.6568 -0.7908
 7149SOL    HW222132   4.524   3.420   3.310 -1.0904  0.4099  0.9973
 7150SOL     OW22133   4.962   0.219   1.605 -0.8212 -0.5277 -0.3736
 7150SOL    HW122134   5.029   0.165   1.563 -1.6367 -3.2789  1.5268
 7150SOL    HW222135   5.010   0.276   1.665 -0.0151 -0.6256 -0.9160
 7151SOL     OW22136   2.604   0.404   1.308  0.1994  0.1734  0.1931
 7151SOL    HW122137   2.675   0.342   1.321  1.2738  1.1873 -0.5911
 7151SOL    HW222138   2.648   0.488   1.294 -1.2047  1.2004  1.5573
 7152SOL     OW22139   2.128   2.242   2.978  0.3596  0.4158 -0.1201
 7152SOL    HW122140   2.049   2.285   2.944  0.9934  1.2889 -0.5425
 7152SOL    HW222141   2.199   2.302   2.954  1.3194 -1.0416 -1.0383
 7153SOL     OW22142   1.922   0.245   0.720 -0.3009 -0.1102 -0.1411
 7153SOL    HW122143   1.874   0.209   0.645 -1.5709 -0.3902  0.7749
 7153SOL    HW222144   1.877   0.326   0.742  0.5702  0.3993 -0.1661
 7154SOL     OW22145   1.538   0.845   5.092  0.0694 -0.2741 -0.1721
 7154SOL    HW122146   1.492   0.822   5.173  1.7497  0.2079  0.9597
 7154SOL    HW222147   1.598   0.772   5.076  1.6070  0.7886  0.5003
 7155SOL     OW22148   0.716   2.706   0.643  0.1401  0.1916 -0.5232
 7155SOL    HW122149   0.727   2.782   0.701 -1.5039  0.4326 -0.4645
 7155SOL    HW222150   0.716   2.631   0.703  0.4650  0.2696 -0.4267
 7156SOL     OW22151   4.383   0.184   6.578  0.2605  0.0015 -0.6100
 7156SOL    HW122152   4.357   0.092   6.586  0.2360  0.0181 -0.4926
 7156SOL    HW222153   4.300   0.232   6.572  0.2399  0.0997  0.2515
 7157SOL     OW22154   4.953   4.459   1.432  0.0355  0.0619 -0.4270
 7157SOL    HW122155   4.895   4.451   1.508 -0.9379 -0.8918 -1.2503
 7157SOL    HW222156   5.038   4.483   1.470 -0.2587 -1.0460  1.0351
 7158SOL     OW22157   6.790   4.408   6.646 -0.3499 -0.0822  0.7804
 7158SOL    HW122158   6.717   4.347   6.646 -0.7283  0.3676  1.3490
 7158SOL    HW222159   6.768   4.472   6.578 -0.1880 -0.2879  0.5295
 7159SOL     OW22160   1.006   2.715   3.409 -0.4293  0.3526  0.6207
 7159SOL    HW122161   0.945   2.674   3.471  0.4785  0.0278  1.3257
 7159SOL    HW222162   0.954   2.781   3.364 -1.3228  0.0274  1.1563
 7160SOL     OW22163   0.591   4.065   1.253 -0.3085 -0.7176 -0.3050
 7160SOL    HW122164   0.566   4.025   1.169  0.8200  1.0863 -1.5858
 7160SOL    HW222165   0.516   4.121   1.276 -0.3048 -0.6146 -0.5364
 7161SOL     OW22166   4.155   0.034   0.209 -0.1681  0.2855  0.1033
 7161SOL    HW122167   4.116   0.103   0.263 -2.1514 -0.3031 -0.5149
 7161SOL    HW222168   4.247   0.034   0.234 -0.2135  2.7838  0.5257
 7162SOL     OW22169   2.885   1.436   4.117 -0.3492 -0.4566 -0.2983
 7162SOL    HW122170   2.854   1.361   4.066 -0.1118  0.0044 -1.1303
 7162SOL    HW222171   2.980   1.431   4.112 -0.3294 -0.2190 -0.1720
 7163SOL     OW22172   5.775   1.868   0.823  0.7594 -0.6140 -0.9462
 7163SOL    HW122173   5.684   1.897   0.816  0.9063 -0.1549 -0.9844
 7163SOL    HW222174   5.802   1.898   0.909  1.2666  0.3879 -1.4398
 7164SOL     OW22175   5.434   1.446   5.653 -0.2050 -0.1566 -0.1961
 7164SOL    HW122176   5.489   1.512   5.694 -0.0150 -1.1767  1.2811
 7164SOL    HW222177   5.344   1.474   5.671 -0.2159  1.2876 -2.2470
 7165SOL     OW22178   6.350   1.025   0.498  0.4869  0.1629 -0.0371
 7165SOL    HW122179   6.283   1.091   0.516 -0.5604 -0.4107 -1.6819
 7165SOL    HW222180   6.426   1.076   0.468 -1.3718  0.6898 -4.7330
 7166SOL     OW22181   2.281   5.666   2.763 -0.1109  0.6437  0.3812
 7166SOL    HW122182   2.304   5.622   2.845  0.2718 -0.7055 -0.4156
 7166SOL    HW222183   2.353   5.727   2.748 -0.0231  0.6685  0.8894
 7167SOL     OW22184   2.875   2.159   4.704 -0.0478  0.3381  0.0929
 7167SOL    HW122185   2.797   2.151   4.759 -1.0119  0.8729 -1.1483
 7167SOL    HW222186   2.948   2.162   4.766 -1.2314  3.0506  1.5218
 7168SOL     OW22187   0.169   2.457   0.944 -0.7693  0.2388 -0.2469
 7168SOL    HW122188   0.174   2.539   0.896  1.1575  0.2282 -0.1372
 7168SOL    HW222189   0.140   2.393   0.878 -1.1605  0.7813 -0.6138
 7169SOL     OW22190   1.560   0.162   2.911  0.1986 -0.4244 -0.1660
 7169SOL    HW122191   1.652   0.155   2.885  0.2802  0.7656 -0.2460
 7169SOL    HW222192   1.557   0.236   2.972 -0.6019 -0.8772  0.3690
 7170SOL     OW22193   1.167   1.952   4.572 -0.9015  0.0804  0.1688
 7170SOL    HW122194   1.180   2.042   4.541 -0.9338  0.2850  0.7411
 7170SOL    HW222195   1.183   1.898   4.495 -0.5903  0.5606 -0.1091
 7171SOL     OW22196   3.474   4.750   4.304  0.0405 -0.4444  0.6117
 7171SOL    HW122197   3.416   4.677   4.323  0.4605 -0.8895  0.1944
 7171SOL    HW222198   3.520   4.725   4.225 -1.4472  1.2357 -0.8843
 7172SOL     OW22199   0.576   0.393   5.687 -0.2782  0.5064 -0.3221
 7172SOL    HW122200   0.563   0.298   5.691  2.9599 -0.0323  0.2592
 7172SOL    HW222201   0.489   0.430   5.699 -1.3225 -2.3426  1.9821
 7173SOL     OW22202   6.220   4.271   4.621 -0.0979  0.6160  0.8587
 7173SOL    HW122203   6.272   4.281   4.542  1.0504  2.5356  1.7801
 7173SOL    HW222204   6.129   4.279   4.592  0.2979  1.0162 -0.2978
 7174SOL     OW22205   2.053   5.286   1.991 -0.1464 -0.2113 -0.0823
 7174SOL    HW122206   2.142   5.317   2.009  0.1459 -1.8410  1.6409
 7174SOL    HW222207   2.065   5.215   1.927  0.0144 -1.4082  1.2212
 7175SOL     OW22208   3.786   0.571   0.847  0.3339 -0.0155 -0.0538
 7175SOL    HW122209   3.729   0.638   0.808  0.5576 -0.3385 -0.9711
 7175SOL    HW222210   3.793   0.504   0.779  0.6141 -0.6781  0.6218
 7176SOL     OW22211   1.687   3.704   0.954  0.6180  0.2492 -0.6722
 7176SOL    HW122212   1.707   3.795   0.935 -1.6970  1.5706  2.3940
 7176SOL    HW222213   1.638   3.674   0.878  0.2294  2.0225 -1.1693
 7177SOL     OW22214   0.088   1.280   4.986  0.4458 -0.0128  0.2574
 7177SOL    HW122215   0.086   1.264   4.891  0.0118  3.5364 -0.4758
 7177SOL    HW222216  -0.004   1.290   5.010  0.6533  1.7328  0.4432
 7178SOL     OW22217   3.178   0.033   1.587  0.1268  0.0472  0.0852
 7178SOL    HW122218   3.118   0.091   1.634 -0.2478 -0.2954  0.0323
 7178SOL    HW222219   3.236   0.093   1.539 -0.4715  0.3817 -0.2355
 7179SOL     OW22220   6.821   6.242   1.044  0.4842  0.5969 -0.4400
 7179SOL    HW122221   6.826   6.254   1.139 -0.1798 -2.0004 -0.0051
 7179SOL    HW222222   6.908   6.209   1.020 -0.0575 -0.9493 -0.3336
 7180SOL     OW22223   0.022   3.229   1.681  0.6900 -0.6323 -0.0500
 7180SOL    HW122224  -0.040   3.166   1.645  2.2486 -1.0001 -2.3103
 7180SOL    HW222225  -0.029   3.283   1.741 -1.7856 -0.8935 -1.8126
 7181SOL     OW22226   2.003   3.499   5.375  0.1744  0.0976  0.3244
 7181SOL    HW122227   1.990   3.594   5.368 -0.5415  0.1110  1.5989
 7181SOL    HW222228   2.016   3.471   5.284 -2.9607  0.9550 -0.5246
 7182SOL     OW22229   3.282   0.023   4.459  0.1414  0.4079  0.3038
 7182SOL    HW122230   3.276   0.039   4.364 -1.9011 -2.1007 -0.0889
 7182SOL    HW222231   3.369  -0.015   4.471  1.3793  2.9040 -0.1031
 7183SOL     OW22232   6.399   0.364   0.250 -0.5237 -0.0159 -0.4236
 7183SOL    HW122233   6.488   0.349   0.216 -0.5655  1.1446 -1.1099
 7183SOL    HW222234   6.341   0.327   0.184 -0.5674 -1.4362  0.3723
 7184SOL     OW22235   4.369   0.646   2.831  0.3027 -0.1165  0.0443
 7184SOL    HW122236   4.431   0.639   2.758 -0.5615 -2.0909 -0.5645
 7184SOL    HW222237   4.314   0.568   2.823 -0.3073  0.0062  2.3658
 7185SOL     OW22238   2.818   5.669   0.236  0.4770 -0.7425  0.0351
 7185SOL    HW122239   2.849   5.737   0.296 -1.4480  0.5206 -0.3230
 7185SOL    HW222240   2.861   5.689   0.153 -1.3302  1.1726 -0.5350
 7186SOL     OW22241   5.186   2.738   6.056  0.2713  0.6430  0.1549
 7186SOL    HW122242   5.151   2.809   6.109 -1.9611 -1.5253  1.8060
 7186SOL    HW222243   5.254   2.698   6.110  0.2904  0.4359 -0.0198
 7187SOL     OW22244   2.753   1.383   3.115 -0.1052  0.4430 -0.2448
 7187SOL    HW122245   2.812   1.350   3.184  1.1981  0.7779 -1.1607
 7187SOL    HW222246   2.750   1.477   3.129 -1.1898  0.3326  0.3570
 7188SOL     OW22247   4.707   3.975   3.756  0.0919  0.6546  0.0709
 7188SOL    HW122248   4.750   3.982   3.841  0.5683  1.8251 -0.2358
 7188SOL    HW222249   4.614   3.993   3.774 -0.1790 -1.1409  0.6249
 7189SOL     OW22250   5.640   1.457   0.512  0.2263  0.0440 -0.2161
 7189SOL    HW122251   5.599   1.529   0.560  0.9057  1.0374 -1.0843
 7189SOL    HW222252   5.647   1.386   0.576 -0.9684  0.5512  0.4977
 7190SOL     OW22253   5.875   5.629   3.432 -0.1158  0.8744  0.1911
 7190SOL    HW122254   5.862   5.592   3.344 -2.7089 -0.0646  0.8879
 7190SOL    HW222255   5.969   5.618   3.448  0.0355 -1.0578 -1.5559
 7191SOL     OW22256   5.202   1.840   5.589 -1.2141 -0.3498  1.1450
 7191SOL    HW122257   5.254   1.768   5.626  0.2965 -0.6228 -1.3305
 7191SOL    HW222258   5.150   1.799   5.520 -0.3960  0.8931 -0.2470
 7192SOL     OW22259   2.045   6.059   0.657 -0.2223 -0.2912 -0.0129
 7192SOL    HW122260   2.056   6.016   0.742  1.3415 -0.6749 -0.3646
 7192SOL    HW222261   2.069   6.150   0.673  2.0058 -0.7554 -0.3947
 7193SOL     OW22262   5.947   0.340   1.229 -0.0778  0.4250  0.1316
 7193SOL    HW122263   5.982   0.322   1.316  1.1699  1.3273 -0.1601
 7193SOL    HW222264   6.016   0.389   1.185 -2.8041  5.2429  0.5958
 7194SOL     OW22265   4.045   1.151   4.018 -0.0044 -0.4095  0.2477
 7194SOL    HW122266   4.062   1.179   4.108  0.5189  1.4481 -0.3815
 7194SOL    HW222267   4.108   1.201   3.965 -0.5755 -1.1531 -1.1979
 7195SOL     OW22268   3.861   1.604   4.515 -0.3521  0.2362  0.7113
 7195SOL    HW122269   3.767   1.591   4.530 -0.5988 -0.5811 -1.2666
 7195SOL    HW222270   3.866   1.675   4.451  0.5982  2.6719  3.2883
 7196SOL     OW22271   1.209   5.753   0.636 -0.2282  0.1347  0.6126
 7196SOL    HW122272   1.186   5.733   0.545 -2.4538 -4.0097  1.8484
 7196SOL    HW222273   1.134   5.802   0.669 -0.3934 -0.1982  0.7366
 7197SOL     OW22274   6.316   2.169   4.096 -0.3359 -0.0575  0.0467
 7197SOL    HW122275   6.341   2.162   4.188 -0.6367 -0.5916  0.0963
 7197SOL    HW222276   6.245   2.234   4.095 -0.8095 -0.5578  0.2991
 7198SOL     OW22277   3.382   2.463   4.276  0.5108 -0.2021 -1.0527
 7198SOL    HW122278   3.360   2.551   4.306  0.5553 -0.4839 -0.1709
 7198SOL    HW222279   3.334   2.453   4.194  0.1659  0.4853 -0.9410
 7199SOL     OW22280   3.781   0.692   3.585  0.0722 -0.0489 -0.4912
 7199SOL    HW122281   3.745   0.710   3.498 -0.8961 -0.8011 -0.2598
 7199SOL    HW222282   3.793   0.597   3.588 -2.8753 -0.4912  1.2539
 7200SOL     OW22283   4.953   2.298   3.000 -0.4459 -0.0216 -0.2159
 7200SOL    HW122284   5.041   2.262   3.013  0.2105  0.2991 -3.2060
 7200SOL    HW222285   4.962   2.391   3.020 -0.0295  0.0518 -0.7229
 7201SOL     OW22286   2.908   2.345   4.972  0.2275 -0.0793  0.2422
 7201SOL    HW122287   2.918   2.419   4.912  0.4795  0.1362  0.5483
 7201SOL    HW222288   2.823   2.360   5.014  0.4817  0.2838  0.6362
 7202SOL     OW22289   4.289   1.454   1.237  0.0900  1.1398 -0.0298
 7202SOL    HW122290   4.284   1.358   1.231 -0.1598  0.8340  3.0208
 7202SOL    HW222291   4.202   1.480   1.269 -0.2283  2.5801 -1.8797
 7203SOL     OW22292   0.743   3.325   4.295  0.0080  0.4006 -0.3602
 7203SOL    HW122293   0.674   3.333   4.229 -1.7327 -0.5266  1.2578
 7203SOL    HW222294   0.815   3.280   4.249 -0.6424  0.9077 -1.9440
 7204SOL     OW22295   4.881   1.511   6.711  0.3721 -0.1728  0.4154
 7204SOL    HW122296   4.814   1.548   6.770 -0.0604  0.0524 -0.1997
 7204SOL    HW222297   4.937   1.585   6.690  2.5926 -0.8813  3.1576
 7205SOL     OW22298   5.083   6.621   4.532  0.4741 -0.4402  0.7917
 7205SOL    HW122299   5.084   6.699   4.476  1.8604 -1.2244 -0.3557
 7205SOL    HW222300   5.000   6.578   4.513  0.6082 -0.3081 -0.1575
 7206SOL     OW22301   6.802   0.266   6.655 -0.2961 -0.0751 -0.2023
 7206SOL    HW122302   6.708   0.245   6.652 -0.4527  0.6519 -0.7017
 7206SOL    HW222303   6.814   0.330   6.586  0.1929  1.3587  1.1573
 7207SOL     OW22304   0.481   3.188   0.717 -0.2421 -0.0382  0.3958
 7207SOL    HW122305   0.395   3.183   0.759  0.7874 -0.3936  2.5735
 7207SOL    HW222306   0.537   3.228   0.782  0.8490  2.1228 -1.7434
 7208SOL     OW22307   0.781   3.346   4.751 -0.1216  0.3393  0.3264
 7208SOL    HW122308   0.843   3.390   4.810  0.8968 -1.3079  0.5569
 7208SOL    HW222309   0.695   3.363   4.790  0.4563  0.0803  1.7750
 7209SOL     OW22310   5.817   3.278   3.178 -0.8092  0.0797  0.5987
 7209SOL    HW122311   5.893   3.335   3.175 -0.2254 -0.7109 -0.8932
 7209SOL    HW222312   5.835   3.215   3.248 -0.0784 -0.1059  0.2488
 7210SOL     OW22313   4.003   2.774   1.509 -0.2187  0.0827 -1.2589
 7210SOL    HW122314   3.982   2.854   1.461  1.8731  0.1272 -2.1987
 7210SOL    HW222315   3.925   2.719   1.500 -0.7443  1.0100 -2.7459
 7211SOL     OW22316   1.848   3.797   1.483  0.2056  0.4871  0.7743
 7211SOL    HW122317   1.837   3.888   1.454 -0.3336  0.3241  0.4732
 7211SOL    HW222318   1.772   3.751   1.448  0.6625 -0.1586  0.6233
 7212SOL     OW22319   4.457   2.238   1.790 -0.3310 -0.0576 -0.4092
 7212SOL    HW122320   4.541   2.281   1.774  0.1345 -0.8507 -0.1267
 7212SOL    HW222321   4.480   2.153   1.826 -1.2772  0.0622  0.5225
 7213SOL     OW22322   6.351   4.417   6.494 -0.2101 -0.0582 -0.7329
 7213SOL    HW122323   6.332   4.495   6.546  1.4520  0.5825 -1.0058
 7213SOL    HW222324   6.382   4.452   6.410  0.9313 -1.0031 -0.7260
 7214SOL     OW22325   0.899   6.872   4.933  0.3133  0.4361  0.4087
 7214SOL    HW122326   0.940   6.858   4.848 -1.1313 -1.5385 -0.0409
 7214SOL    HW222327   0.959   6.930   4.980  2.6417 -0.7786 -0.8875
 7215SOL     OW22328   5.043   4.225   2.436  0.6971  0.0019 -0.2343
 7215SOL    HW122329   5.002   4.242   2.351 -1.7515  0.0865  0.8617
 7215SOL    HW222330   5.094   4.145   2.423  2.8049  1.5836 -2.4706
 7216SOL     OW22331   4.022   6.672   3.264  0.4249  0.2388  0.3039
 7216SOL    HW122332   4.009   6.658   3.358  2.3053  0.3312  0.6177
 7216SOL    HW222333   4.113   6.647   3.248 -0.2050 -0.9521 -1.7565
 7217SOL     OW22334   0.777   6.227   2.198 -0.0186 -0.1811  0.0853
 7217SOL    HW122335   0.739   6.139   2.207  1.2608 -0.6414  1.2932
 7217SOL    HW222336   0.717   6.284   2.246 -0.9707 -0.3173 -0.8827
 7218SOL     OW22337   6.810   2.800   1.143 -0.3462 -0.4787  0.5172
 7218SOL    HW122338   6.881   2.823   1.083 -1.3750 -0.0366 -0.5833
 7218SOL    HW222339   6.835   2.715   1.179  2.2007  0.9632  2.5168
 7219SOL     OW22340   4.388   3.069   3.517 -0.2449  0.5587 -0.1046
 7219SOL    HW122341   4.480   3.095   3.519  0.4917 -1.3651 -2.8155
 7219SOL    HW222342   4.390   2.974   3.526 -2.0821  0.5595  0.6947
 7220SOL     OW22343   5.341   5.310   3.828  0.7468 -0.5545  0.0413
 7220SOL    HW122344   5.327   5.404   3.834 -0.7967 -0.7803  0.3706
 7220SOL    HW222345   5.410   5.292   3.892  0.7207  0.2792  0.3141
 7221SOL     OW22346   2.587   4.100   4.943 -0.0375  0.1300 -0.2330
 7221SOL    HW122347   2.546   4.029   4.992  0.0037  0.0420 -0.3255
 7221SOL    HW222348   2.681   4.080   4.946 -0.0252  0.1816 -0.2574
 7222SOL     OW22349   0.269   4.100   3.549 -0.6445 -0.1822  0.5034
 7222SOL    HW122350   0.230   4.184   3.572 -1.1119 -0.7663  1.9783
 7222SOL    HW222351   0.204   4.035   3.576  1.8464 -1.3030  4.5900
 7223SOL     OW22352   6.187   1.034   6.420 -0.5205  0.0036  0.5651
 7223SOL    HW122353   6.139   0.976   6.478  0.5287 -2.8861 -1.2395
 7223SOL    HW222354   6.147   1.021   6.334  1.0414  0.3711 -0.2634
 7224SOL     OW22355   4.146   5.874   6.520  0.2100 -0.1064 -0.7990
 7224SOL    HW122356   4.223   5.929   6.510 -0.3346  0.6325 -1.0107
 7224SOL    HW222357   4.181   5.787   6.541  1.0675  0.3758 -0.1882
 7225SOL     OW22358   0.588   2.708   6.192  0.4805  0.1539 -0.3060
 7225SOL    HW122359   0.523   2.768   6.228  1.1284  0.2750  0.7212
 7225SOL    HW222360   0.539   2.650   6.134 -0.6007  0.0213  0.7009
 7226SOL     OW22361   6.767   4.223   1.538  0.6323 -0.4047 -0.0828
 7226SOL    HW122362   6.772   4.252   1.630  1.1326  1.8963 -0.7799
 7226SOL    HW222363   6.857   4.231   1.506  0.6055 -1.9277 -0.6055
 7227SOL     OW22364   5.325   2.732   4.648  0.1703  0.6489 -0.4532
 7227SOL    HW122365   5.374   2.653   4.673 -0.1804  0.1072 -1.4454
 7227SOL    HW222366   5.253   2.737   4.711  0.6638  0.6537  0.1268
 7228SOL     OW22367   5.039   5.861   6.089 -0.4317  0.3676 -0.2297
 7228SOL    HW122368   5.125   5.857   6.132 -0.8329  0.7674  0.6337
 7228SOL    HW222369   5.057   5.900   6.003  0.3500 -0.2072 -0.3364
 7229SOL     OW22370   3.726   3.798   1.555 -0.6203 -0.5420  0.2342
 7229SOL    HW122371   3.739   3.890   1.532 -2.0688  0.0752  1.6656
 7229SOL    HW222372   3.676   3.801   1.636 -0.7982 -2.6077  0.2441
 7230SOL     OW22373   2.804   2.564   3.274 -0.8079 -0.1644 -0.0858
 7230SOL    HW122374   2.762   2.549   3.358 -0.6057 -0.7502 -0.0908
 7230SOL    HW222375   2.750   2.633   3.233 -0.7647  0.2959  0.6121
 7231SOL     OW22376   1.581   1.040   2.006 -0.6005  0.0644 -0.0770
 7231SOL    HW122377   1.587   0.950   2.039 -2.3426 -0.0898 -0.0693
 7231SOL    HW222378   1.535   1.032   1.922  1.0422  0.7741 -1.1035
 7232SOL     OW22379   0.256   1.706   2.781  0.1062 -0.1202 -0.1259
 7232SOL    HW122380   0.185   1.763   2.753 -1.9550 -1.9849  1.0014
 7232SOL    HW222381   0.332   1.764   2.789 -0.7392  1.6154 -3.1969
 7233SOL     OW22382   1.439   1.871   3.970  0.2346  0.1587  0.1308
 7233SOL    HW122383   1.365   1.828   4.013 -0.4507  0.9482 -0.2519
 7233SOL    HW222384   1.471   1.807   3.906 -0.3507 -0.0426  0.0416
 7234SOL     OW22385   1.070   0.544   1.309 -0.1691  0.3058 -0.1644
 7234SOL    HW122386   1.128   0.526   1.234  0.5516  0.8912  0.2359
 7234SOL    HW222387   1.130   0.555   1.383 -0.5085  3.4969 -0.2054
 7235SOL     OW22388   3.677   1.758   6.368  0.1716  0.1183 -0.4355
 7235SOL    HW122389   3.613   1.717   6.310 -0.1503  0.4685 -0.3345
 7235SOL    HW222390   3.735   1.807   6.310  1.5512 -1.7594 -0.7115
 7236SOL     OW22391   3.971   4.847   1.849  0.1023  0.0386 -0.1406
 7236SOL    HW122392   4.058   4.834   1.810  0.7626  1.1767  0.8879
 7236SOL    HW222393   3.910   4.822   1.780  1.2462  0.4025 -1.3273
 7237SOL     OW22394   1.371   4.957   1.285  0.5118 -0.3798 -0.4509
 7237SOL    HW122395   1.430   4.890   1.318 -0.1585 -1.0977 -0.6644
 7237SOL    HW222396   1.328   4.991   1.364 -0.3728 -1.4032 -0.4598
 7238SOL     OW22397   3.805   3.957   5.053 -0.1000  0.0880  0.1516
 7238SOL    HW122398   3.718   3.979   5.085 -0.0452 -0.0246  0.3851
 7238SOL    HW222399   3.830   4.030   4.997 -0.5643 -0.1319 -0.3432
 7239SOL     OW22400   4.355   1.479   6.487 -0.6305  0.1357  0.4719
 7239SOL    HW122401   4.448   1.483   6.464 -1.1504  0.2272 -1.8522
 7239SOL    HW222402   4.332   1.567   6.515 -0.2820  0.4233 -0.1412
 7240SOL     OW22403   4.380   4.035   1.368 -0.3719  0.2346  0.3494
 7240SOL    HW122404   4.445   4.005   1.431 -0.4108  0.4473  0.4895
 7240SOL    HW222405   4.296   4.003   1.403 -0.3379 -0.1192  0.1216
 7241SOL     OW22406   5.918   2.248   0.434  0.0035 -0.3674 -0.1389
 7241SOL    HW122407   5.955   2.223   0.349 -0.5213 -1.1096 -0.1640
 7241SOL    HW222408   5.901   2.342   0.426 -0.5172 -0.5184 -1.0463
 7242SOL     OW22409   1.567   3.354   2.837 -0.3706 -0.0582  0.3353
 7242SOL    HW122410   1.526   3.292   2.897  0.4953 -0.1817  0.8025
 7242SOL    HW222411   1.572   3.307   2.754  0.4047 -0.6676  0.7181
 7243SOL     OW22412   3.014   4.991   4.266 -0.1835 -0.3381 -0.2261
 7243SOL    HW122413   3.035   5.079   4.236  1.1546 -0.1184  1.2418
 7243SOL    HW222414   3.091   4.963   4.315 -0.4328 -2.4685 -0.9247
 7244SOL     OW22415   3.280   1.476   4.216  0.3558  0.5039  0.2780
 7244SOL    HW122416   3.210   1.527   4.258  1.0472  0.7017  1.2427
 7244SOL    HW222417   3.281   1.507   4.126 -1.0166  0.2545  0.1530
 7245SOL     OW22418   0.553   3.190   0.013 -0.5747  0.2186 -0.0366
 7245SOL    HW122419   0.586   3.121   0.071  1.1524  1.7166  0.8679
 7245SOL    HW222420   0.556   3.151  -0.075 -0.2316 -1.0538  0.5117
 7246SOL     OW22421   6.148   1.860   1.005 -0.3428  0.1203 -0.7627
 7246SOL    HW122422   6.132   1.792   0.940 -0.7675 -0.4829 -0.0370
 7246SOL    HW222423   6.177   1.936   0.954 -0.7355 -0.3222 -1.6566
 7247SOL     OW22424   3.853   0.364   3.386  0.6520  0.0981 -0.1379
 7247SOL    HW122425   3.916   0.386   3.454  1.0823  1.3843 -0.9219
 7247SOL    HW222426   3.904   0.315   3.321  1.0135  1.5890 -1.0251
 7248SOL     OW22427   5.108   0.864   1.315 -0.7192  0.5872 -0.1480
 7248SOL    HW122428   5.063   0.788   1.352 -3.0695  2.6388  1.5476
 7248SOL    HW222429   5.101   0.853   1.221  1.5110 -2.6037 -0.0945
 7249SOL     OW22430   2.815   0.533   4.541  0.4061 -1.0255  0.0877
 7249SOL    HW122431   2.792   0.538   4.634  0.7507 -2.3338  0.2690
 7249SOL    HW222432   2.882   0.601   4.529 -0.1358 -0.3885  0.6344
 7250SOL     OW22433   1.635   3.528   3.774 -0.4623  0.2384 -0.2142
 7250SOL    HW122434   1.618   3.579   3.695  0.2649 -0.2461 -0.7007
 7250SOL    HW222435   1.667   3.444   3.741 -0.3736 -0.0488  0.5967
 7251SOL     OW22436   1.383   2.126   3.003  0.1584  0.0444  0.1729
 7251SOL    HW122437   1.356   2.136   3.094  0.8095  0.3426  0.3349
 7251SOL    HW222438   1.423   2.040   2.999 -1.6791 -0.8467 -0.2958
 7252SOL     OW22439   3.879   2.828   2.632  0.6131  0.5483 -0.5665
 7252SOL    HW122440   3.905   2.890   2.700 -0.2869  0.1120  0.1986
 7252SOL    HW222441   3.842   2.883   2.562  0.8428  0.9434 -0.3794
 7253SOL     OW22442   4.065   6.202   5.353  0.2726  0.0233  0.1544
 7253SOL    HW122443   4.058   6.271   5.419 -1.5883  1.4474 -1.3919
 7253SOL    HW222444   3.985   6.150   5.364  0.6189 -0.5699 -0.0940
 7254SOL     OW22445   1.808   1.032   0.899  0.7896 -0.1545  0.0941
 7254SOL    HW122446   1.856   1.053   0.979  1.3631 -0.0361 -0.2808
 7254SOL    HW222447   1.780   0.941   0.911  3.4878 -1.1806 -0.8497
 7255SOL     OW22448   0.206   1.607   3.182 -0.1759  0.2136  0.0502
 7255SOL    HW122449   0.237   1.517   3.193 -0.8042  0.0006  0.1398
 7255SOL    HW222450   0.247   1.656   3.253 -0.3110 -0.1297  0.3695
 7256SOL     OW22451   3.272   3.424   4.465 -0.6017  0.2339 -0.1151
 7256SOL    HW122452   3.276   3.354   4.399  0.7097 -0.0336  0.2159
 7256SOL    HW222453   3.223   3.385   4.538  1.0984 -0.7892  0.5397
 7257SOL     OW22454   4.297   3.568   1.746  0.6215 -0.0120  0.3502
 7257SOL    HW122455   4.265   3.549   1.834  0.8435  1.6065  0.7947
 7257SOL    HW222456   4.386   3.600   1.758  1.0807 -0.8781 -0.5804
 7258SOL     OW22457   4.030   4.132   6.088 -0.1411  0.0392  0.1929
 7258SOL    HW122458   4.067   4.087   6.164  1.2746 -0.7231 -0.9131
 7258SOL    HW222459   4.036   4.225   6.110  2.4588 -0.0486  0.0914
 7259SOL     OW22460   5.744   2.566   2.021 -0.1253  0.3353 -0.2661
 7259SOL    HW122461   5.811   2.634   2.015  1.1871 -0.6295  2.0554
 7259SOL    HW222462   5.785   2.488   1.984 -1.2179  0.4737 -1.8745
 7260SOL     OW22463   1.223   0.225   5.515 -0.0026 -0.3195  0.4276
 7260SOL    HW122464   1.308   0.251   5.549  0.1630 -0.6669  0.2860
 7260SOL    HW222465   1.189   0.164   5.581 -0.3216  0.1368  0.6856
 7261SOL     OW22466   2.045   6.420   5.964  0.0198 -0.3942  0.0341
 7261SOL    HW122467   2.105   6.350   5.938  0.5437 -1.1283  2.8088
 7261SOL    HW222468   2.020   6.396   6.053 -5.3075 -0.7187 -1.2404
 7262SOL     OW22469   3.184   0.575   4.708  0.4665  0.0789  0.3158
 7262SOL    HW122470   3.175   0.492   4.661  1.4274 -0.7825  1.5865
 7262SOL    HW222471   3.132   0.637   4.657 -0.2763 -1.2929 -0.6650
 7263SOL     OW22472   6.879   2.045   1.747 -0.1634  0.2738  0.6510
 7263SOL    HW122473   6.898   1.951   1.756  1.9693  0.5140 -0.6640
 7263SOL    HW222474   6.811   2.049   1.680  0.8698 -0.2895 -0.4659
 7264SOL     OW22475   0.595   5.931   3.427 -0.1390  0.2557 -0.0001
 7264SOL    HW122476   0.582   5.847   3.382  1.6943 -0.7006  1.1307
 7264SOL    HW222477   0.684   5.927   3.460 -0.8753  1.5611  2.3858
 7265SOL     OW22478   1.631   2.078   1.959 -0.4421 -0.3352  0.0768
 7265SOL    HW122479   1.568   2.007   1.968 -0.4808 -0.4507 -1.0292
 7265SOL    HW222480   1.626   2.104   1.867  2.1281 -1.2916 -0.4243
 7266SOL     OW22481   1.301   0.686   1.459 -0.1647  0.0429 -0.2195
 7266SOL    HW122482   1.239   0.659   1.527 -0.5414 -1.6928 -1.1769
 7266SOL    HW222483   1.325   0.775   1.483 -0.2455 -0.4975  2.2094
 7267SOL     OW22484   0.234   1.108   6.757  0.4110 -0.4235  0.1843
 7267SOL    HW122485   0.324   1.089   6.732 -0.5191 -2.0852 -2.2364
 7267SOL    HW222486   0.238   1.194   6.799  2.8932  0.2382 -1.2523
 7268SOL     OW22487   4.513   4.005   2.825 -0.1008  0.2952  0.0307
 7268SOL    HW122488   4.524   4.079   2.884  1.2983 -0.4192  0.7193
 7268SOL    HW222489   4.438   4.028   2.771 -1.2360  1.1076  1.8692
 7269SOL     OW22490   0.133   4.982   4.171 -0.1927  0.1247 -0.2104
 7269SOL    HW122491   0.075   5.041   4.124 -1.3927 -1.2905 -0.5860
 7269SOL    HW222492   0.204   4.963   4.109 -1.1653 -0.8337 -1.0630
 7270SOL     OW22493   6.418   4.374   0.459  0.4623 -0.2580 -0.0383
 7270SOL    HW122494   6.412   4.364   0.364  1.2139  0.2615 -0.1528
 7270SOL    HW222495   6.334   4.411   0.485  0.8247  1.1495 -0.7338
 7271SOL     OW22496   0.259   1.445   6.148 -0.3504 -0.1317 -0.0412
 7271SOL    HW122497   0.244   1.424   6.056  0.4795 -1.0382  0.0164
 7271SOL    HW222498   0.205   1.522   6.164  1.1377  1.3797 -1.8533
 7272SOL     OW22499   4.627   2.114   5.586 -0.0375 -0.5237 -0.0783
 7272SOL    HW122500   4.533   2.099   5.598  0.0831 -1.1947  0.0499
 7272SOL    HW222501   4.648   2.184   5.648 -0.4474 -0.3986 -0.0802
 7273SOL     OW22502   5.483   3.580   2.852  0.5264  0.3157 -0.1003
 7273SOL    HW122503   5.412   3.610   2.795 -0.3378 -1.5251 -0.0702
 7273SOL    HW222504   5.477   3.484   2.849  2.1540  0.1425  0.9951
 7274SOL     OW22505   4.275   1.149   3.090 -0.8372 -0.2169 -0.2955
 7274SOL    HW122506   4.225   1.133   3.169 -2.5805  0.3103 -1.2473
 7274SOL    HW222507   4.328   1.226   3.110 -0.4738 -0.7095  0.6801
 7275SOL     OW22508   2.690   0.072   4.051 -0.6278 -0.3048  0.0220
 7275SOL    HW122509   2.695   0.002   3.985 -1.1771  0.4309 -0.8171
 7275SOL    HW222510   2.714   0.029   4.133  2.4883 -0.7536 -0.9820
 7276SOL     OW22511   6.230   1.068   1.841 -0.1565 -0.1045  0.5085
 7276SOL    HW122512   6.298   1.041   1.778 -0.7701 -0.4648 -0.0137
 7276SOL    HW222513   6.152   1.020   1.813 -0.8124  0.8537  0.6587
 7277SOL     OW22514   6.153   3.342   2.386 -0.3810  0.5846  0.5497
 7277SOL    HW122515   6.155   3.263   2.332 -0.4909  1.8878 -1.4771
 7277SOL    HW222516   6.239   3.344   2.428 -0.0406 -0.1679 -0.0736
 7278SOL     OW22517   6.545   6.163   2.447  0.5845 -0.2849  0.3713
 7278SOL    HW122518   6.485   6.237   2.444  1.6405  0.5914 -0.1741
 7278SOL    HW222519   6.511   6.101   2.383  0.0303  0.0145  0.3754
 7279SOL     OW22520   1.930   6.590   4.793 -0.2682  0.1623  0.1259
 7279SOL    HW122521   1.868   6.522   4.767  0.3881 -0.2010 -0.5076
 7279SOL    HW222522   1.912   6.604   4.887  0.8843 -2.2812  0.7867
 7280SOL     OW22523   2.905   6.130   6.456  0.6237 -0.6028  0.2117
 7280SOL    HW122524   2.905   6.076   6.536 -0.9416 -0.1603  0.5379
 7280SOL    HW222525   2.828   6.100   6.407  2.0800 -1.5524 -1.6554
 7281SOL     OW22526   2.044   4.765   2.170 -0.6629 -0.3418  0.4033
 7281SOL    HW122527   2.011   4.848   2.136 -1.4978 -0.6180  0.5105
 7281SOL    HW222528   2.070   4.784   2.260 -0.5438 -0.1161  0.3205
 7282SOL     OW22529   5.533   3.261   2.038  0.3446  0.5424  0.3365
 7282SOL    HW122530   5.584   3.342   2.040 -0.2000  0.8954  0.2660
 7282SOL    HW222531   5.461   3.276   2.099  0.2340  0.1112  0.3166
 7283SOL     OW22532   2.112   1.549   0.748  0.2409  0.5410 -0.0112
 7283SOL    HW122533   2.061   1.469   0.744 -0.3881  0.8904  0.7623
 7283SOL    HW222534   2.198   1.521   0.779  0.5168 -0.0401 -1.2516
 7284SOL     OW22535   5.631   6.658   2.061 -0.2421 -0.3894 -0.6243
 7284SOL    HW122536   5.651   6.722   2.129 -0.2295 -0.5512 -0.4749
 7284SOL    HW222537   5.661   6.574   2.097  1.3908 -0.2419 -1.5330
 7285SOL     OW22538   3.372   0.593   2.554 -0.6163  0.4340 -0.3272
 7285SOL    HW122539   3.447   0.535   2.541 -0.3298  0.1474  2.1304
 7285SOL    HW222540   3.360   0.635   2.468  2.3715  0.5442 -0.8326
 7286SOL     OW22541   6.570   4.290   1.966  0.3995 -0.5373 -0.1280
 7286SOL    HW122542   6.643   4.350   1.981  0.9152 -1.2221  0.1135
 7286SOL    HW222543   6.549   4.302   1.873 -0.4127  1.0169  0.2117
 7287SOL     OW22544   3.791   3.335   6.416 -0.2091  0.4522 -0.4064
 7287SOL    HW122545   3.770   3.406   6.476 -1.0109 -0.1957  0.0977
 7287SOL    HW222546   3.721   3.336   6.351 -0.2563  0.0995 -0.3668
 7288SOL     OW22547   2.680   4.205   6.491 -0.2229 -0.2335 -0.1712
 7288SOL    HW122548   2.604   4.263   6.485 -0.9553 -0.9858  1.2901
 7288SOL    HW222549   2.687   4.184   6.584  0.0461 -2.4161 -0.6161
 7289SOL     OW22550   5.146   1.433   0.144 -0.1590  0.1409  0.0323
 7289SOL    HW122551   5.063   1.394   0.115  0.3661  0.3562 -1.8940
 7289SOL    HW222552   5.130   1.457   0.235 -1.8371 -0.8507  0.0558
 7290SOL     OW22553   0.346   2.404   6.702  0.7316  0.2368 -0.7976
 7290SOL    HW122554   0.290   2.468   6.656  0.5397 -0.7546 -2.0027
 7290SOL    HW222555   0.376   2.345   6.633  0.2828 -1.4363  0.3909
 7291SOL     OW22556   1.951   1.538   5.898 -0.2519 -0.0122 -0.4941
 7291SOL    HW122557   1.874   1.562   5.950 -0.0070  0.0855 -0.1686
 7291SOL    HW222558   1.985   1.460   5.941 -0.9374 -0.8530 -1.4401
 7292SOL     OW22559   0.394   0.346   2.821  0.1464 -0.6366 -0.1469
 7292SOL    HW122560   0.383   0.253   2.844 -1.1119 -0.2687  0.8751
 7292SOL    HW222561   0.352   0.354   2.736 -0.0062 -0.9476 -0.1045
 7293SOL     OW22562   2.236   2.944   2.859 -0.0748 -0.2518 -0.5947
 7293SOL    HW122563   2.269   2.864   2.819  1.0352 -0.1679  0.0947
 7293SOL    HW222564   2.145   2.925   2.881 -0.4758 -0.5618 -2.3969
 7294SOL     OW22565   0.067   3.050   3.599 -0.2054  0.1474  0.0228
 7294SOL    HW122566   0.162   3.063   3.597 -0.1055 -0.6100 -0.9343
 7294SOL    HW222567   0.049   3.011   3.685 -0.1939  3.8691  1.9307
 7295SOL     OW22568   3.229   3.544   2.223  0.6843  0.7427  0.0617
 7295SOL    HW122569   3.148   3.592   2.240  0.8731  1.7782 -1.6758
 7295SOL    HW222570   3.298   3.600   2.259  0.7712  0.9129 -0.3608
 7296SOL     OW22571   0.583   0.924   4.207  0.2063 -0.9607 -0.5889
 7296SOL    HW122572   0.545   1.009   4.226 -0.4973 -0.4411 -3.6644
 7296SOL    HW222573   0.533   0.863   4.261 -1.3204  0.2930 -0.5088
 7297SOL     OW22574   5.876   5.519   4.924  0.3892 -0.2684  0.0317
 7297SOL    HW122575   5.841   5.506   4.836  1.0997 -0.0235 -0.2936
 7297SOL    HW222576   5.952   5.461   4.928  1.0913  0.6420  0.0503
 7298SOL     OW22577   5.969   0.712   0.291 -0.1297 -0.2632 -0.3083
 7298SOL    HW122578   5.973   0.793   0.341 -1.1005 -0.6625  0.4785
 7298SOL    HW222579   5.901   0.727   0.225  0.1217 -0.2304 -0.5613
 7299SOL     OW22580   1.172   5.388   0.333  0.0550  0.0746  0.2229
 7299SOL    HW122581   1.172   5.380   0.237 -0.8975  2.0489  0.0148
 7299SOL    HW222582   1.198   5.302   0.364  0.4445 -0.5963 -1.8197
 7300SOL     OW22583   4.356   3.533   6.147  0.6034  0.3189 -0.1071
 7300SOL    HW122584   4.272   3.527   6.194  1.2047 -0.5725  0.8831
 7300SOL    HW222585   4.335   3.510   6.057 -0.2637  0.3870  0.0682
 7301SOL     OW22586   6.793   3.910   0.289 -0.1067  0.5332  0.4256
 7301SOL    HW122587   6.803   3.983   0.350  0.1222  0.0483  0.9790
 7301SOL    HW222588   6.879   3.903   0.247 -0.0811  0.4951  0.4825
 7302SOL     OW22589   4.812   2.169   0.661 -0.1769 -0.9556  0.4694
 7302SOL    HW122590   4.782   2.132   0.578 -1.2002 -1.6388  1.1252
 7302SOL    HW222591   4.737   2.162   0.719 -0.6455  2.5941  0.5502
 7303SOL     OW22592   3.184   1.134   6.066  0.0353  0.2139 -0.5478
 7303SOL    HW122593   3.135   1.215   6.054 -2.3063 -0.8406  1.1375
 7303SOL    HW222594   3.188   1.122   6.161  0.7407 -1.3984 -0.7474
 7304SOL     OW22595   6.068   5.903   4.208 -0.3081 -0.3368 -0.0315
 7304SOL    HW122596   6.150   5.951   4.194 -0.4784 -0.0932 -0.1889
 7304SOL    HW222597   6.018   5.959   4.267 -0.3208 -0.5343  0.1458
 7305SOL     OW22598   5.698   0.029   0.247  0.2478  0.4465 -0.4251
 7305SOL    HW122599   5.775   0.049   0.194 -0.7950  3.0814 -1.1456
 7305SOL    HW222600   5.683   0.109   0.298 -1.9380  0.0061 -0.2685
 7306SOL     OW22601   4.886   4.262   6.777  0.1037  0.0178 -0.0121
 7306SOL    HW122602   4.957   4.233   6.720 -0.8794 -0.8789 -0.8295
 7306SOL    HW222603   4.923   4.260   6.865  1.7705  1.7696 -0.5969
 7307SOL     OW22604   6.035   2.631   2.972 -0.2135  0.4913  0.4865
 7307SOL    HW122605   6.098   2.702   2.986  1.8189 -1.0565 -0.2034
 7307SOL    HW222606   6.002   2.646   2.884  0.8736  0.1643 -0.0046
 7308SOL     OW22607   4.290   0.021   3.539 -0.2740  0.3807 -0.0837
 7308SOL    HW122608   4.311  -0.064   3.578 -2.2373  0.4731  1.3622
 7308SOL    HW222609   4.338   0.022   3.456 -1.8800 -3.1157 -1.2699
 7309SOL     OW22610   6.544   2.237   2.522 -0.1014  0.4473 -0.2945
 7309SOL    HW122611   6.463   2.287   2.512 -0.3913  0.3185  1.2043
 7309SOL    HW222612   6.568   2.211   2.433 -1.7552  0.4175 -0.7500
 7310SOL     OW22613   0.906   5.303   5.006 -0.1913  0.0855  0.0129
 7310SOL    HW122614   0.869   5.391   5.009  0.0885  0.1878  0.7132
 7310SOL    HW222615   0.882   5.269   4.920  0.9784  1.4135 -0.8891
 7311SOL     OW22616   2.775   5.879   2.828  0.6645  0.5190  0.7641
 7311SOL    HW122617   2.680   5.881   2.815  0.3601 -1.0022  2.3067
 7311SOL    HW222618   2.788   5.808   2.891  2.8341  0.7311  0.6092
 7312SOL     OW22619   6.250   0.085   0.134 -0.3536 -0.1390  0.3440
 7312SOL    HW122620   6.201   0.143   0.192 -0.4193 -0.5635  0.7216
 7312SOL    HW222621   6.223  -0.004   0.160 -1.9286 -0.3295 -1.6779
 7313SOL     OW22622   1.616   6.677   0.599  0.2161  0.1832  0.2538
 7313SOL    HW122623   1.546   6.733   0.631  0.5212  0.3023  0.7316
 7313SOL    HW222624   1.683   6.681   0.667  0.3289 -0.6014  0.2086
 7314SOL     OW22625   6.489   4.096   5.858  0.0255 -0.2562  0.6305
 7314SOL    HW122626   6.570   4.144   5.845 -0.4863  0.4015 -0.1546
 7314SOL    HW222627   6.425   4.162   5.886 -0.7372 -0.4122 -0.6737
 7315SOL     OW22628   5.130   5.589   4.532 -0.5831 -0.9317 -0.7241
 7315SOL    HW122629   5.126   5.559   4.623  0.0933  1.6095  0.2375
 7315SOL    HW222630   5.100   5.680   4.535 -0.0878 -0.6189 -2.9641
 7316SOL     OW22631   6.494   5.759   1.450 -0.1196  0.1163  0.1859
 7316SOL    HW122632   6.442   5.732   1.525  0.6211 -3.0993 -0.2997
 7316SOL    HW222633   6.431   5.796   1.388 -1.7139 -2.3823  0.1654
 7317SOL     OW22634   2.209   2.450   5.182  0.0020 -0.3565  0.7005
 7317SOL    HW122635   2.172   2.501   5.254  0.1422 -1.5906  1.6912
 7317SOL    HW222636   2.134   2.423   5.130 -0.1767 -0.0958  0.8208
 7318SOL     OW22637   1.324   6.828   5.913  0.8761 -0.1454  0.1025
 7318SOL    HW122638   1.382   6.752   5.911 -1.2653 -1.9030 -1.8776
 7318SOL    HW222639   1.256   6.805   5.976 -0.4073 -0.4879 -1.3243
 7319SOL     OW22640   2.816   5.279   2.298  0.0637 -0.4153 -0.3223
 7319SOL    HW122641   2.802   5.371   2.319  0.5366 -0.4452  0.1505
 7319SOL    HW222642   2.806   5.234   2.382  0.4728 -0.7201 -0.4366
 7320SOL     OW22643   0.141   4.489   1.809 -0.2031 -0.0121  0.7806
 7320SOL    HW122644   0.106   4.578   1.806  0.2517  0.1981  1.4086
 7320SOL    HW222645   0.188   4.485   1.893  0.3370 -0.6318  0.4547
 7321SOL     OW22646   0.656   2.737   2.808 -0.3186  0.2814 -0.0342
 7321SOL    HW122647   0.745   2.719   2.838 -0.1431  1.3930  0.1463
 7321SOL    HW222648   0.600   2.694   2.873  0.0280 -2.1204 -1.1849
 7322SOL     OW22649   6.689   6.785   5.870  0.0878 -0.4556 -0.7418
 7322SOL    HW122650   6.650   6.751   5.951 -0.4278 -2.1111 -1.6499
 7322SOL    HW222651   6.783   6.793   5.890 -0.2026  0.4002  0.4054
 7323SOL     OW22652   0.597   3.745   4.341  0.2933 -0.2729  0.0748
 7323SOL    HW122653   0.566   3.804   4.272 -2.6784 -2.7008 -0.8815
 7323SOL    HW222654   0.578   3.792   4.422  0.2546  1.0704 -0.6715
 7324SOL     OW22655   6.087   2.912   1.266 -0.2146  0.3935 -0.1675
 7324SOL    HW122656   6.145   2.976   1.308 -0.9027  0.2822  0.9941
 7324SOL    HW222657   6.004   2.922   1.312 -0.8794 -0.0445 -1.2352
 7325SOL     OW22658   0.277   6.256   4.582  0.0377 -0.2810 -0.3212
 7325SOL    HW122659   0.183   6.258   4.564  0.0151 -2.2367 -0.5960
 7325SOL    HW222660   0.292   6.171   4.623  1.3114  1.0093  2.1428
 7326SOL     OW22661   4.549   5.437   5.597  0.1951 -0.0309  0.3231
 7326SOL    HW122662   4.645   5.436   5.604  0.2154  1.0176  0.3228
 7326SOL    HW222663   4.518   5.443   5.688  0.1424  0.1155  0.2959
 7327SOL     OW22664   0.399   1.586   3.556 -0.3657  0.4919 -0.5541
 7327SOL    HW122665   0.462   1.599   3.485 -0.6327  0.7631 -0.7445
 7327SOL    HW222666   0.397   1.670   3.601 -2.4564  1.3406 -2.0790
 7328SOL     OW22667   1.265   0.796   4.957 -0.6796 -0.8493  0.0590
 7328SOL    HW122668   1.330   0.773   4.890 -2.1500  0.5504 -1.9671
 7328SOL    HW222669   1.314   0.849   5.020  0.3660 -0.5184 -0.9758
 7329SOL     OW22670   0.053   4.559   1.117 -0.1943  0.2899 -0.1268
 7329SOL    HW122671  -0.028   4.566   1.067  0.1543 -1.2327 -0.9725
 7329SOL    HW222672   0.122   4.574   1.052  0.2129  1.0428  0.4743
 7330SOL     OW22673   2.101   0.158   3.514 -0.0844  0.2189  0.0574
 7330SOL    HW122674   2.129   0.086   3.457 -1.7813  0.8189 -1.6470
 7330SOL    HW222675   2.181   0.188   3.556  1.2143 -0.5215 -1.7481
 7331SOL     OW22676   4.990   5.007   3.404 -0.4552 -0.0159 -0.2717
 7331SOL    HW122677   4.931   5.057   3.461 -0.9810  0.0829 -0.8917
 7331SOL    HW222678   4.934   4.976   3.333  0.3633  0.6798 -1.2579
 7332SOL     OW22679   5.313   4.902   2.079 -0.2588 -0.4255  0.4109
 7332SOL    HW122680   5.399   4.939   2.101  0.5543 -0.0477 -2.9162
 7332SOL    HW222681   5.293   4.845   2.153  1.5547  1.5191  2.5825
 7333SOL     OW22682   0.410   6.853   1.718  0.2148  0.0496 -0.8051
 7333SOL    HW122683   0.405   6.928   1.659 -0.3027  2.6058  2.2531
 7333SOL    HW222684   0.500   6.822   1.711  0.3953  0.8227 -2.2264
 7334SOL     OW22685   0.211   4.708   6.832  0.0656 -0.2733 -0.1473
 7334SOL    HW122686   0.242   4.738   6.747  1.5328 -1.1669  0.0394
 7334SOL    HW222687   0.254   4.624   6.845  0.0963 -0.0293  1.5982
 7335SOL     OW22688   1.147   3.767   6.698 -0.2093  0.1737 -0.5151
 7335SOL    HW122689   1.160   3.790   6.790  1.2863 -0.9860 -0.3928
 7335SOL    HW222690   1.214   3.816   6.651 -1.2196  1.0670 -1.0664
 7336SOL     OW22691   4.678   2.641   2.601 -0.2541  0.0886 -0.3296
 7336SOL    HW122692   4.686   2.618   2.509  0.1860 -1.2098  0.0175
 7336SOL    HW222693   4.596   2.601   2.629  1.8357 -3.7886  0.9827
 7337SOL     OW22694   4.294   0.034   0.711  0.1157  0.0155 -0.1068
 7337SOL    HW122695   4.305  -0.014   0.793 -0.7439  1.1200  0.6795
 7337SOL    HW222696   4.203   0.018   0.686  0.5939 -0.9931 -1.3159
 7338SOL     OW22697   2.238   6.560   4.112 -0.3144 -0.2225  0.7515
 7338SOL    HW122698   2.326   6.527   4.133 -0.1986 -0.2540  0.2180
 7338SOL    HW222699   2.209   6.603   4.192  0.4448  0.3484  0.7262
 7339SOL     OW22700   0.417   5.729   5.619  0.7467 -0.5868  0.6595
 7339SOL    HW122701   0.456   5.743   5.706  1.0401 -0.4908  0.5140
 7339SOL    HW222702   0.476   5.668   5.576  0.5422 -0.7192  0.5637
 7340SOL     OW22703   5.822   1.493   2.227  0.4601  0.2863  0.4469
 7340SOL    HW122704   5.760   1.457   2.290  0.8075  0.9806  1.2124
 7340SOL    HW222705   5.874   1.418   2.199 -0.8620 -0.3474 -0.3862
 7341SOL     OW22706   3.391   5.159   2.125 -0.1584  0.3050 -0.3213
 7341SOL    HW122707   3.303   5.177   2.091  0.1179  2.3204 -0.0528
 7341SOL    HW222708   3.392   5.197   2.212  1.0401  0.4739 -0.3909
 7342SOL     OW22709   2.485   5.864   5.760  0.5799  0.4991 -0.1080
 7342SOL    HW122710   2.451   5.835   5.844 -0.1549  0.0812 -0.5437
 7342SOL    HW222711   2.476   5.960   5.762  0.0253  0.4425  0.0556
 7343SOL     OW22712   3.449   0.832   3.516  0.2127  0.0745  0.0448
 7343SOL    HW122713   3.495   0.857   3.595 -0.9084 -0.6065  0.9485
 7343SOL    HW222714   3.390   0.905   3.498  1.2824  0.7554 -0.8689
 7344SOL     OW22715   3.479   3.178   6.254  0.6780  0.3791 -0.2833
 7344SOL    HW122716   3.390   3.156   6.227  0.5042 -0.7528  1.1214
 7344SOL    HW222717   3.471   3.260   6.302  0.4052  0.3190 -0.2277
 7345SOL     OW22718   3.322   1.742   0.428 -0.0069 -0.1967  0.1517
 7345SOL    HW122719   3.319   1.684   0.352 -0.0926 -0.2723  0.2132
 7345SOL    HW222720   3.364   1.691   0.497 -1.1442 -0.6042  0.5649
 7346SOL     OW22721   5.651   5.536   4.336  0.0676 -0.3314  0.7833
 7346SOL    HW122722   5.712   5.462   4.345  2.4027  1.3964  0.3532
 7346SOL    HW222723   5.703   5.604   4.292 -2.8909  0.5540 -1.6099
 7347SOL     OW22724   4.469   3.334   1.740  0.4111  0.3136  0.1119
 7347SOL    HW122725   4.407   3.402   1.766  0.0294  0.0127 -0.0175
 7347SOL    HW222726   4.471   3.339   1.645 -2.5830 -2.4183 -0.2565
 7348SOL     OW22727   3.176   5.065   1.792 -0.4239  0.1758  0.1464
 7348SOL    HW122728   3.224   4.990   1.829 -1.2921  0.1914  1.3732
 7348SOL    HW222729   3.158   5.039   1.702 -0.6703 -1.1061  0.5317
 7349SOL     OW22730   0.124   2.895   0.226  0.3027  0.0801 -0.2316
 7349SOL    HW122731   0.181   2.954   0.177 -0.8756  1.2850 -0.1860
 7349SOL    HW222732   0.108   2.940   0.309  0.4812 -0.9341  0.3798
 7350SOL     OW22733   6.385   2.785   3.165 -0.0913 -0.4688  0.5216
 7350SOL    HW122734   6.388   2.708   3.109  1.1949 -0.8764  1.1100
 7350SOL    HW222735   6.355   2.752   3.249 -1.0471 -0.0334  0.3650
 7351SOL     OW22736   6.705   1.825   2.592 -0.0594 -0.1672  0.0572
 7351SOL    HW122737   6.760   1.751   2.569 -0.1862  0.4167 -2.5171
 7351SOL    HW222738   6.731   1.894   2.530 -0.5136  1.6713  1.8046
 7352SOL     OW22739   2.226   0.659   6.866 -0.4538  0.1499  0.1339
 7352SOL    HW122740   2.232   0.658   6.770  0.1776  0.0133  0.1676
 7352SOL    HW222741   2.291   0.594   6.894 -1.8541 -1.1039  0.5952
 7353SOL     OW22742   2.740   3.479   1.584 -0.1291 -0.0089  0.2776
 7353SOL    HW122743   2.733   3.463   1.489 -0.9657 -0.5258  0.4125
 7353SOL    HW222744   2.667   3.429   1.621  0.3088  0.0401  1.2143
 7354SOL     OW22745   5.401   3.500   1.112 -0.3715 -0.4314 -0.7384
 7354SOL    HW122746   5.451   3.533   1.037  3.0480 -0.1804  1.4704
 7354SOL    HW222747   5.429   3.409   1.121  0.7224  0.0694  1.3037
 7355SOL     OW22748   5.172   2.012   4.035 -0.2245  0.0883  0.2621
 7355SOL    HW122749   5.090   1.977   4.000  0.4858 -0.5856 -0.7790
 7355SOL    HW222750   5.171   1.986   4.128 -1.4902  0.6998  0.4416
 7356SOL     OW22751   6.845   2.140   3.935 -0.2084 -0.3108  0.0264
 7356SOL    HW122752   6.941   2.136   3.935 -0.0977  1.5865  0.4693
 7356SOL    HW222753   6.824   2.209   3.873 -1.1694  0.7733  1.4836
 7357SOL     OW22754   4.103   2.570   4.110  0.2216 -0.1994 -0.4373
 7357SOL    HW122755   4.167   2.503   4.088  1.1946  0.3144  0.6904
 7357SOL    HW222756   4.066   2.542   4.193  0.9996  0.8562  0.3072
 7358SOL     OW22757   2.810   2.344   3.760 -0.6428 -0.8392 -0.3320
 7358SOL    HW122758   2.778   2.430   3.788  0.4635 -0.1625 -1.0648
 7358SOL    HW222759   2.898   2.361   3.727  0.2007 -2.5007  0.8886
 7359SOL     OW22760   0.303   1.400   6.599  0.2067 -0.5755 -0.6929
 7359SOL    HW122761   0.263   1.314   6.587  1.4536 -1.2280 -0.4067
 7359SOL    HW222762   0.359   1.411   6.523  2.5005 -1.4745  0.7437
 7360SOL     OW22763   1.450   5.286   0.982  0.1765  0.1450  0.5769
 7360SOL    HW122764   1.381   5.352   0.975  0.9788  0.9638  0.1487
 7360SOL    HW222765   1.527   5.335   1.010  0.8629 -0.5656 -0.0130
 7361SOL     OW22766   2.453   0.949   5.688 -0.4664  0.1243  0.4217
 7361SOL    HW122767   2.428   0.959   5.780  0.0311 -0.4145  0.6198
 7361SOL    HW222768   2.416   1.026   5.645 -2.5820 -0.6748  0.6693
 7362SOL     OW22769   1.655   3.568   2.972 -0.1163  0.6213  0.4808
 7362SOL    HW122770   1.621   3.488   2.931  1.5027 -0.8752  1.8745
 7362SOL    HW222771   1.671   3.628   2.899 -1.1511 -0.4201 -0.6269
 7363SOL     OW22772   2.275   6.327   5.670 -0.0524 -0.0060  0.1008
 7363SOL    HW122773   2.224   6.276   5.733  0.2413  0.2647  0.5546
 7363SOL    HW222774   2.254   6.418   5.690  0.2290  0.0895 -0.0337
 7364SOL     OW22775   6.047   1.649   0.106 -0.1978  0.0846 -0.3006
 7364SOL    HW122776   5.972   1.601   0.069 -0.0762 -0.4511  0.1304
 7364SOL    HW222777   6.042   1.735   0.066 -1.9645  0.5912  0.8679
 7365SOL     OW22778   1.096   1.708   0.938 -0.6077 -0.4131 -0.3091
 7365SOL    HW122779   1.044   1.695   1.018 -0.2805 -0.8231 -0.1645
 7365SOL    HW222780   1.117   1.802   0.939  1.2517 -0.7928  1.2306
 7366SOL     OW22781   0.946   0.649   5.350 -0.2023 -0.1275  0.0131
 7366SOL    HW122782   0.915   0.564   5.383  0.6713 -1.0388 -1.4185
 7366SOL    HW222783   0.899   0.661   5.267 -0.1109  0.6656  0.0678
 7367SOL     OW22784   4.092   4.693   1.525 -0.2165 -0.7508 -0.2625
 7367SOL    HW122785   4.119   4.752   1.595  0.9624  0.9735 -2.0513
 7367SOL    HW222786   4.154   4.621   1.528  1.0243  0.2714 -0.6772
 7368SOL     OW22787   3.439   5.648   6.461 -0.2102  0.1225  0.2478
 7368SOL    HW122788   3.351   5.632   6.495 -0.1579 -1.5238 -0.3239
 7368SOL    HW222789   3.448   5.587   6.388  0.3979  2.1833 -1.5008
 7369SOL     OW22790   1.473   4.236   6.008  0.1724 -0.0706 -0.6566
 7369SOL    HW122791   1.431   4.150   6.016  0.4750 -0.1873 -0.2746
 7369SOL    HW222792   1.543   4.223   5.943  1.5711 -0.6685  0.8844
 7370SOL     OW22793   5.296   4.649   5.878  0.3253  0.4269 -0.4130
 7370SOL    HW122794   5.371   4.592   5.896  0.4552  0.9376  0.7266
 7370SOL    HW222795   5.220   4.593   5.887  0.4810  0.3068  0.1830
 7371SOL     OW22796   2.734   5.690   4.288 -0.6071  0.5241  0.6228
 7371SOL    HW122797   2.781   5.612   4.257  0.6843  1.6074 -0.2893
 7371SOL    HW222798   2.666   5.656   4.347  0.1849 -1.2423  0.5767
 7372SOL     OW22799   0.808   2.486   2.255  0.6080  0.1222 -0.4631
 7372SOL    HW122800   0.750   2.441   2.194  0.7640 -0.2531 -0.3362
 7372SOL    HW222801   0.786   2.579   2.246  0.2875  0.0188 -0.7258
 7373SOL     OW22802   3.341   6.257   5.391  0.0381  0.5172  0.2556
 7373SOL    HW122803   3.327   6.289   5.301 -0.1297  2.2818  0.8632
 7373SOL    HW222804   3.253   6.240   5.424  0.0166  0.9563  0.4379
 7374SOL     OW22805   4.755   3.944   0.032  0.1913 -0.0123 -0.4610
 7374SOL    HW122806   4.848   3.928   0.021  0.5608  1.3435  0.4246
 7374SOL    HW222807   4.750   4.030   0.075 -1.4852  0.6172 -1.7597
 7375SOL     OW22808   0.804   0.779   0.889  0.0137  0.0642  0.3061
 7375SOL    HW122809   0.770   0.812   0.805 -0.0533  0.9403  0.6670
 7375SOL    HW222810   0.869   0.713   0.865  1.2052  1.4836 -0.4720
 7376SOL     OW22811   5.796   6.053   3.240  0.1474 -0.0913 -0.2269
 7376SOL    HW122812   5.747   6.081   3.163 -0.2449 -1.6062 -0.5739
 7376SOL    HW222813   5.741   6.078   3.314 -0.0632  0.2740 -0.5063
 7377SOL     OW22814   3.765   1.829   2.644  0.3517 -0.4905  0.0147
 7377SOL    HW122815   3.766   1.925   2.650  0.4818 -0.5677  1.5395
 7377SOL    HW222816   3.707   1.810   2.570  0.9771  0.7793 -0.8318
 7378SOL     OW22817   6.681   5.090   6.317 -0.5326 -0.0506 -0.0204
 7378SOL    HW122818   6.597   5.121   6.283 -0.4241  0.2327 -0.0325
 7378SOL    HW222819   6.698   5.010   6.268 -0.7983 -0.1118 -0.0169
 7379SOL     OW22820   1.407   4.222   4.392  0.2866 -0.3441  0.4521
 7379SOL    HW122821   1.394   4.316   4.407 -2.5255 -0.1478 -2.1765
 7379SOL    HW222822   1.443   4.216   4.304 -2.4788 -1.7133 -0.6996
 7380SOL     OW22823   3.178   1.609   2.797 -0.3016  0.3864 -0.3288
 7380SOL    HW122824   3.153   1.557   2.873  2.4606  0.4846  0.7501
 7380SOL    HW222825   3.183   1.546   2.725 -0.2945 -0.2097  0.1911
 7381SOL     OW22826   3.659   3.439   0.543 -0.1721 -0.2088  0.1535
 7381SOL    HW122827   3.739   3.491   0.546  1.3677 -2.4031 -0.7088
 7381SOL    HW222828   3.673   3.369   0.607 -0.8616 -1.3198 -0.8689
 7382SOL     OW22829   4.190   1.935   0.485  0.2222 -0.3332  0.1947
 7382SOL    HW122830   4.166   1.987   0.408  1.0065 -1.1959 -0.6566
 7382SOL    HW222831   4.183   1.844   0.456  0.8072 -0.6737  1.0573
 7383SOL     OW22832   2.492   0.040   0.553 -0.1151  0.0109  0.3279
 7383SOL    HW122833   2.551   0.107   0.520 -0.9393 -0.2338 -1.8100
 7383SOL    HW222834   2.508   0.038   0.647  0.9662  2.1657  0.2508
 7384SOL     OW22835   6.863   6.077   5.279  0.1489  0.7776 -0.4865
 7384SOL    HW122836   6.954   6.100   5.302 -0.2356  2.1998 -0.2522
 7384SOL    HW222837   6.857   6.095   5.186  0.4479 -0.5641 -0.7762
 7385SOL     OW22838   6.491   5.927   3.474  0.1885  0.1569 -0.0704
 7385SOL    HW122839   6.517   5.922   3.566  0.8065 -1.3022 -0.3037
 7385SOL    HW222840   6.570   5.905   3.425 -0.6940 -1.3576 -0.8904
 7386SOL     OW22841   4.158   0.768   2.971  0.2108 -0.8731  0.2479
 7386SOL    HW122842   4.244   0.737   2.944  0.2066 -1.0243  0.4034
 7386SOL    HW222843   4.167   0.785   3.065 -0.3279 -2.2872  0.5808
 7387SOL     OW22844   0.269   3.231   1.559 -0.1759  0.3913 -0.4782
 7387SOL    HW122845   0.257   3.276   1.475 -0.2027  0.0408 -0.6639
 7387SOL    HW222846   0.180   3.208   1.587 -0.0748 -0.6560 -0.9990
 7388SOL     OW22847   3.539   4.071   2.456 -0.4052  0.4380 -0.3128
 7388SOL    HW122848   3.593   4.135   2.410  1.3838 -1.0280 -0.3929
 7388SOL    HW222849   3.602   4.009   2.493 -2.0495 -1.3506 -0.3534
 7389SOL     OW22850   3.707   1.541   6.175  0.3365  0.1249  0.9191
 7389SOL    HW122851   3.623   1.585   6.157 -0.0584 -0.2405  1.8102
 7389SOL    HW222852   3.755   1.547   6.093 -1.5126 -1.7912 -0.4235
 7390SOL     OW22853   4.013   1.382   4.531 -0.2919 -0.6028 -0.1789
 7390SOL    HW122854   4.032   1.361   4.440 -0.6025  0.4762 -0.5115
 7390SOL    HW222855   3.955   1.458   4.526 -0.4539 -0.6421  0.9169
 7391SOL     OW22856   1.680   3.568   4.557  0.0251  0.1211  0.0934
 7391SOL    HW122857   1.642   3.605   4.478 -1.2604 -0.6153  0.3308
 7391SOL    HW222858   1.683   3.641   4.619  0.1191  0.4740 -0.3235
 7392SOL     OW22859   3.375   5.700   1.412  0.1325  0.4369 -0.2985
 7392SOL    HW122860   3.406   5.789   1.428 -1.0706  0.6256  1.2637
 7392SOL    HW222861   3.279   5.709   1.409  0.0136 -0.7483 -0.5288
 7393SOL     OW22862   2.399   5.296   6.534  0.5214  0.4392 -0.3097
 7393SOL    HW122863   2.487   5.312   6.568 -0.2061  0.2596  1.7871
 7393SOL    HW222864   2.341   5.312   6.608 -1.1900  0.0518 -1.5039
 7394SOL     OW22865   1.242   0.525   1.103  0.4991 -0.1031 -0.0319
 7394SOL    HW122866   1.304   0.592   1.132  0.4913  0.5550 -1.4467
 7394SOL    HW222867   1.294   0.465   1.050  0.3239 -0.7068  0.4711
 7395SOL     OW22868   3.832   2.646   6.107 -0.0874 -0.8390  0.2903
 7395SOL    HW122869   3.794   2.571   6.061 -1.2642 -1.0157  1.5090
 7395SOL    HW222870   3.768   2.716   6.096 -1.4883 -1.4835  3.3745
 7396SOL     OW22871   4.592   3.713   3.090 -0.3390  0.0847  0.8014
 7396SOL    HW122872   4.570   3.671   3.006  1.0104  1.1003 -0.1023
 7396SOL    HW222873   4.621   3.801   3.066  2.2417 -0.3095  2.0914
 7397SOL     OW22874   2.669   1.279   3.490  0.2046 -0.7152  0.3289
 7397SOL    HW122875   2.623   1.345   3.439  0.8170  0.7236  1.5727
 7397SOL    HW222876   2.656   1.197   3.441 -2.5540 -0.1365 -0.0220
 7398SOL     OW22877   1.737   5.900   5.282 -0.1540  0.2521  0.3530
 7398SOL    HW122878   1.776   5.902   5.194 -0.4443  1.5780  0.2311
 7398SOL    HW222879   1.662   5.842   5.274 -0.3611  0.6092 -0.3644
 7399SOL     OW22880   4.809   4.459   4.056 -0.1256  0.3648 -0.0003
 7399SOL    HW122881   4.899   4.436   4.078 -0.6078  0.1902  2.0658
 7399SOL    HW222882   4.757   4.386   4.090 -1.0333  0.1024 -1.8154
 7400SOL     OW22883   3.723   6.687   2.896 -0.1945 -0.3052 -0.7790
 7400SOL    HW122884   3.691   6.736   2.820 -0.2655 -0.4636 -0.8522
 7400SOL    HW222885   3.648   6.634   2.923  0.2937 -1.3933 -1.5366
 7401SOL     OW22886   4.091   0.288   5.176 -0.0762 -0.3601  0.0946
 7401SOL    HW122887   4.118   0.209   5.129  1.9103  0.9564 -1.0936
 7401SOL    HW222888   4.047   0.341   5.110 -0.2879  0.0559  0.5699
 7402SOL     OW22889   6.222   3.866   6.860  0.5729 -0.4711 -0.6662
 7402SOL    HW122890   6.277   3.794   6.890  0.5486 -0.0164  0.5381
 7402SOL    HW222891   6.185   3.836   6.777 -0.0325 -2.1552  0.1789
 7403SOL     OW22892   0.122   1.208   4.711 -0.6779 -0.4017 -0.6808
 7403SOL    HW122893   0.152   1.119   4.691 -1.4954 -0.6118 -1.0252
 7403SOL    HW222894   0.202   1.258   4.726 -0.1362 -0.8321 -1.9957
 7404SOL     OW22895   1.173   1.091   0.450 -0.0505  0.3085  0.1423
 7404SOL    HW122896   1.083   1.101   0.417 -0.6770  2.6925  2.2681
 7404SOL    HW222897   1.165   1.028   0.522  0.4786 -1.2980 -1.1439
 7405SOL     OW22898   0.126   6.641   6.442 -0.2219 -0.1518  0.0884
 7405SOL    HW122899   0.169   6.633   6.358  0.2660 -2.0373  0.4849
 7405SOL    HW222900   0.048   6.695   6.424  0.7434  0.8867 -1.1835
 7406SOL     OW22901   3.733   3.325   4.723 -0.0699 -1.0506  0.0543
 7406SOL    HW122902   3.787   3.311   4.645  0.3904 -2.9058  0.6519
 7406SOL    HW222903   3.654   3.274   4.706 -0.9933  0.3788 -0.1319
 7407SOL     OW22904   5.320   3.783   0.874 -0.4128  0.1062 -0.0094
 7407SOL    HW122905   5.282   3.840   0.941  1.6273  2.5130 -0.7328
 7407SOL    HW222906   5.274   3.808   0.794  1.1951  1.6096 -0.5233
 7408SOL     OW22907   5.031   5.352   3.614  0.0470 -0.1755 -0.1742
 7408SOL    HW122908   4.998   5.376   3.527  0.0510  0.1863 -0.0751
 7408SOL    HW222909   5.029   5.433   3.664  2.3561  0.2006 -0.5500
 7409SOL     OW22910   1.863   3.204   4.678 -0.0282  0.4848  0.2307
 7409SOL    HW122911   1.896   3.267   4.613 -0.9035  1.3679  0.6324
 7409SOL    HW222912   1.941   3.179   4.728  0.4194  0.8239 -0.2824
 7410SOL     OW22913   1.569   0.893   6.029  0.0183 -0.1561  0.0497
 7410SOL    HW122914   1.476   0.882   6.007 -0.1805  0.9275  0.2661
 7410SOL    HW222915   1.589   0.983   6.002  0.6695  0.0367  1.1363
 7411SOL     OW22916   2.635   2.383   2.998  0.1115  0.9126  0.0913
 7411SOL    HW122917   2.541   2.379   3.010 -0.2250 -1.7823 -2.3458
 7411SOL    HW222918   2.670   2.394   3.087 -2.4278  1.5389  1.1017
 7412SOL     OW22919   0.643   3.372   2.878 -1.0193  0.1832 -0.2660
 7412SOL    HW122920   0.612   3.293   2.923  1.8762 -0.7710  0.3356
 7412SOL    HW222921   0.683   3.424   2.948 -0.7588  1.0222 -1.0275
 7413SOL     OW22922   2.124   3.645   4.455  0.1394  0.2623 -0.8655
 7413SOL    HW122923   2.112   3.658   4.549  0.6934 -0.7767 -0.6391
 7413SOL    HW222924   2.130   3.734   4.419  0.7843  0.6686  0.1971
 7414SOL     OW22925   6.265   1.172   4.589 -0.5695 -0.5551 -0.2129
 7414SOL    HW122926   6.336   1.117   4.623 -1.5111 -0.9143  1.2670
 7414SOL    HW222927   6.260   1.149   4.496  1.2863 -0.4477 -0.3856
 7415SOL     OW22928   5.883   5.339   6.624  0.2685  0.2044 -0.2043
 7415SOL    HW122929   5.900   5.426   6.589 -0.5833  0.2284 -0.5749
 7415SOL    HW222930   5.947   5.329   6.695  0.7828  0.8781 -0.5638
 7416SOL     OW22931   0.553   1.576   1.619 -0.5099  0.3770  0.0957
 7416SOL    HW122932   0.499   1.626   1.558  0.3509  0.1740 -0.8553
 7416SOL    HW222933   0.598   1.642   1.671  0.5058  0.6005 -1.0525
 7417SOL     OW22934   5.640   1.404   3.746  0.5110 -0.1364  0.1661
 7417SOL    HW122935   5.613   1.313   3.759 -1.8873  0.7607  2.3961
 7417SOL    HW222936   5.716   1.414   3.804 -0.8385 -0.1346  2.0422
 7418SOL     OW22937   2.858   4.506   6.802  0.4672 -0.3563 -0.1682
 7418SOL    HW122938   2.809   4.571   6.751  1.4919 -0.3987 -1.2323
 7418SOL    HW222939   2.795   4.476   6.868 -0.8039 -0.0842 -1.2101
 7419SOL     OW22940   3.444   6.657   5.833  0.4894 -0.4601 -0.2982
 7419SOL    HW122941   3.518   6.670   5.773  0.0906  0.2871 -0.6429
 7419SOL    HW222942   3.485   6.640   5.918  1.0656  0.2385 -0.4231
 7420SOL     OW22943   6.860   2.862   1.846 -0.4343  0.6789  0.4243
 7420SOL    HW122944   6.852   2.832   1.937 -1.5039  0.7085  0.3495
 7420SOL    HW222945   6.906   2.792   1.801 -0.7039  0.2597  0.7988
 7421SOL     OW22946   0.606   5.883   4.635  0.5763 -0.3103 -0.1981
 7421SOL    HW122947   0.572   5.925   4.557 -0.4987 -0.1704  0.3222
 7421SOL    HW222948   0.618   5.791   4.611  3.8264  0.3575 -1.6301
 7422SOL     OW22949   6.156   3.093   0.706 -0.2435  0.1931 -0.4198
 7422SOL    HW122950   6.223   3.044   0.659 -1.1874 -0.4458 -1.1451
 7422SOL    HW222951   6.090   3.027   0.730 -0.2818  0.6872  0.8876
 7423SOL     OW22952   5.953   5.373   0.794  0.2645  0.3396 -0.5445
 7423SOL    HW122953   6.001   5.453   0.774  0.2995  0.3437 -0.4467
 7423SOL    HW222954   6.019   5.312   0.828  0.0501  0.6751  0.5102
 7424SOL     OW22955   1.565   5.949   5.615  0.3944  0.6190 -0.4613
 7424SOL    HW122956   1.654   5.979   5.635  0.8291  0.9547 -2.6269
 7424SOL    HW222957   1.567   5.856   5.637  0.3330  1.1778  2.2680
 7425SOL     OW22958   5.928   5.239   5.524 -0.6122  0.2717 -0.2484
 7425SOL    HW122959   5.937   5.278   5.437 -1.7995 -0.8695 -0.9305
 7425SOL    HW222960   5.836   5.250   5.546 -1.0577 -2.1300 -0.5464
 7426SOL     OW22961   5.414   2.366   3.370  0.2177  0.0281 -0.0211
 7426SOL    HW122962   5.384   2.280   3.339 -1.6460  0.6760 -0.1354
 7426SOL    HW222963   5.449   2.408   3.292  0.3202 -0.3005 -0.1564
 7427SOL     OW22964   6.582   0.015   3.689  0.1780 -0.1076 -0.1503
 7427SOL    HW122965   6.610   0.063   3.610  0.2689  2.5868  1.4093
 7427SOL    HW222966   6.661  -0.030   3.718  1.1514  1.7803  0.3076
 7428SOL     OW22967   2.946   0.421   0.671 -0.2327  0.4737  0.5229
 7428SOL    HW122968   3.033   0.401   0.704  0.2305  0.5992 -0.5629
 7428SOL    HW222969   2.933   0.359   0.599 -1.1654  0.2605  0.8556
 7429SOL     OW22970   5.348   4.847   2.387  0.1917 -0.2994 -0.6639
 7429SOL    HW122971   5.336   4.937   2.357 -0.9358  0.0132  0.6163
 7429SOL    HW222972   5.416   4.853   2.454 -1.0028 -0.0628  0.6060
 7430SOL     OW22973   2.901   1.245   2.930  0.1077 -0.2124 -0.3105
 7430SOL    HW122974   2.907   1.155   2.962  0.8049 -0.6508 -1.5894
 7430SOL    HW222975   2.855   1.292   2.999  1.7735 -1.0296  1.4569
 7431SOL     OW22976   6.770   4.397   2.107 -0.2247 -0.5144 -0.4757
 7431SOL    HW122977   6.716   4.381   2.184 -0.4475 -0.0979 -0.5437
 7431SOL    HW222978   6.839   4.330   2.112 -0.8373 -1.1565 -0.4835
 7432SOL     OW22979   3.063   6.048   4.698 -0.3124  0.7610  0.1441
 7432SOL    HW122980   3.024   6.102   4.766  1.2695  1.3482  0.6292
 7432SOL    HW222981   3.103   6.110   4.637  0.0205  0.1949 -0.2275
 7433SOL     OW22982   1.372   3.474   6.115 -0.2561  0.9849 -0.1421
 7433SOL    HW122983   1.310   3.546   6.100 -1.6346 -0.2884 -0.8163
 7433SOL    HW222984   1.317   3.395   6.115  1.2541 -0.0982  0.2538
 7434SOL     OW22985   4.149   3.802   6.624 -0.3208 -0.6625  0.4418
 7434SOL    HW122986   4.158   3.758   6.708 -3.1740  0.4087  1.4062
 7434SOL    HW222987   4.142   3.730   6.560  0.9047 -1.4818  1.1796
 7435SOL     OW22988   3.353   0.371   2.329  0.0773  0.3308 -0.1747
 7435SOL    HW122989   3.396   0.435   2.272 -0.1306  0.2669 -0.4058
 7435SOL    HW222990   3.415   0.357   2.400 -0.0731  1.1591  0.1430
 7436SOL     OW22991   1.447   4.663   3.108  0.1740 -0.0287 -0.4744
 7436SOL    HW122992   1.373   4.643   3.165  0.1287  1.5294  0.0606
 7436SOL    HW222993   1.511   4.704   3.166  1.0579 -0.4470 -1.1250
 7437SOL     OW22994   6.791   3.643   0.017 -0.3258  0.3904  0.5347
 7437SOL    HW122995   6.726   3.649   0.086 -0.8112 -1.4127  0.2887
 7437SOL    HW222996   6.851   3.716   0.033  0.9874 -1.2435  4.3166
 7438SOL     OW22997   3.748   6.719   4.478  0.3981  0.4307 -0.0799
 7438SOL    HW122998   3.762   6.652   4.410 -2.0484  0.4727 -0.7423
 7438SOL    HW222999   3.763   6.802   4.434 -2.2498  0.5145 -0.9995
 7439SOL     OW23000   0.345   5.327   1.455  0.6102  0.0675 -0.0805
 7439SOL    HW123001   0.403   5.358   1.386  0.7715  1.7732  0.7768
 7439SOL    HW223002   0.336   5.401   1.515 -3.2796  0.3205 -0.6823
 7440SOL     OW23003   2.618   4.675   4.284 -0.2122  0.0990 -1.1409
 7440SOL    HW123004   2.612   4.643   4.374 -2.1398 -1.2297 -1.6821
 7440SOL    HW223005   2.672   4.754   4.291  0.5519 -0.5177  1.0027
 7441SOL     OW23006   6.545   3.200   3.823  0.1562  0.5363  0.2622
 7441SOL    HW123007   6.538   3.104   3.823  0.0657  0.5154  1.9080
 7441SOL    HW223008   6.627   3.218   3.778  0.1368 -0.3029 -0.1360
 7442SOL     OW23009   2.857   4.091   4.904  0.3745  0.0962 -0.1660
 7442SOL    HW123010   2.892   4.095   4.993  2.0537  0.2174 -0.7894
 7442SOL    HW223011   2.896   4.167   4.860  2.1103 -1.6488 -1.8198
 7443SOL     OW23012   5.358   2.157   0.248  0.1078  0.1073 -0.1484
 7443SOL    HW123013   5.327   2.173   0.159 -0.5716 -1.6048 -0.2579
 7443SOL    HW223014   5.307   2.218   0.302 -2.4996 -1.5686 -0.5050
 7444SOL     OW23015   0.694   6.111   2.851 -0.2564  0.1188  0.3786
 7444SOL    HW123016   0.625   6.052   2.881  1.2697 -1.7961  0.3368
 7444SOL    HW223017   0.740   6.137   2.931 -0.1301  0.1873  0.2853
 7445SOL     OW23018   1.029   0.478   2.994  0.6360  0.1299 -0.0005
 7445SOL    HW123019   1.076   0.418   3.052  1.0687 -0.6451 -1.1354
 7445SOL    HW223020   1.034   0.438   2.908 -2.2715 -0.0991 -0.1733
 7446SOL     OW23021   0.548   3.951   1.020 -0.1065 -0.0945  0.6640
 7446SOL    HW123022   0.524   4.022   0.960  2.6095  2.4580  2.2935
 7446SOL    HW223023   0.475   3.890   1.015 -1.4226  1.4770 -2.8381
 7447SOL     OW23024   2.711   0.869   5.558  0.2971  0.5987  0.4873
 7447SOL    HW123025   2.621   0.894   5.575  0.1895 -0.0034  0.8292
 7447SOL    HW223026   2.706   0.776   5.534  0.8467  0.5070  0.7124
 7448SOL     OW23027   1.822   5.319   0.698 -0.0711  0.0838 -0.1820
 7448SOL    HW123028   1.763   5.394   0.686  1.2372  0.8921 -2.1598
 7448SOL    HW223029   1.852   5.299   0.609  1.5488 -1.1877  0.6116
 7449SOL     OW23030   4.344   5.256   3.303 -0.2785  0.2775  0.1476
 7449SOL    HW123031   4.304   5.340   3.278 -2.4456 -0.5284  0.6201
 7449SOL    HW223032   4.269   5.202   3.331  1.2471 -1.2203  1.5528
 7450SOL     OW23033   5.051   1.731   6.759 -0.4246 -0.0674  0.0332
 7450SOL    HW123034   5.099   1.668   6.814 -0.6472 -0.0611  0.2369
 7450SOL    HW223035   5.050   1.811   6.811 -0.8661 -0.1378  0.1313
 7451SOL     OW23036   5.289   6.250   2.259 -0.2453  0.0624 -0.1605
 7451SOL    HW123037   5.280   6.328   2.314  1.1854 -0.1319  0.3860
 7451SOL    HW223038   5.363   6.203   2.296  0.2830 -0.4680 -1.8130
 7452SOL     OW23039   1.699   6.822   5.231 -0.7075  0.2733  0.3687
 7452SOL    HW123040   1.737   6.847   5.315 -3.2275 -0.1479  1.7419
 7452SOL    HW223041   1.709   6.900   5.176 -0.2432  1.0462  1.5001
 7453SOL     OW23042   1.961   3.621   0.744  0.3273 -0.2905  0.3033
 7453SOL    HW123043   1.968   3.681   0.818 -0.0453  0.8840 -0.5850
 7453SOL    HW223044   1.954   3.534   0.784 -0.3217  0.3597  1.6517
 7454SOL     OW23045   4.456   0.699   0.304  0.0833  0.2360 -0.3324
 7454SOL    HW123046   4.365   0.671   0.314  0.1646  0.4280  1.1211
 7454SOL    HW223047   4.507   0.630   0.346  0.5781  0.3994 -0.6606
 7455SOL     OW23048   6.627   0.760   0.699 -0.1456  0.6226  0.2576
 7455SOL    HW123049   6.534   0.781   0.708 -0.3910  0.2358 -1.1757
 7455SOL    HW223050   6.654   0.804   0.619  1.1368  1.4446  1.1155
 7456SOL     OW23051   5.551   2.641   2.197  0.2463 -0.3826 -0.2946
 7456SOL    HW123052   5.628   2.609   2.150  0.9494  1.4062 -0.4561
 7456SOL    HW223053   5.480   2.632   2.134  0.6280 -0.6098 -0.7050
 7457SOL     OW23054   3.296   0.587   4.072  0.2911 -0.2135 -0.0927
 7457SOL    HW123055   3.252   0.658   4.024  1.0476  1.6612  1.8009
 7457SOL    HW223056   3.361   0.553   4.010 -0.8683 -0.0775 -1.4468
 7458SOL     OW23057   5.477   0.027   3.718 -0.2325  0.1814 -0.0609
 7458SOL    HW123058   5.543   0.094   3.735 -0.1779  0.4736 -1.3418
 7458SOL    HW223059   5.394   0.075   3.721 -0.2968  0.0507  0.3071
 7459SOL     OW23060   6.241   0.348   4.827 -0.1520 -0.0325 -0.0474
 7459SOL    HW123061   6.335   0.347   4.808 -0.3070 -1.5216 -0.9169
 7459SOL    HW223062   6.202   0.296   4.757 -1.6428  0.6295  0.2638
 7460SOL     OW23063   3.518   0.566   5.523  0.0786 -0.5721  0.1865
 7460SOL    HW123064   3.518   0.558   5.428  2.0496 -0.4151  0.1335
 7460SOL    HW223065   3.530   0.660   5.540  0.2608 -0.6662  0.5909
 7461SOL     OW23066   3.879   0.810   2.694 -0.8701  0.6103  0.1266
 7461SOL    HW123067   3.827   0.887   2.718 -0.0530  1.1822  0.0741
 7461SOL    HW223068   3.873   0.753   2.771 -1.4339  0.7397  0.1852
 7462SOL     OW23069   0.594   4.758   5.164 -0.4179  0.3400  0.3191
 7462SOL    HW123070   0.502   4.733   5.170  0.0874 -1.7654  0.1878
 7462SOL    HW223071   0.598   4.817   5.089 -1.4026 -1.1215 -0.9503
 7463SOL     OW23072   1.756   4.242   4.880  0.7604  0.1920  0.7696
 7463SOL    HW123073   1.679   4.292   4.905  0.1398 -1.4902  2.5065
 7463SOL    HW223074   1.731   4.196   4.800  0.3502  0.4600  0.7432
 7464SOL     OW23075   4.215   4.792   1.777  0.5731 -0.1981 -0.5107
 7464SOL    HW123076   4.263   4.714   1.806 -0.5551 -1.6366 -2.2804
 7464SOL    HW223077   4.281   4.847   1.735  1.1470 -0.8993 -0.5407
 7465SOL     OW23078   3.677   6.030   1.749  0.1761  0.5187  0.3964
 7465SOL    HW123079   3.734   5.954   1.760 -0.5286  0.1241  1.4799
 7465SOL    HW223080   3.635   6.041   1.834 -0.8686  1.2000 -0.1818
 7466SOL     OW23081   3.345   6.014   6.077  0.3767  0.2954  0.0031
 7466SOL    HW123082   3.264   5.974   6.109  0.2506  0.9984  0.5882
 7466SOL    HW223083   3.317   6.099   6.042  0.8372  0.4769  0.0778
 7467SOL     OW23084   3.980   3.145   6.468 -0.5072  0.4309 -0.2739
 7467SOL    HW123085   4.008   3.193   6.546 -1.9025  0.1540  0.4222
 7467SOL    HW223086   3.913   3.200   6.428 -1.5620 -0.5475  0.0959
 7468SOL     OW23087   3.599   6.025   1.117 -0.1616  0.2311  0.2643
 7468SOL    HW123088   3.675   5.973   1.091 -1.8353 -2.2330 -0.0185
 7468SOL    HW223089   3.634   6.113   1.130  2.7730 -0.8379  0.4046
 7469SOL     OW23090   0.917   3.699   4.684  0.1699 -0.2706 -0.7767
 7469SOL    HW123091   0.828   3.717   4.654  0.2017  0.6600 -0.3508
 7469SOL    HW223092   0.972   3.764   4.641  0.4775 -0.1166 -0.1764
 7470SOL     OW23093   4.456   3.777   6.137 -0.1945 -0.3987 -0.5295
 7470SOL    HW123094   4.393   3.826   6.085 -0.6881  0.1696  0.5791
 7470SOL    HW223095   4.442   3.686   6.112 -0.5614 -0.1592 -1.2300
 7471SOL     OW23096   6.077   0.240   1.456  0.0174 -0.1713 -0.3970
 7471SOL    HW123097   6.031   0.311   1.500 -1.9623 -2.0269  0.7613
 7471SOL    HW223098   6.142   0.210   1.519  0.4890  0.2412 -0.6782
 7472SOL     OW23099   3.755   5.272   1.574  0.1695 -0.3068 -0.0997
 7472SOL    HW123100   3.801   5.253   1.493 -2.3215  0.7377 -1.9041
 7472SOL    HW223101   3.664   5.288   1.547 -0.6812  0.5631  2.8415
 7473SOL     OW23102   3.047   6.231   3.628  0.3011  0.3644  0.2884
 7473SOL    HW123103   3.105   6.213   3.702  0.0419 -0.4088  0.3078
 7473SOL    HW223104   3.033   6.326   3.631  0.5222  0.3769  1.0503
 7474SOL     OW23105   4.529   5.225   3.807 -0.5555  0.6190  0.1989
 7474SOL    HW123106   4.532   5.290   3.737 -0.6025 -2.0839 -2.5563
 7474SOL    HW223107   4.560   5.144   3.765 -0.4201 -1.1445  3.4019
 7475SOL     OW23108   0.253   3.340   4.616 -0.2729 -0.2748 -0.0787
 7475SOL    HW123109   0.163   3.308   4.618 -0.1066 -0.7593  2.7092
 7475SOL    HW223110   0.264   3.387   4.698  1.8503  0.3168 -0.6488
 7476SOL     OW23111   0.759   4.912   6.020 -0.0874  0.1252 -0.6245
 7476SOL    HW123112   0.736   4.861   5.942  1.5540 -0.6379 -0.6551
 7476SOL    HW223113   0.837   4.961   5.995 -0.5682  1.2665  0.0059
 7477SOL     OW23114   2.276   0.931   0.081 -0.0940  0.0561  0.3318
 7477SOL    HW123115   2.344   0.889   0.027  0.0745  0.8554 -0.0999
 7477SOL    HW223116   2.302   0.912   0.171  0.4834  0.0048  0.1634
 7478SOL     OW23117   6.021   5.339   2.631 -0.0118  0.6854 -0.2699
 7478SOL    HW123118   6.022   5.253   2.672 -0.4426 -0.0349 -1.6961
 7478SOL    HW223119   6.008   5.321   2.538  1.8848  2.2029 -0.8922
 7479SOL     OW23120   3.612   2.239   5.065  0.2245  0.6138 -0.2162
 7479SOL    HW123121   3.537   2.182   5.082  0.0381  1.2580  1.2916
 7479SOL    HW223122   3.669   2.188   5.007 -0.5025 -0.6071  0.1195
 7480SOL     OW23123   4.897   4.970   0.023 -0.0522  0.0052  0.5265
 7480SOL    HW123124   4.834   5.008   0.085 -0.2456  0.7512 -0.1204
 7480SOL    HW223125   4.968   4.937   0.079 -0.7171 -0.2952  1.2226
 7481SOL     OW23126   6.029   2.409   1.611  0.2359 -0.6392 -0.0938
 7481SOL    HW123127   6.013   2.456   1.529  1.7245  0.4461  0.1939
 7481SOL    HW223128   6.109   2.358   1.594  1.7732  1.1725  1.2443
 7482SOL     OW23129   4.273   3.707   5.331  0.0809 -0.3795  0.3499
 7482SOL    HW123130   4.194   3.665   5.295  0.4283  0.0269 -0.9231
 7482SOL    HW223131   4.308   3.642   5.392 -1.1104 -0.6539  0.7863
 7483SOL     OW23132   4.297   5.469   0.216  0.1639  0.0842  0.0060
 7483SOL    HW123133   4.296   5.508   0.128 -0.6093 -1.4760 -0.7101
 7483SOL    HW223134   4.237   5.523   0.267  1.5820  1.7861 -0.0309
 7484SOL     OW23135   1.087   6.326   2.946  0.1055  0.5201 -0.3148
 7484SOL    HW123136   1.092   6.417   2.917  0.9967  0.5965  0.0285
 7484SOL    HW223137   1.172   6.310   2.988 -0.9775  0.3359  1.9793
 7485SOL     OW23138   0.364   4.143   6.200  0.2240  0.7221  0.1313
 7485SOL    HW123139   0.275   4.144   6.166  0.8841  3.1072 -1.7830
 7485SOL    HW223140   0.414   4.090   6.137  0.5302  1.0551  0.0901
 7486SOL     OW23141   4.705   3.081   2.204 -0.3284 -0.5272 -0.3557
 7486SOL    HW123142   4.655   3.005   2.175 -2.2250  1.1778 -1.8020
 7486SOL    HW223143   4.657   3.113   2.280  1.4218 -1.6389  1.3415
 7487SOL     OW23144   2.189   6.453   2.063  0.3682 -0.1036  0.0192
 7487SOL    HW123145   2.270   6.404   2.055  2.2374  2.3279  2.1309
 7487SOL    HW223146   2.213   6.543   2.038 -1.2512  0.9824  2.0864
 7488SOL     OW23147   3.444   6.287   4.110 -0.2226 -0.0994  0.4105
 7488SOL    HW123148   3.473   6.201   4.078 -0.1619  0.3380 -0.7708
 7488SOL    HW223149   3.509   6.348   4.075 -0.7412  0.5210  0.5299
 7489SOL     OW23150   2.558   4.143   0.344 -0.7041  0.0289  0.2962
 7489SOL    HW123151   2.496   4.196   0.393  1.0762  0.4749  2.2027
 7489SOL    HW223152   2.625   4.205   0.315 -0.3356 -0.6696 -0.3806
 7490SOL     OW23153   5.266   2.121   4.971 -0.2227 -0.4923 -0.0587
 7490SOL    HW123154   5.315   2.119   5.053 -0.6868 -1.7653  0.2010
 7490SOL    HW223155   5.248   2.029   4.951 -0.4604 -0.1791 -1.3860
 7491SOL     OW23156   4.398   3.934   6.662  0.1429 -0.3073  0.2767
 7491SOL    HW123157   4.400   4.008   6.601  0.5915  0.5117  1.2411
 7491SOL    HW223158   4.308   3.903   6.660 -0.2370  0.7461  0.3833
 7492SOL     OW23159   1.710   5.121   5.139  0.1862  0.5848  0.7017
 7492SOL    HW123160   1.656   5.098   5.214  0.4080  1.7720  1.2472
 7492SOL    HW223161   1.651   5.167   5.079  0.0924 -0.0440  0.3068
 7493SOL     OW23162   5.700   3.154   2.525  0.7759 -0.9023 -0.9757
 7493SOL    HW123163   5.675   3.075   2.572  0.8392 -1.4601 -1.8601
 7493SOL    HW223164   5.795   3.147   2.515  0.8693 -0.3947 -0.4964
 7494SOL     OW23165   4.621   6.703   1.586 -0.1719 -0.4553 -1.1345
 7494SOL    HW123166   4.692   6.640   1.577  1.9535  1.7827 -0.9536
 7494SOL    HW223167   4.629   6.761   1.510 -1.0647  0.5544 -0.4947
 7495SOL     OW23168   1.397   4.740   6.125 -0.2946  0.0404 -0.2794
 7495SOL    HW123169   1.489   4.749   6.102 -0.1236 -1.6028 -0.2967
 7495SOL    HW223170   1.376   4.648   6.110 -1.9413  0.3734 -0.2593
 7496SOL     OW23171   2.654   3.043   5.138  0.5432 -0.1143  0.2518
 7496SOL    HW123172   2.742   3.008   5.151  0.3403 -0.0802  1.8932
 7496SOL    HW223173   2.667   3.129   5.099  1.2330 -0.1695  0.3566
 7497SOL     OW23174   4.177   4.791   4.929 -0.1463  0.0490 -0.2296
 7497SOL    HW123175   4.242   4.821   4.866  0.5703 -0.1720  0.3897
 7497SOL    HW223176   4.189   4.696   4.934 -1.1498 -0.1264 -0.7952
 7498SOL     OW23177   4.786   3.409   0.645  0.2574  0.5287 -0.4357
 7498SOL    HW123178   4.706   3.380   0.601  1.4215  0.0285 -2.3164
 7498SOL    HW223179   4.769   3.392   0.738 -1.0803 -1.4395 -0.9653
 7499SOL     OW23180   1.148   5.305   0.082  0.4378  0.3857  0.3398
 7499SOL    HW123181   1.075   5.324   0.023  1.2907  1.9050 -0.2911
 7499SOL    HW223182   1.162   5.210   0.073 -0.8963  0.2132 -0.1617
 7500SOL     OW23183   6.525   3.666   2.972 -0.0054 -0.4786 -0.5304
 7500SOL    HW123184   6.479   3.712   3.042 -0.8451 -0.4059 -1.1198
 7500SOL    HW223185   6.461   3.605   2.937  0.4261 -0.5549 -1.2033
 7501SOL     OW23186   4.207   0.081   4.177  0.0981 -0.1198  0.2669
 7501SOL    HW123187   4.114   0.060   4.183  0.3091 -0.9581  0.6970
 7501SOL    HW223188   4.233   0.054   4.089  0.1951 -0.9694  0.5539
 7502SOL     OW23189   1.708   3.710   5.250 -0.3225  0.2263  0.2221
 7502SOL    HW123190   1.634   3.770   5.238  1.4882  2.9885  1.6861
 7502SOL    HW223191   1.704   3.687   5.343  1.5482  1.8609  0.7759
 7503SOL     OW23192   4.507   2.598   4.166 -0.2641 -0.2734  0.6238
 7503SOL    HW123193   4.575   2.540   4.199  1.3515  1.2958  0.1699
 7503SOL    HW223194   4.508   2.673   4.225  0.2347  0.9485 -0.8775
 7504SOL     OW23195   3.190   3.730   5.230 -0.3134  0.0137 -0.2396
 7504SOL    HW123196   3.147   3.804   5.273  0.4855  0.4549 -0.1643
 7504SOL    HW223197   3.221   3.676   5.303  0.6110  0.5073 -0.2512
 7505SOL     OW23198   1.802   2.643   0.160  0.6408  0.3743  0.4097
 7505SOL    HW123199   1.752   2.580   0.212  1.4767  0.5123  1.3989
 7505SOL    HW223200   1.850   2.589   0.097 -0.2300  0.1950 -0.1218
 7506SOL     OW23201   4.705   4.162   3.380 -0.0997  0.1011 -0.3593
 7506SOL    HW123202   4.615   4.133   3.390  0.1590 -0.1949  1.2777
 7506SOL    HW223203   4.753   4.083   3.353  0.0529 -0.2766  0.9859
 7507SOL     OW23204   6.724   6.866   5.344  0.0658  0.2122  0.5959
 7507SOL    HW123205   6.649   6.924   5.331 -1.1446 -1.3896  0.1517
 7507SOL    HW223206   6.785   6.888   5.274 -1.1097 -0.1451 -0.5644
 7508SOL     OW23207   2.789   5.803   3.400 -0.4105 -0.2905 -0.1571
 7508SOL    HW123208   2.750   5.733   3.453 -1.9097 -0.8995 -1.9301
 7508SOL    HW223209   2.882   5.784   3.399 -0.5836 -1.2463  0.8495
 7509SOL     OW23210   3.042   6.529   3.693 -0.3640  0.0892  0.3788
 7509SOL    HW123211   3.003   6.526   3.780  0.6089 -1.0756  0.8096
 7509SOL    HW223212   3.131   6.560   3.707 -0.3544  0.3644 -0.2629
 7510SOL     OW23213   4.945   3.245   2.653  0.4636  0.2210 -0.0946
 7510SOL    HW123214   4.899   3.231   2.570  0.2611  0.0559  0.0462
 7510SOL    HW223215   4.882   3.219   2.720  0.5538  0.5579  0.1191
 7511SOL     OW23216   6.549   4.955   5.610 -0.2710  0.0334 -0.2761
 7511SOL    HW123217   6.615   4.891   5.637  0.4517  0.5439 -0.7767
 7511SOL    HW223218   6.497   4.909   5.545 -1.5651 -0.9649  1.3918
 7512SOL     OW23219   1.839   2.812   1.474  0.8167  0.0351  0.2153
 7512SOL    HW123220   1.892   2.879   1.430 -0.8732  0.2813 -1.6156
 7512SOL    HW223221   1.852   2.829   1.568  1.4580  2.1097 -0.1873
 7513SOL     OW23222   4.390   0.269   4.668 -0.0138  0.2279 -0.1922
 7513SOL    HW123223   4.433   0.339   4.619 -0.3541 -0.2535 -1.2222
 7513SOL    HW223224   4.349   0.215   4.600 -1.9021  0.4534  0.6982
 7514SOL     OW23225   3.107   0.083   3.798 -0.2641 -0.3458 -0.0554
 7514SOL    HW123226   3.053   0.043   3.729 -0.6485 -2.5953  1.4239
 7514SOL    HW223227   3.048   0.088   3.874  0.9789 -0.7821  0.9721
 7515SOL     OW23228   2.559   6.808   6.548 -0.9547 -0.3685  0.6213
 7515SOL    HW123229   2.515   6.829   6.465  0.5508  1.9390  0.3146
 7515SOL    HW223230   2.548   6.713   6.557 -1.8726 -0.5764 -1.8151
 7516SOL     OW23231   1.576   1.082   5.232  0.1726  0.9351 -0.3962
 7516SOL    HW123232   1.650   1.133   5.200  0.0681 -0.0581 -2.3711
 7516SOL    HW223233   1.576   1.003   5.178 -0.0053 -0.9397  2.1660
 7517SOL     OW23234   1.881   0.476   0.914  0.3459  0.0538  0.0663
 7517SOL    HW123235   1.903   0.554   0.965  0.9424  0.6918 -1.1265
 7517SOL    HW223236   1.961   0.456   0.865  0.4112 -1.6920  0.7957
 7518SOL     OW23237   6.730   2.032   0.205  0.5152 -0.9726 -0.1137
 7518SOL    HW123238   6.820   2.062   0.200  0.3072 -0.5275 -1.8768
 7518SOL    HW223239   6.679   2.103   0.165 -0.5597 -1.4484  0.3750
 7519SOL     OW23240   2.882   5.306   1.502  0.6078  0.3309  0.0730
 7519SOL    HW123241   2.808   5.262   1.543 -1.2395  1.4300 -1.8679
 7519SOL    HW223242   2.909   5.372   1.566 -0.1730  0.0010  0.7728
 7520SOL     OW23243   5.497   1.930   0.338  0.0721 -0.3589 -0.1169
 7520SOL    HW123244   5.492   2.024   0.319  1.6843 -0.1514  0.3302
 7520SOL    HW223245   5.497   1.888   0.252  0.5862  0.1445 -0.3747
 7521SOL     OW23246   1.824   5.827   3.353  0.0790  0.0270  0.1317
 7521SOL    HW123247   1.788   5.798   3.269 -0.0698  1.4529 -0.3251
 7521SOL    HW223248   1.860   5.914   3.335  0.7813  0.0122  1.3641
 7522SOL     OW23249   4.806   5.909   3.647 -0.5152 -0.3089 -0.3276
 7522SOL    HW123250   4.885   5.918   3.594  0.2103  1.1569  0.8916
 7522SOL    HW223251   4.738   5.954   3.597  0.5157  2.4823  0.5700
 7523SOL     OW23252   4.464   3.563   4.306  0.2930 -0.1312  0.8320
 7523SOL    HW123253   4.557   3.584   4.298 -0.0850  1.2985 -0.3794
 7523SOL    HW223254   4.456   3.519   4.391  2.2731 -1.5922  0.3335
 7524SOL     OW23255   6.561   0.086   0.362  0.6309  0.3923 -0.2850
 7524SOL    HW123256   6.622   0.085   0.436  0.0523 -0.0692  0.1989
 7524SOL    HW223257   6.611   0.126   0.291  1.2621  0.6743  0.2975
 7525SOL     OW23258   1.081   2.902   2.795  0.2152 -0.0688  0.2200
 7525SOL    HW123259   1.147   2.846   2.754  0.7683 -0.0846  1.1118
 7525SOL    HW223260   1.062   2.860   2.878  0.0397  0.6303  0.5366
 7526SOL     OW23261   0.435   6.512   1.630  0.0307 -0.3565 -0.2503
 7526SOL    HW123262   0.408   6.479   1.716 -0.5209 -2.4493 -1.1754
 7526SOL    HW223263   0.433   6.436   1.573  1.0534  0.8573 -1.9961
 7527SOL     OW23264   3.702   4.407   3.044  0.2373 -0.0676 -0.4793
 7527SOL    HW123265   3.726   4.468   2.974  2.4775 -0.2313  0.0660
 7527SOL    HW223266   3.786   4.383   3.085 -0.9756  0.0843  2.3159
 7528SOL     OW23267   0.930   2.636   4.044 -0.2458  0.4570  0.0637
 7528SOL    HW123268   0.841   2.626   4.078 -0.2164 -2.2888 -0.4473
 7528SOL    HW223269   0.984   2.583   4.102  0.6211 -0.0524 -1.1523
 7529SOL     OW23270   1.637   4.040   3.111 -0.0648 -0.2979 -0.2023
 7529SOL    HW123271   1.711   4.044   3.050  1.3276  2.0468  1.4823
 7529SOL    HW223272   1.622   3.946   3.123  2.5724 -0.8883 -0.6916
 7530SOL     OW23273   6.530   1.053   3.758 -0.4066  0.2189  0.1909
 7530SOL    HW123274   6.491   1.100   3.684 -1.3464 -0.4025  0.2740
 7530SOL    HW223275   6.470   0.981   3.775  0.1001  0.0163  1.1991
 7531SOL     OW23276   3.224   1.823   1.805 -0.5523 -0.5059  0.6023
 7531SOL    HW123277   3.220   1.727   1.809 -0.1579 -0.4824  1.8085
 7531SOL    HW223278   3.135   1.849   1.780 -0.6101 -1.1891  0.0529
 7532SOL     OW23279   3.823   3.212   4.478  0.1836 -0.6971 -0.1476
 7532SOL    HW123280   3.845   3.283   4.418 -1.1300 -1.3388 -1.4471
 7532SOL    HW223281   3.887   3.144   4.459  0.2935 -0.5727 -0.2276
 7533SOL     OW23282   6.286   2.544   6.686  0.3350 -0.4595 -0.1117
 7533SOL    HW123283   6.302   2.508   6.599  0.3947 -2.1404  0.5558
 7533SOL    HW223284   6.219   2.611   6.673  1.4097  0.3728 -1.6506
 7534SOL     OW23285   0.250   0.580   1.239  0.3432  0.3022  0.3056
 7534SOL    HW123286   0.214   0.637   1.307 -1.6755 -1.5118  0.8950
 7534SOL    HW223287   0.296   0.511   1.288  0.0758 -0.2567 -0.2183
 7535SOL     OW23288   2.217   5.052   2.958  0.3429  0.1304 -0.0493
 7535SOL    HW123289   2.163   5.042   3.037  1.0389 -1.0531  0.3044
 7535SOL    HW223290   2.220   4.964   2.920  1.9909  0.1624 -0.0672
 7536SOL     OW23291   1.591   5.079   6.410  0.2619 -0.0971  0.1159
 7536SOL    HW123292   1.527   5.008   6.406  1.0893 -0.8281 -0.7364
 7536SOL    HW223293   1.563   5.132   6.484 -3.0876  1.3574 -1.9661
 7537SOL     OW23294   4.787   6.619   0.925 -0.6153 -0.6060 -0.0225
 7537SOL    HW123295   4.730   6.693   0.907 -1.4117 -1.6099 -1.8085
 7537SOL    HW223296   4.775   6.603   1.019 -1.1823  0.8836  0.1883
 7538SOL     OW23297   6.459   6.755   4.876 -0.1168 -0.0440  0.2938
 7538SOL    HW123298   6.540   6.720   4.915 -0.7837 -0.3434  1.4460
 7538SOL    HW223299   6.460   6.721   4.786  0.1743 -1.5165  0.8269
 7539SOL     OW23300   4.946   6.310   1.004 -0.2676 -1.0078 -0.4260
 7539SOL    HW123301   4.950   6.356   1.088  0.5464  0.4101 -1.2142
 7539SOL    HW223302   4.980   6.222   1.023 -1.0064 -1.0356  0.9136
 7540SOL     OW23303   6.240   1.493   2.022 -0.6457  0.3197 -0.0913
 7540SOL    HW123304   6.257   1.563   2.086  0.6710 -0.2574  0.2271
 7540SOL    HW223305   6.268   1.413   2.067 -0.5797 -0.2044 -1.0535
 7541SOL     OW23306   0.816   0.737   3.182  0.6735  0.3115 -0.4165
 7541SOL    HW123307   0.778   0.673   3.243  0.7142  0.4290 -0.2670
 7541SOL    HW223308   0.910   0.735   3.203  0.7788 -0.1181 -0.9140
 7542SOL     OW23309   3.206   2.352   0.503  1.1177  0.5303 -0.6341
 7542SOL    HW123310   3.164   2.297   0.437  1.7954 -1.5714  0.5881
 7542SOL    HW223311   3.139   2.416   0.527 -0.5354 -1.1617 -0.5089
 7543SOL     OW23312   0.177   2.824   1.070 -0.2596  0.3007  0.2631
 7543SOL    HW123313   0.200   2.846   0.979 -0.3711  0.2967  0.2337
 7543SOL    HW223314   0.224   2.743   1.087  0.7794  0.9546  0.6292
 7544SOL     OW23315   3.986   0.449   4.952 -0.2343  0.0079  0.3335
 7544SOL    HW123316   4.074   0.484   4.937  0.1217 -0.1968  1.8470
 7544SOL    HW223317   3.968   0.398   4.873  1.9062 -1.7329  0.8507
 7545SOL     OW23318   4.605   1.084   1.971  0.0525  0.2350 -0.1334
 7545SOL    HW123319   4.556   1.124   2.043  0.9692 -0.2905  0.8026
 7545SOL    HW223320   4.689   1.058   2.010 -0.3392 -2.2522 -0.7915
 7546SOL     OW23321   0.943   6.336   5.478  0.4611 -0.3554  0.8105
 7546SOL    HW123322   0.934   6.337   5.573  0.4162  0.6203  0.8081
 7546SOL    HW223323   0.869   6.389   5.446 -1.6139 -3.4942 -0.0045
 7547SOL     OW23324   1.230   5.377   3.538  0.3157  0.3518  0.1151
 7547SOL    HW123325   1.242   5.361   3.444 -0.4336  0.1386  0.0478
 7547SOL    HW223326   1.314   5.353   3.577 -0.2269 -2.3504 -0.1560
 7548SOL     OW23327   4.950   6.699   3.619  0.5512 -0.1626 -0.5915
 7548SOL    HW123328   4.921   6.732   3.534  0.3699  2.2961  0.3559
 7548SOL    HW223329   4.930   6.769   3.680  0.6806 -1.8651  1.5155
 7549SOL     OW23330   6.856   2.481   0.114  0.2423 -0.2965  0.2393
 7549SOL    HW123331   6.834   2.388   0.114 -0.6777 -0.1383  2.1895
 7549SOL    HW223332   6.952   2.483   0.116  0.4674 -1.0813 -3.4855
 7550SOL     OW23333   6.415   3.995   1.697  0.0716 -0.2694  0.0306
 7550SOL    HW123334   6.492   4.012   1.752 -0.1331  0.5897  0.0567
 7550SOL    HW223335   6.448   3.939   1.627  0.3261 -1.4627  1.0552
 7551SOL     OW23336   5.091   1.809   3.235 -0.6441  0.2764  0.2237
 7551SOL    HW123337   5.108   1.784   3.326 -1.5367  1.7156  0.8270
 7551SOL    HW223338   5.102   1.728   3.186 -2.1671 -1.0535  1.8877
 7552SOL     OW23339   2.026   6.736   0.320 -0.1583  0.0905  0.3066
 7552SOL    HW123340   1.935   6.758   0.340 -1.2076  1.4401 -4.5764
 7552SOL    HW223341   2.022   6.647   0.286 -0.4014  1.2060 -2.8807
 7553SOL     OW23342   2.423   0.924   4.803 -0.1992 -0.4652 -0.1357
 7553SOL    HW123343   2.336   0.912   4.763  0.1492 -3.4735 -0.2688
 7553SOL    HW223344   2.407   0.977   4.880 -1.7268  1.1550 -1.4842
 7554SOL     OW23345   1.412   5.915   0.972  0.4093 -0.2187 -0.1637
 7554SOL    HW123346   1.433   6.005   0.999 -0.2909 -0.2407  0.4696
 7554SOL    HW223347   1.321   5.919   0.945  0.1184 -0.9113  0.6729
 7555SOL     OW23348   2.345   4.091   0.136 -0.0507 -0.7764  0.3949
 7555SOL    HW123349   2.394   4.066   0.058 -0.0816  0.5436 -0.0755
 7555SOL    HW223350   2.406   4.077   0.209  1.2776  1.2608 -0.2143
 7556SOL     OW23351   1.658   4.481   2.195 -0.0023 -0.1352  0.0578
 7556SOL    HW123352   1.670   4.576   2.199 -0.1950 -0.1414  1.1029
 7556SOL    HW223353   1.708   4.453   2.118  0.6851  0.7202  0.1812
 7557SOL     OW23354   2.815   6.609   3.504 -0.0380 -0.5820  0.0515
 7557SOL    HW123355   2.834   6.610   3.410 -0.7712 -0.3835 -0.1027
 7557SOL    HW223356   2.897   6.636   3.546  0.0088  0.2674 -0.5792
 7558SOL     OW23357   1.110   4.100   4.658  0.0265  0.2333 -0.3843
 7558SOL    HW123358   1.095   4.188   4.692  0.5297  0.5953 -1.0614
 7558SOL    HW223359   1.119   4.045   4.735  1.0671  1.0103  0.0692
 7559SOL     OW23360   1.191   5.167   6.253 -0.2043  0.3558 -0.1260
 7559SOL    HW123361   1.220   5.250   6.292  1.5198 -0.1597 -0.2423
 7559SOL    HW223362   1.245   5.157   6.175  0.4091 -1.3871  0.4769
 7560SOL     OW23363   2.426   6.702   4.485  0.0681  0.2998  0.2396
 7560SOL    HW123364   2.479   6.631   4.521 -0.5318 -0.3246 -0.0769
 7560SOL    HW223365   2.457   6.713   4.395 -0.4051 -0.1623  0.0071
 7561SOL     OW23366   5.479   3.619   2.358  0.5415  0.0475  0.2582
 7561SOL    HW123367   5.503   3.707   2.387  1.1023 -0.2288  0.6631
 7561SOL    HW223368   5.552   3.564   2.386 -0.1116 -0.6632  0.6216
 7562SOL     OW23369   4.758   1.495   2.814 -0.3470 -0.2430 -0.2674
 7562SOL    HW123370   4.849   1.513   2.837 -1.4031  4.8140  1.1511
 7562SOL    HW223371   4.760   1.481   2.720  2.0437 -2.8518  0.0330
 7563SOL     OW23372   1.463   2.836   4.112 -0.3665  0.3823 -0.5425
 7563SOL    HW123373   1.479   2.800   4.200 -0.5992 -0.5606 -0.8694
 7563SOL    HW223374   1.498   2.925   4.116 -0.0527  0.2350  0.3995
 7564SOL     OW23375   1.808   6.353   0.571 -0.1088  0.0729 -0.5220
 7564SOL    HW123376   1.819   6.287   0.502  0.7275  1.3887 -1.6954
 7564SOL    HW223377   1.724   6.393   0.553 -0.0345  0.2008 -0.5844
 7565SOL     OW23378   5.766   0.035   0.728 -0.0824  0.0823  0.2267
 7565SOL    HW123379   5.767  -0.060   0.718  0.1675  0.0882  0.1843
 7565SOL    HW223380   5.685   0.063   0.686  0.5955  0.0467 -1.1544
 7566SOL     OW23381   3.356   0.731   5.022 -0.5365  0.1537  0.4512
 7566SOL    HW123382   3.418   0.659   5.012 -0.4797  0.2450  0.1295
 7566SOL    HW223383   3.405   0.809   4.996 -0.7090  0.2584  0.4377
 7567SOL     OW23384   0.581   3.417   4.071  0.2555 -0.2629  0.1768
 7567SOL    HW123385   0.642   3.362   4.023 -1.7804 -1.6794 -0.9178
 7567SOL    HW223386   0.555   3.485   4.008  0.1013 -0.1245  0.3852
 7568SOL     OW23387   3.975   0.680   0.201 -0.4730 -0.1114 -0.0153
 7568SOL    HW123388   3.952   0.609   0.141  1.6489  0.3835 -1.5175
 7568SOL    HW223389   3.915   0.751   0.178  0.2948  0.0650 -1.6134
 7569SOL     OW23390   1.062   5.262   3.887 -0.2154 -0.1390 -0.4488
 7569SOL    HW123391   1.038   5.354   3.885  2.8038  0.7602  0.4087
 7569SOL    HW223392   1.022   5.226   3.807 -0.5915  2.1116 -1.3635
 7570SOL     OW23393   2.536   3.415   0.804  0.3356  0.4850 -0.2227
 7570SOL    HW123394   2.489   3.394   0.885  0.9518 -0.3952 -0.0768
 7570SOL    HW223395   2.470   3.414   0.736 -0.5335  2.9477  0.4733
 7571SOL     OW23396   2.133   1.697   3.201  0.4441 -0.6987 -0.1082
 7571SOL    HW123397   2.056   1.646   3.177  0.4957 -0.4997 -0.7247
 7571SOL    HW223398   2.104   1.754   3.272 -0.5433  0.7782 -1.6234
 7572SOL     OW23399   2.266   4.696   4.422 -0.4417  0.3029  0.6993
 7572SOL    HW123400   2.172   4.691   4.434 -0.1562 -0.6866  3.0419
 7572SOL    HW223401   2.300   4.615   4.458  1.2692  0.1022 -1.1459
 7573SOL     OW23402   6.190   1.387   3.524  0.2204 -0.5827 -0.0714
 7573SOL    HW123403   6.217   1.398   3.433 -0.9926  0.9833 -0.3056
 7573SOL    HW223404   6.169   1.476   3.553  1.3810 -0.9352  2.0208
 7574SOL     OW23405   1.428   5.437   2.934 -0.6361 -0.0814  0.2940
 7574SOL    HW123406   1.432   5.346   2.902 -2.3564 -0.3372  0.7222
 7574SOL    HW223407   1.518   5.456   2.962  0.5842 -0.4364 -2.9384
 7575SOL     OW23408   6.670   2.632   0.680 -0.2305 -0.3027  0.4137
 7575SOL    HW123409   6.690   2.723   0.703 -1.1843  0.4443 -1.4460
 7575SOL    HW223410   6.661   2.587   0.764 -1.3215  1.6952  1.4328
 7576SOL     OW23411   3.337   3.981   6.856  0.3413 -0.5173  0.3499
 7576SOL    HW123412   3.310   3.940   6.938 -0.2264 -0.0226  0.4179
 7576SOL    HW223413   3.361   4.071   6.881  0.0175 -0.3173 -0.0493
 7577SOL     OW23414   2.795   3.807   1.080 -0.3402  0.4265  0.1118
 7577SOL    HW123415   2.766   3.896   1.099  2.5637  1.2389  1.3434
 7577SOL    HW223416   2.715   3.755   1.081 -1.7941  2.3029  3.8908
 7578SOL     OW23417   5.872   1.640   3.004  0.3080 -0.4627  0.4578
 7578SOL    HW123418   5.888   1.545   3.006  1.8261 -0.3449 -2.1209
 7578SOL    HW223419   5.955   1.678   2.978 -0.2213  1.6539  1.6741
 7579SOL     OW23420   2.299   0.382   1.754 -0.1993  0.0791 -0.0116
 7579SOL    HW123421   2.293   0.476   1.765 -0.0755  0.3355 -1.7920
 7579SOL    HW223422   2.355   0.370   1.677  1.5728 -1.5265  1.4161
 7580SOL     OW23423   6.897   3.909   2.080  0.5625  0.3528  0.4618
 7580SOL    HW123424   6.959   3.894   2.152  1.2089  0.4028 -0.0736
 7580SOL    HW223425   6.816   3.866   2.110  0.6986  0.7013  1.3772
 7581SOL     OW23426   3.176   6.608   4.350 -0.1636 -0.0755 -0.5514
 7581SOL    HW123427   3.255   6.644   4.309 -1.0452  0.9510 -1.3735
 7581SOL    HW223428   3.209   6.563   4.428  0.9257  3.2756  1.1069
 7582SOL     OW23429   3.476   5.923   6.792  0.1729  0.6603  0.0065
 7582SOL    HW123430   3.510   5.951   6.878 -1.1214  1.0932  0.3909
 7582SOL    HW223431   3.512   5.987   6.731  3.0582 -0.9541 -0.1992
 7583SOL     OW23432   1.959   4.192   1.857 -0.1344 -0.3389 -0.0020
 7583SOL    HW123433   2.053   4.207   1.843 -0.2188 -0.3162 -0.5832
 7583SOL    HW223434   1.933   4.258   1.922  0.8031 -2.0743  2.2676
 7584SOL     OW23435   3.333   5.971   3.793  0.6844  0.3973 -0.2578
 7584SOL    HW123436   3.269   6.041   3.803 -0.1378 -0.3448 -0.2075
 7584SOL    HW223437   3.414   6.007   3.831  0.6626  1.8030 -1.4665
 7585SOL     OW23438   0.509   2.630   5.718 -0.1049  0.1071 -0.2555
 7585SOL    HW123439   0.443   2.633   5.650  1.4367  1.2424 -1.7926
 7585SOL    HW223440   0.550   2.717   5.716  1.8951 -0.7571  0.0933
 7586SOL     OW23441   5.596   0.387   2.478  1.0105  0.0681  0.0349
 7586SOL    HW123442   5.508   0.370   2.512  0.3176 -0.1685 -1.8014
 7586SOL    HW223443   5.635   0.300   2.471  1.3392  0.1582  0.6654
 7587SOL     OW23444   3.918   6.744   0.128 -0.2489  0.1367  0.4064
 7587SOL    HW123445   4.003   6.772   0.162 -0.1558 -0.0892  0.3615
 7587SOL    HW223446   3.926   6.649   0.120 -0.1428  0.2236 -0.6013
 7588SOL     OW23447   1.695   5.358   2.612 -0.3508 -0.2136 -0.6080
 7588SOL    HW123448   1.722   5.371   2.521 -0.7666 -0.0439 -0.7126
 7588SOL    HW223449   1.600   5.347   2.607 -0.4802  0.5550 -0.1226
 7589SOL     OW23450   6.208   1.189   0.655 -0.0630  0.1610  0.4584
 7589SOL    HW123451   6.254   1.214   0.735 -1.6159  0.7750  1.1978
 7589SOL    HW223452   6.197   1.271   0.607  2.6058 -0.4339 -1.4490
 7590SOL     OW23453   1.135   1.214   2.676 -0.4465  0.3178 -0.4214
 7590SOL    HW123454   1.147   1.309   2.669  2.3448 -0.0681 -2.3415
 7590SOL    HW223455   1.063   1.194   2.617 -1.8302  1.2877  0.8465
 7591SOL     OW23456   1.127   2.946   6.839 -0.0712 -0.2676 -0.1232
 7591SOL    HW123457   1.173   3.028   6.821 -0.6709 -0.2678 -1.8766
 7591SOL    HW223458   1.149   2.890   6.764 -3.2241 -0.0989 -1.3089
 7592SOL     OW23459   3.158   0.586   2.146 -0.2257  0.2227 -0.0180
 7592SOL    HW123460   3.120   0.520   2.088 -0.1326  0.5700 -0.4804
 7592SOL    HW223461   3.088   0.607   2.207  0.2209 -1.4428  1.1496
 7593SOL     OW23462   4.374   6.311   0.492 -0.3566 -0.4145 -0.0876
 7593SOL    HW123463   4.330   6.226   0.491 -1.4764  0.1400 -1.2141
 7593SOL    HW223464   4.338   6.356   0.568 -2.1006  0.1700 -1.1957
 7594SOL     OW23465   2.772   0.240   2.540  0.1633  0.4746  0.3963
 7594SOL    HW123466   2.696   0.228   2.483  0.3262  0.1036  0.2501
 7594SOL    HW223467   2.787   0.334   2.541 -1.2564  0.7253  1.7006
 7595SOL     OW23468   3.421   3.575   3.103 -0.2099 -0.1365  0.2738
 7595SOL    HW123469   3.464   3.528   3.031 -0.7680 -1.0008  0.4905
 7595SOL    HW223470   3.328   3.568   3.084 -0.3246  0.4792  0.5729
 7596SOL     OW23471   1.730   6.410   1.763  0.1527  0.5770  0.2906
 7596SOL    HW123472   1.690   6.349   1.701 -0.1343  2.0377 -1.0154
 7596SOL    HW223473   1.656   6.452   1.806  0.3483  0.3559  0.8565
 7597SOL     OW23474   3.198   0.316   3.226 -0.4030  0.3477 -0.0933
 7597SOL    HW123475   3.268   0.343   3.285 -0.5629 -0.5249  0.5133
 7597SOL    HW223476   3.119   0.354   3.264 -0.3246  0.9913 -0.5540
 7598SOL     OW23477   4.566   1.118   4.295 -0.6997 -0.0787  0.1353
 7598SOL    HW123478   4.552   1.201   4.250  0.5079  0.8398  1.3645
 7598SOL    HW223479   4.644   1.081   4.253 -1.7244 -1.0330 -0.9809
 7599SOL     OW23480   2.581   2.183   3.734 -0.0315  0.6958 -0.4415
 7599SOL    HW123481   2.657   2.232   3.704 -0.1490  1.0574 -0.1604
 7599SOL    HW223482   2.507   2.241   3.717 -0.0323  1.2136  1.1819
 7600SOL     OW23483   2.001   5.958   0.897  0.3229  0.2124 -0.4909
 7600SOL    HW123484   1.908   5.940   0.904  0.5619 -0.8752  0.0079
 7600SOL    HW223485   2.017   6.027   0.962 -0.1516  0.4775 -0.6557
 7601SOL     OW23486   1.649   2.791   0.017  0.4778 -0.2097 -0.1931
 7601SOL    HW123487   1.669   2.752   0.101 -0.0162 -0.0523  0.0032
 7601SOL    HW223488   1.606   2.721  -0.033  0.4281 -0.1931 -0.1740
 7602SOL     OW23489   5.044   2.189   6.509  0.4168  0.1696  0.2882
 7602SOL    HW123490   5.029   2.217   6.419  0.4454  2.2596  0.8684
 7602SOL    HW223491   4.965   2.214   6.556  0.3595 -0.9890  0.8510
 7603SOL     OW23492   0.027   0.183   2.206  0.9862  0.4613  0.5382
 7603SOL    HW123493  -0.010   0.121   2.143  1.2117  1.0645 -0.2085
 7603SOL    HW223494   0.121   0.181   2.188  1.2251 -0.3467  1.7709
 7604SOL     OW23495   2.231   4.564   3.172  0.4830 -0.2520 -0.5942
 7604SOL    HW123496   2.144   4.602   3.186  0.6625 -0.0295 -0.0382
 7604SOL    HW223497   2.248   4.513   3.252  1.9279  1.7837  0.5188
 7605SOL     OW23498   2.009   5.425   3.227 -0.9927  0.1805  0.0025
 7605SOL    HW123499   2.020   5.520   3.223 -1.5028  0.2751  0.6581
 7605SOL    HW223500   2.015   5.403   3.320  1.0274 -0.6854 -0.2728
 7606SOL     OW23501   3.814   1.207   6.805 -0.5131  0.4805  0.2530
 7606SOL    HW123502   3.761   1.187   6.728  2.2436  0.1444 -1.6939
 7606SOL    HW223503   3.764   1.172   6.878 -2.3206 -1.0343 -1.5950
 7607SOL     OW23504   2.068   6.213   3.061 -0.8161 -0.3504  0.2809
 7607SOL    HW123505   2.006   6.239   2.992  0.6064 -1.1410 -1.3909
 7607SOL    HW223506   2.097   6.295   3.100 -1.0195  0.1925 -0.6646
 7608SOL     OW23507   1.381   4.098   1.393 -0.3461  0.0039 -0.1183
 7608SOL    HW123508   1.289   4.120   1.409 -0.4740  1.0542 -1.9731
 7608SOL    HW223509   1.377   4.028   1.328  0.1733 -1.0495  0.9583
 7609SOL     OW23510   5.800   4.275   5.693  0.1464 -0.0081 -0.7016
 7609SOL    HW123511   5.814   4.264   5.787  1.8861  1.7683 -0.6944
 7609SOL    HW223512   5.731   4.341   5.687 -1.7168 -1.8395 -0.7498
 7610SOL     OW23513   4.385   2.883   5.965 -0.6208 -0.1138 -0.0778
 7610SOL    HW123514   4.414   2.862   5.876  1.2140 -1.3030  0.7291
 7610SOL    HW223515   4.364   2.798   6.004  0.2062  0.1931  1.1178
 7611SOL     OW23516   6.309   5.415   1.822 -0.5514  0.4289  0.3424
 7611SOL    HW123517   6.237   5.351   1.818 -0.7803  0.7265 -0.7419
 7611SOL    HW223518   6.288   5.478   1.753 -0.1981  1.5479  1.2238
 7612SOL     OW23519   1.289   0.527   2.342 -0.5520  0.1250  1.0648
 7612SOL    HW123520   1.250   0.507   2.427 -3.0853  0.6596  0.1188
 7612SOL    HW223521   1.328   0.614   2.353  0.4394 -0.4171  2.0318
 7613SOL     OW23522   6.689   3.337   2.904 -0.4897  0.1881  0.3071
 7613SOL    HW123523   6.694   3.383   2.988  0.5861  2.2800 -0.8306
 7613SOL    HW223524   6.779   3.333   2.873 -0.8533 -0.6576 -0.7079
 7614SOL     OW23525   5.983   4.534   2.730 -0.5569 -0.1232 -0.0581
 7614SOL    HW123526   5.947   4.595   2.794 -2.0683 -1.1081  0.0651
 7614SOL    HW223527   6.008   4.457   2.782  1.3218  0.3217 -0.2119
 7615SOL     OW23528   5.468   2.947   4.710 -0.0446 -0.1991  0.5156
 7615SOL    HW123529   5.462   2.933   4.805 -0.2666  1.1331  0.7127
 7615SOL    HW223530   5.419   2.873   4.673 -0.5458 -0.3700  1.4627
 7616SOL     OW23531   4.022   5.953   1.815  0.2625  0.2683  0.0339
 7616SOL    HW123532   4.000   6.030   1.868 -0.2928  0.0830  0.0811
 7616SOL    HW223533   3.942   5.901   1.815  0.0913  0.4908 -1.3636
 7617SOL     OW23534   4.087   3.554   6.488  0.5915  0.4502  0.1920
 7617SOL    HW123535   4.110   3.552   6.395  2.1352 -1.0180  0.5578
 7617SOL    HW223536   3.994   3.532   6.490  0.3093  1.3895 -1.0415
 7618SOL     OW23537   5.016   3.585   3.631 -0.0277 -0.1711 -0.8908
 7618SOL    HW123538   5.102   3.544   3.628  0.3921  0.6312 -0.0834
 7618SOL    HW223539   5.034   3.677   3.650 -1.0161  0.1855 -1.5814
 7619SOL     OW23540   0.053   0.550   3.188 -0.1601 -0.1124 -0.3003
 7619SOL    HW123541   0.069   0.644   3.178 -0.5114  0.0520  0.6292
 7619SOL    HW223542   0.067   0.514   3.100 -1.1406  0.9761 -0.9421
 7620SOL     OW23543   3.642   4.895   5.821  0.1410  0.7055  0.1306
 7620SOL    HW123544   3.680   4.961   5.878  1.1460 -0.1045  0.4314
 7620SOL    HW223545   3.637   4.816   5.876  0.9172 -0.0254 -0.8205
 7621SOL     OW23546   2.016   3.240   3.049 -0.9439  0.2747  0.6315
 7621SOL    HW123547   2.080   3.211   3.114 -0.4360 -2.0953 -0.7933
 7621SOL    HW223548   1.969   3.160   3.026 -0.5228  0.8183 -2.4930
 7622SOL     OW23549   5.059   0.377   4.756  0.4620 -0.3701  0.3663
 7622SOL    HW123550   5.075   0.306   4.818  0.9177  0.3952  1.1559
 7622SOL    HW223551   5.146   0.405   4.728  0.3319  0.4978  0.7962
 7623SOL     OW23552   4.076   6.789   6.732  0.2112  0.4287 -0.4696
 7623SOL    HW123553   4.100   6.843   6.808  0.3803  1.2732 -1.1099
 7623SOL    HW223554   4.029   6.849   6.674  0.2269 -0.1700 -1.1118
 7624SOL     OW23555   3.756   3.302   3.098  0.4067 -0.4391 -0.1381
 7624SOL    HW123556   3.823   3.251   3.144  0.5827 -0.5405 -0.5107
 7624SOL    HW223557   3.691   3.320   3.166  1.6487  1.2067  0.6707
 7625SOL     OW23558   3.322   4.070   0.546  0.0827 -0.0602 -0.5610
 7625SOL    HW123559   3.270   4.006   0.594 -0.1844 -0.3782 -1.2590
 7625SOL    HW223560   3.258   4.134   0.515  0.1931 -0.0879 -0.8522
 7626SOL     OW23561   4.324   0.978   4.553 -0.0286  0.2327  0.2662
 7626SOL    HW123562   4.287   1.061   4.581  0.1271  0.1892  0.6093
 7626SOL    HW223563   4.317   0.979   4.458  0.4058  0.8409  0.2362
 7627SOL     OW23564   2.065   4.769   3.706 -0.2705  0.7439  0.0404
 7627SOL    HW123565   2.009   4.697   3.736  0.1466  0.1002 -0.6887
 7627SOL    HW223566   2.154   4.735   3.715 -0.0021  1.5977  0.7722
 7628SOL     OW23567   2.935   3.238   3.555  0.1281 -0.0157  0.5128
 7628SOL    HW123568   2.964   3.198   3.473 -1.3775  1.5767 -0.8534
 7628SOL    HW223569   2.842   3.218   3.560  0.2286 -0.2160  1.9425
 7629SOL     OW23570   1.989   5.544   6.238  0.5819 -0.4948  0.6309
 7629SOL    HW123571   2.041   5.474   6.197 -0.1637 -0.4788 -0.3903
 7629SOL    HW223572   1.969   5.604   6.166  0.9431  0.6224  1.4326
 7630SOL     OW23573   1.445   3.158   1.395 -0.2822 -0.3799  0.0687
 7630SOL    HW123574   1.457   3.170   1.489 -1.2130 -1.9712  0.4373
 7630SOL    HW223575   1.403   3.072   1.387 -3.5455  1.1794 -1.5708
 7631SOL     OW23576   3.949   2.054   3.681 -0.7154  0.4003 -0.0853
 7631SOL    HW123577   3.951   2.049   3.585 -0.9132  1.3629 -0.1429
 7631SOL    HW223578   4.028   2.103   3.704 -1.2287  1.1250  0.1692
 7632SOL     OW23579   4.200   2.383   3.043  0.6821 -0.2324 -0.2714
 7632SOL    HW123580   4.289   2.365   3.013  0.4680 -0.9549 -0.4935
 7632SOL    HW223581   4.148   2.311   3.008 -0.0845  0.4634 -0.5856
 7633SOL     OW23582   2.365   5.476   0.617 -0.1499  0.1253 -0.1425
 7633SOL    HW123583   2.385   5.546   0.556  2.0426  0.3891  0.7751
 7633SOL    HW223584   2.284   5.503   0.660  0.2997  1.7920 -0.2877
 7634SOL     OW23585   2.022   3.579   3.731  0.4836 -0.3141  0.1120
 7634SOL    HW123586   1.999   3.507   3.672 -0.8206 -0.2443  0.4952
 7634SOL    HW223587   2.087   3.541   3.790  1.6160 -0.4544 -1.1864
 7635SOL     OW23588   1.483   5.526   4.026 -0.0088  0.1651  0.0185
 7635SOL    HW123589   1.423   5.452   4.020 -0.7822  0.6276  1.5414
 7635SOL    HW223590   1.565   5.493   3.989 -0.0603 -1.7736  1.4690
 7636SOL     OW23591   4.676   6.173   4.154 -0.1524 -0.0032  0.6987
 7636SOL    HW123592   4.689   6.078   4.149  0.0085  0.0657 -0.3533
 7636SOL    HW223593   4.581   6.184   4.145 -0.0615 -0.0072 -0.3764
 7637SOL     OW23594   1.013   1.648   3.182 -0.1274  0.8346  0.2371
 7637SOL    HW123595   0.968   1.733   3.177  0.7905  1.3116 -0.2495
 7637SOL    HW223596   1.105   1.669   3.163  0.5857  0.0970  2.4882
 7638SOL     OW23597   1.136   4.941   2.245  0.2706 -0.9512 -0.5322
 7638SOL    HW123598   1.118   4.854   2.281 -2.6257  0.2660  1.3334
 7638SOL    HW223599   1.194   4.982   2.309 -1.0010 -0.4522  0.3453
 7639SOL     OW23600   2.548   2.537   6.696  0.1639  0.4487 -0.3217
 7639SOL    HW123601   2.455   2.516   6.690  0.1427  0.4236  0.0931
 7639SOL    HW223602   2.579   2.535   6.605  0.0398 -0.8329 -0.3587
 7640SOL     OW23603   3.029   6.814   3.581 -0.4409 -0.0789 -0.6443
 7640SOL    HW123604   3.013   6.876   3.509 -0.0675 -0.0509 -0.7051
 7640SOL    HW223605   3.107   6.766   3.554 -0.2306  0.0144 -0.1965
 7641SOL     OW23606   1.111   3.564   2.292 -0.1425 -0.0553 -0.0838
 7641SOL    HW123607   1.198   3.532   2.317  0.3875  0.8994 -0.6314
 7641SOL    HW223608   1.050   3.506   2.337  0.7788 -0.4123  0.7448
 7642SOL     OW23609   6.076   6.362   4.521 -0.2099  0.4906  0.0905
 7642SOL    HW123610   6.046   6.305   4.591 -0.4167  1.4060  0.7736
 7642SOL    HW223611   6.168   6.340   4.509 -0.5883 -0.8142 -0.4982
 7643SOL     OW23612   2.750   1.461   2.413  0.6479  0.1325  0.0017
 7643SOL    HW123613   2.762   1.485   2.505  0.3435 -0.2186  0.1330
 7643SOL    HW223614   2.833   1.485   2.371  0.3262  1.5114  0.1010
 7644SOL     OW23615   0.636   1.472   5.451 -0.5510 -0.4211  0.3381
 7644SOL    HW123616   0.597   1.529   5.384 -1.3099 -0.4177  0.7688
 7644SOL    HW223617   0.597   1.502   5.533 -1.4362 -1.9448  0.5167
 7645SOL     OW23618   0.463   0.368   3.084  0.4300  0.3564 -0.1910
 7645SOL    HW123619   0.390   0.392   3.141 -1.1294 -0.7729 -1.5932
 7645SOL    HW223620   0.466   0.272   3.088  0.5113  0.2677 -1.6803
 7646SOL     OW23621   2.498   6.439   2.238  0.5146 -0.2276 -0.0480
 7646SOL    HW123622   2.509   6.400   2.151  0.3803  0.5669 -0.4230
 7646SOL    HW223623   2.484   6.364   2.296 -0.7493 -0.6972 -0.9139
 7647SOL     OW23624   3.075   5.317   2.615 -0.1085 -0.0178  0.1491
 7647SOL    HW123625   2.980   5.325   2.610  0.0380  4.2859 -0.0709
 7647SOL    HW223626   3.102   5.293   2.526 -0.9661 -1.7333  0.3274
 7648SOL     OW23627   1.970   6.098   3.703  0.0521  0.3773  1.0054
 7648SOL    HW123628   1.957   6.011   3.741  0.5092  0.7954  2.1622
 7648SOL    HW223629   1.896   6.109   3.643 -0.6294 -0.3615  1.6843
 7649SOL     OW23630   5.951   0.665   4.275  0.5985 -0.0761 -0.0759
 7649SOL    HW123631   5.974   0.723   4.347  1.1041 -2.0280  1.4015
 7649SOL    HW223632   5.858   0.685   4.258  0.7751  1.1948  0.3030
 7650SOL     OW23633   4.816   4.262   5.977 -0.6737  0.0159  0.4095
 7650SOL    HW123634   4.809   4.210   5.897 -1.6824 -0.1991  0.6263
 7650SOL    HW223635   4.903   4.240   6.012 -0.2487  0.0599 -0.5711
 7651SOL     OW23636   0.383   3.547   6.387 -0.4591 -0.0550 -0.1035
 7651SOL    HW123637   0.424   3.617   6.438  1.3086 -0.1668 -1.2797
 7651SOL    HW223638   0.369   3.585   6.301 -2.2229 -0.2747  0.0501
 7652SOL     OW23639   6.141   5.191   1.866 -0.4980  0.6118  0.0708
 7652SOL    HW123640   6.137   5.153   1.778  0.0347 -0.1800  0.3823
 7652SOL    HW223641   6.089   5.132   1.920  1.0954 -0.2230  0.7437
 7653SOL     OW23642   5.692   3.769   1.076 -0.1363  0.0285  0.4388
 7653SOL    HW123643   5.728   3.743   1.161 -0.4893  0.1292  0.6223
 7653SOL    HW223644   5.719   3.860   1.065 -2.4486  0.9448  1.7599
 7654SOL     OW23645   3.087   6.157   4.223  0.2911 -0.3510  0.4363
 7654SOL    HW123646   2.998   6.181   4.250 -0.2041  0.7596 -1.8707
 7654SOL    HW223647   3.118   6.234   4.174  2.1253 -1.1313  0.3041
 7655SOL     OW23648   0.941   2.063   4.239  0.0060  0.1738 -0.1119
 7655SOL    HW123649   1.005   2.008   4.193 -0.7339 -0.8704  0.0765
 7655SOL    HW223650   0.994   2.132   4.280  0.8674  0.0812 -1.0243
 7656SOL     OW23651   4.036   5.229   2.144 -0.0842  0.2196  0.2201
 7656SOL    HW123652   4.034   5.301   2.207  0.0928  2.7961 -2.4868
 7656SOL    HW223653   3.947   5.196   2.141  0.0308 -0.3472  2.1649
 7657SOL     OW23654   5.045   6.212   4.391  0.0732 -0.2166 -0.2634
 7657SOL    HW123655   5.082   6.185   4.306  1.1575  1.6291 -0.4426
 7657SOL    HW223656   5.119   6.210   4.451  0.0540  1.5361 -0.1291
 7658SOL     OW23657   0.353   2.877   3.492 -0.3143  0.3412 -0.1223
 7658SOL    HW123658   0.345   2.872   3.587  0.6251 -0.4122 -0.0635
 7658SOL    HW223659   0.446   2.859   3.475 -0.3424  1.0892 -1.1407
 7659SOL     OW23660   4.202   0.338   5.438  0.3804  0.2634  0.0099
 7659SOL    HW123661   4.162   0.256   5.467  0.3078 -0.3206 -1.6541
 7659SOL    HW223662   4.169   0.351   5.349  1.3190  1.4797 -0.1877
 7660SOL     OW23663   0.836   0.949   5.977  0.1219  0.0708 -0.4750
 7660SOL    HW123664   0.819   0.859   5.947 -1.6789  0.0025  0.6100
 7660SOL    HW223665   0.866   0.939   6.067  1.2494  0.5010 -0.7956
 7661SOL     OW23666   1.481   1.397   3.244  0.4819 -0.0699  0.0690
 7661SOL    HW123667   1.415   1.438   3.188  0.3594 -0.5001 -0.1006
 7661SOL    HW223668   1.481   1.305   3.219 -1.6987 -0.9483  2.7550
 7662SOL     OW23669   3.461   3.280   4.948  0.2402  0.3633 -0.4390
 7662SOL    HW123670   3.460   3.375   4.936  1.2871  0.4335 -0.1010
 7662SOL    HW223671   3.491   3.245   4.864 -0.8549  0.2787 -0.8001
 7663SOL     OW23672   2.621   1.967   2.445 -0.6140  0.2733 -0.0593
 7663SOL    HW123673   2.531   1.982   2.417 -0.1970 -0.2912 -1.8117
 7663SOL    HW223674   2.649   1.888   2.398  0.3458 -0.4133  1.5576
 7664SOL     OW23675   1.484   6.173   0.992  0.1690 -0.3136  0.1048
 7664SOL    HW123676   1.468   6.211   0.906 -1.9318 -1.4883 -0.1064
 7664SOL    HW223677   1.445   6.236   1.053 -0.0431 -0.3687  0.0296
 7665SOL     OW23678   5.464   1.529   0.238 -0.2413 -0.1604 -0.5677
 7665SOL    HW123679   5.410   1.541   0.317 -0.1884 -1.5958 -0.2757
 7665SOL    HW223680   5.526   1.460   0.263 -0.1727 -0.5764 -1.8430
 7666SOL     OW23681   4.943   6.705   5.118  0.1195 -0.1234 -0.0843
 7666SOL    HW123682   4.900   6.619   5.115  0.7841 -0.4562 -0.2887
 7666SOL    HW223683   5.001   6.700   5.194  0.4250  0.0150 -0.3082
 7667SOL     OW23684   4.281   2.299   2.172 -0.4351  0.3494 -0.3231
 7667SOL    HW123685   4.355   2.339   2.217 -0.1133 -1.1531  0.5645
 7667SOL    HW223686   4.205   2.325   2.224 -0.1836 -0.4789  0.4892
 7668SOL     OW23687   6.107   3.634   3.115 -0.1643 -0.1925  0.0846
 7668SOL    HW123688   6.076   3.702   3.175  0.0995  1.5300 -1.6201
 7668SOL    HW223689   6.090   3.670   3.028  0.4742 -2.1237 -0.8919
 7669SOL     OW23690   1.588   2.976   5.717  0.7058  0.4418  0.0588
 7669SOL    HW123691   1.579   2.987   5.812 -0.2770 -0.0891  0.0384
 7669SOL    HW223692   1.683   2.974   5.703  0.9080  2.9160  0.7140
 7670SOL     OW23693   2.742   0.285   3.317 -0.5807 -0.7471 -0.5526
 7670SOL    HW123694   2.684   0.243   3.253 -1.2227 -1.9475  0.7726
 7670SOL    HW223695   2.685   0.346   3.364 -0.7124 -1.6124  0.4554
 7671SOL     OW23696   5.631   6.680   1.266  0.0928  0.5946 -0.1316
 7671SOL    HW123697   5.554   6.719   1.224 -0.6415 -1.4668 -0.8047
 7671SOL    HW223698   5.601   6.594   1.297  1.9925 -0.0555  0.0369
 7672SOL     OW23699   2.742   1.887   5.633 -0.4806  0.7864  0.1789
 7672SOL    HW123700   2.681   1.833   5.684 -1.3199  0.8428 -0.7444
 7672SOL    HW223701   2.801   1.924   5.698 -0.0370 -1.0294  0.8826
 7673SOL     OW23702   4.216   6.346   0.721  0.1510  0.5527  0.5423
 7673SOL    HW123703   4.233   6.279   0.787  1.3259  1.9049  1.6813
 7673SOL    HW223704   4.156   6.407   0.764  0.3853  1.0905  0.1213
 7674SOL     OW23705   5.306   6.720   2.493 -0.2131 -0.4728 -0.5365
 7674SOL    HW123706   5.313   6.647   2.432 -0.1111 -0.5142 -0.4763
 7674SOL    HW223707   5.383   6.711   2.550  0.4058  0.3295 -1.2180
 7675SOL     OW23708   6.629   5.026   5.062 -0.3828 -0.5639 -0.3696
 7675SOL    HW123709   6.693   5.080   5.110  0.7810 -2.4406  0.3320
 7675SOL    HW223710   6.655   5.035   4.971 -0.4025  0.2977 -0.3006
 7676SOL     OW23711   1.778   5.405   6.291  0.7655 -0.3321  0.4794
 7676SOL    HW123712   1.856   5.451   6.258 -0.3981  1.2823 -0.1877
 7676SOL    HW223713   1.707   5.469   6.281 -1.3169 -2.7743 -1.9725
 7677SOL     OW23714   1.949   3.730   2.832 -0.0061 -0.0579  0.0350
 7677SOL    HW123715   1.926   3.639   2.852  1.0142  0.0689  2.0957
 7677SOL    HW223716   1.865   3.774   2.820 -0.4958 -1.4126 -1.9706
 7678SOL     OW23717   1.379   4.324   3.892 -0.4073  0.0606 -0.2324
 7678SOL    HW123718   1.340   4.409   3.915 -0.8936  0.1102 -1.1885
 7678SOL    HW223719   1.407   4.334   3.801  0.6715 -0.4105  0.0345
 7679SOL     OW23720   0.347   2.395   2.350 -0.5448  0.0335 -0.1070
 7679SOL    HW123721   0.433   2.438   2.359 -0.3161 -0.4871  0.2441
 7679SOL    HW223722   0.284   2.464   2.372 -0.2629  0.6465 -1.1424
 7680SOL     OW23723   6.857   3.569   1.575  0.4200  0.6430  1.1789
 7680SOL    HW123724   6.939   3.564   1.624  2.4759 -2.8335 -2.0052
 7680SOL    HW223725   6.883   3.596   1.487 -2.1495  0.9894  0.4214
 7681SOL     OW23726   6.392   1.050   1.059  0.1046  0.6925  0.0411
 7681SOL    HW123727   6.369   1.050   1.152 -0.5226 -0.1239 -0.1015
 7681SOL    HW223728   6.485   1.070   1.058  0.2052  0.3459  0.8742
 7682SOL     OW23729   6.099   4.523   3.611  0.2062 -0.2936 -0.3909
 7682SOL    HW123730   6.157   4.502   3.684  0.0709 -0.7153 -0.3991
 7682SOL    HW223731   6.063   4.438   3.585  0.1600 -0.1276 -0.8670
 7683SOL     OW23732   0.705   1.652   2.075 -0.2208 -0.4134 -0.3706
 7683SOL    HW123733   0.741   1.583   2.019 -0.0530 -0.0148 -0.7619
 7683SOL    HW223734   0.638   1.609   2.127  2.2175 -1.7210  1.9298
 7684SOL     OW23735   6.089   5.952   5.287 -0.0869  0.6043 -0.1939
 7684SOL    HW123736   6.134   6.022   5.240 -4.2684  3.2021 -0.8749
 7684SOL    HW223737   6.043   5.904   5.218 -1.2342  0.4139  0.6778
 7685SOL     OW23738   1.577   4.247   0.993 -0.4889  0.0526 -0.2965
 7685SOL    HW123739   1.556   4.213   1.080 -0.4737  2.6517  0.8336
 7685SOL    HW223740   1.506   4.309   0.974  1.1550  1.9632 -0.6033
 7686SOL     OW23741   6.340   2.348   3.014  0.5788  0.1736 -0.6889
 7686SOL    HW123742   6.295   2.296   3.081  0.5847  1.9685  0.7681
 7686SOL    HW223743   6.287   2.335   2.935  0.3384 -1.6579 -0.2840
 7687SOL     OW23744   3.268   4.638   0.663 -0.0768 -0.4426  0.7245
 7687SOL    HW123745   3.227   4.569   0.715 -0.2406 -2.1866 -1.5828
 7687SOL    HW223746   3.211   4.648   0.587  0.8895  1.0150  0.1510
 7688SOL     OW23747   6.511   1.596   6.482 -0.0676 -0.1311 -0.0989
 7688SOL    HW123748   6.540   1.522   6.535 -1.1552 -0.6795 -0.2625
 7688SOL    HW223749   6.424   1.618   6.515 -0.3991  0.0836 -1.0632
 7689SOL     OW23750   5.117   5.250   2.221  0.4701  0.0162  0.2997
 7689SOL    HW123751   5.047   5.188   2.198  0.5033  0.2693 -0.5108
 7689SOL    HW223752   5.179   5.243   2.148  0.9761  0.2598  0.7080
 7690SOL     OW23753   3.674   6.497   3.426 -0.0470 -0.4216  0.0330
 7690SOL    HW123754   3.675   6.564   3.494 -0.4105 -0.7616  0.3778
 7690SOL    HW223755   3.753   6.514   3.374 -1.1823  1.5246 -1.1327
 7691SOL     OW23756   5.987   1.273   2.217 -0.1984  0.4895 -0.1241
 7691SOL    HW123757   5.982   1.187   2.259 -1.0071  0.7957  0.4163
 7691SOL    HW223758   6.079   1.281   2.192 -0.3597 -1.0730 -1.3557
 7692SOL     OW23759   5.027   2.618   6.861 -0.3031  0.1524  0.2484
 7692SOL    HW123760   5.023   2.629   6.956 -2.1545  0.8729  0.1273
 7692SOL    HW223761   4.935   2.615   6.834  0.1860  1.4402 -1.6828
 7693SOL     OW23762   2.330   2.186   6.097 -0.2271 -0.9427 -0.0677
 7693SOL    HW123763   2.248   2.233   6.084  0.6066  0.6410  0.2070
 7693SOL    HW223764   2.353   2.202   6.189  1.0602 -0.2046 -0.4928
 7694SOL     OW23765   0.225   6.884   5.070 -0.5080 -0.0258  0.4761
 7694SOL    HW123766   0.290   6.954   5.064 -1.1842  0.4984 -1.3107
 7694SOL    HW223767   0.147   6.926   5.108 -0.7034  0.0399  0.0072
 7695SOL     OW23768   6.827   2.074   4.814  0.2368 -0.0423 -0.1257
 7695SOL    HW123769   6.749   2.084   4.869  1.0950 -0.3956  1.2139
 7695SOL    HW223770   6.799   2.102   4.727 -1.3017  0.1068  0.3837
 7696SOL     OW23771   2.089   0.599   0.222 -0.1777 -0.1232  0.2989
 7696SOL    HW123772   2.098   0.674   0.164  0.4311 -0.2944  0.1675
 7696SOL    HW223773   2.118   0.524   0.170  1.9865 -0.0762  1.2952
 7697SOL     OW23774   3.849   6.427   6.270 -0.7504 -0.0898  0.5535
 7697SOL    HW123775   3.790   6.496   6.240  1.1984  1.1934 -0.4836
 7697SOL    HW223776   3.852   6.438   6.365 -2.0397 -0.0947  0.6121
 7698SOL     OW23777   0.045   1.485   5.366 -0.7347  0.2030  0.3272
 7698SOL    HW123778   0.108   1.413   5.361  0.3688  1.2014 -0.5888
 7698SOL    HW223779  -0.034   1.451   5.324 -0.1615 -0.4057 -0.2709
 7699SOL     OW23780   0.205   5.124   0.306 -0.0296  0.3057 -0.2001
 7699SOL    HW123781   0.271   5.061   0.277  1.2854  1.7373 -0.4922
 7699SOL    HW223782   0.237   5.209   0.273 -1.7559  1.1241  0.1086
 7700SOL     OW23783   2.706   3.252   3.730  0.5461 -0.0146  0.0331
 7700SOL    HW123784   2.620   3.288   3.754 -0.9959 -1.2042 -3.0947
 7700SOL    HW223785   2.695   3.157   3.738  1.7038 -0.1709 -0.0832
 7701SOL     OW23786   1.445   1.125   5.470  0.8009  0.0423  0.4545
 7701SOL    HW123787   1.357   1.089   5.455  1.3918 -0.7727 -1.3866
 7701SOL    HW223788   1.485   1.125   5.383  3.6878 -2.3950  1.6288
 7702SOL     OW23789   4.104   4.354   5.759  0.2206  0.0245 -0.5153
 7702SOL    HW123790   4.158   4.279   5.784 -0.3114 -0.3551 -0.4831
 7702SOL    HW223791   4.128   4.424   5.820  2.5898  0.7354 -2.1164
 7703SOL     OW23792   0.692   5.113   0.306 -0.2064  0.1165 -0.2496
 7703SOL    HW123793   0.722   5.066   0.228  0.8226  0.0602  0.1722
 7703SOL    HW223794   0.715   5.204   0.290  0.2306  0.0702  0.0817
 7704SOL     OW23795   6.507   2.264   6.713  0.0806  0.2799 -0.1546
 7704SOL    HW123796   6.546   2.210   6.644 -0.8434 -0.2419 -0.2750
 7704SOL    HW223797   6.475   2.342   6.667  3.8164  2.3926  0.3308
 7705SOL     OW23798   3.239   6.386   2.495 -0.2710  0.0375  1.0597
 7705SOL    HW123799   3.157   6.430   2.472  0.4446  0.1233 -1.6773
 7705SOL    HW223800   3.219   6.292   2.485  0.0724  0.0794 -0.1797
 7706SOL     OW23801   4.869   2.643   5.424  0.5535  0.2663 -0.0393
 7706SOL    HW123802   4.943   2.604   5.378  0.5683  1.2113 -0.8612
 7706SOL    HW223803   4.852   2.725   5.377 -1.7642 -0.4692 -0.6382
 7707SOL     OW23804   2.553   4.370   1.811 -0.6049  0.3092  0.0277
 7707SOL    HW123805   2.608   4.368   1.889 -1.0245 -1.4283  0.3167
 7707SOL    HW223806   2.511   4.456   1.814  1.6968  1.5359  0.0225
 7708SOL     OW23807   4.077   1.577   1.639 -0.3287 -0.0433  0.7582
 7708SOL    HW123808   4.031   1.495   1.658 -0.5106 -0.3090 -0.7080
 7708SOL    HW223809   4.161   1.549   1.603 -0.4866  0.3853  0.0264
 7709SOL     OW23810   6.815   1.670   2.015 -0.0554 -0.3332  0.2208
 7709SOL    HW123811   6.764   1.589   2.020 -0.1958 -0.3110 -0.7618
 7709SOL    HW223812   6.888   1.655   2.075  0.6267 -1.7070 -0.8972
 7710SOL     OW23813   1.541   4.061   5.503 -0.1840  0.3529 -0.5061
 7710SOL    HW123814   1.510   4.065   5.594 -1.8110 -0.4624 -0.9720
 7710SOL    HW223815   1.607   3.992   5.503 -0.0997  0.4311  0.0880
 7711SOL     OW23816   3.118   6.140   5.887 -0.3480  0.3259  0.1698
 7711SOL    HW123817   3.106   6.114   5.978 -0.3931 -0.2959 -0.0068
 7711SOL    HW223818   3.074   6.225   5.880 -0.3650  0.3645  0.7187
 7712SOL     OW23819   2.144   2.619   5.373 -0.5677  0.1093  0.3673
 7712SOL    HW123820   2.157   2.677   5.447  0.9059  0.7679 -0.3717
 7712SOL    HW223821   2.143   2.677   5.297 -1.0708 -0.6444 -0.2199
 7713SOL     OW23822   6.629   5.927   3.201  0.0642  0.4053  0.3289
 7713SOL    HW123823   6.565   5.883   3.145 -1.2628  0.1811  1.9141
 7713SOL    HW223824   6.694   5.859   3.221 -0.3139  0.0326  0.3133
 7714SOL     OW23825   4.232   5.638   1.817  0.6919  0.0156 -0.1576
 7714SOL    HW123826   4.156   5.635   1.875  0.3110  0.3367 -0.6338
 7714SOL    HW223827   4.270   5.724   1.832 -0.3102  0.7419 -1.4921
 7715SOL     OW23828   4.515   0.365   6.339  0.0798 -0.5212  0.6683
 7715SOL    HW123829   4.475   0.451   6.343 -1.3624 -1.1871  1.1076
 7715SOL    HW223830   4.444   0.304   6.359  1.2831 -1.7602  1.3838
 7716SOL     OW23831   1.121   4.241   0.681 -0.3728 -0.2637 -0.3568
 7716SOL    HW123832   1.168   4.226   0.763  0.8239  0.8266 -0.8021
 7716SOL    HW223833   1.188   4.275   0.621 -1.2182 -1.0171 -1.7876
 7717SOL     OW23834   2.017   3.474   1.856 -0.3264 -0.1565  0.0881
 7717SOL    HW123835   1.985   3.555   1.897 -0.8531 -0.8372  1.0698
 7717SOL    HW223836   1.938   3.423   1.839  0.0674 -0.8701  0.3714
 7718SOL     OW23837   2.030   6.747   1.396 -0.1566  0.5674 -0.2611
 7718SOL    HW123838   2.033   6.658   1.361 -0.3121  0.1003  0.8604
 7718SOL    HW223839   1.962   6.744   1.463  0.2049  1.3982  0.1536
 7719SOL     OW23840   0.289   2.044   4.411 -0.0679 -0.0372  0.3009
 7719SOL    HW123841   0.268   1.977   4.476  1.4816 -0.8026  0.0639
 7719SOL    HW223842   0.204   2.078   4.383 -0.8971 -1.8510  0.4816
 7720SOL     OW23843   0.123   4.144   6.079 -0.6130 -0.4177 -0.7074
 7720SOL    HW123844   0.050   4.196   6.110 -0.7166 -1.7058  1.4058
 7720SOL    HW223845   0.085   4.082   6.016 -0.9246  0.3614 -1.2905
 7721SOL     OW23846   4.644   0.591   0.515 -0.2004  0.5756  0.5363
 7721SOL    HW123847   4.672   0.559   0.600 -0.4316  1.4153  0.9409
 7721SOL    HW223848   4.725   0.616   0.471  0.1026 -1.5501 -0.2386
 7722SOL     OW23849   2.090   2.274   2.027  0.2495  0.1904 -0.0385
 7722SOL    HW123850   2.084   2.271   2.122  3.1754 -0.3067  0.2523
 7722SOL    HW223851   2.167   2.329   2.010  0.2985 -0.4255 -2.0429
 7723SOL     OW23852   3.972   5.729   5.638 -0.0434  0.6064 -0.6168
 7723SOL    HW123853   3.939   5.720   5.549  0.4573 -2.1669 -0.6149
 7723SOL    HW223854   3.938   5.812   5.669 -1.3522  0.9882 -2.9256
 7724SOL     OW23855   3.670   1.154   0.153  0.8565  0.0635  0.3131
 7724SOL    HW123856   3.576   1.137   0.160  0.2540  2.7457 -0.1247
 7724SOL    HW223857   3.685   1.230   0.209  2.6225  0.2172 -0.2924
 7725SOL     OW23858   2.891   0.280   4.655 -0.0047 -0.3378  0.1906
 7725SOL    HW123859   2.920   0.257   4.567 -2.4652 -0.4068 -0.6845
 7725SOL    HW223860   2.891   0.376   4.657  2.7773 -0.2834  1.1633
 7726SOL     OW23861   5.880   3.097   3.377  0.1855  0.1230 -0.3506
 7726SOL    HW123862   5.891   3.161   3.447 -0.2607 -1.3165  1.0988
 7726SOL    HW223863   5.968   3.061   3.363  0.2674  0.3814 -0.5013
 7727SOL     OW23864   6.789   2.465   2.263 -0.3554 -0.6553  0.1135
 7727SOL    HW123865   6.857   2.419   2.312 -0.7990 -2.5138 -0.9408
 7727SOL    HW223866   6.719   2.400   2.251 -1.5777  0.6858 -0.3066
 7728SOL     OW23867   2.775   0.703   2.097  0.1146 -0.2984 -0.6276
 7728SOL    HW123868   2.782   0.769   2.028  2.0621  0.4413  0.2042
 7728SOL    HW223869   2.691   0.660   2.081 -0.8529  1.8241 -1.7085
 7729SOL     OW23870   1.050   2.927   0.909 -0.4346 -0.6133  0.0856
 7729SOL    HW123871   0.959   2.954   0.921 -0.1345  0.2353  0.5464
 7729SOL    HW223872   1.095   3.007   0.882  0.4169 -0.7057  1.1572
 7730SOL     OW23873   2.142   0.413   1.073 -0.2732 -0.4635 -0.1496
 7730SOL    HW123874   2.193   0.445   0.999 -1.0488  2.0830  0.2953
 7730SOL    HW223875   2.064   0.373   1.034 -0.0920 -0.2496 -0.7369
 7731SOL     OW23876   5.452   1.543   6.012  0.2224  0.0730  0.0643
 7731SOL    HW123877   5.372   1.491   6.007  0.3526 -0.3037  1.4968
 7731SOL    HW223878   5.453   1.578   6.101  1.6526  0.0631  0.0782
 7732SOL     OW23879   0.063   5.697   5.385 -0.3830 -0.2339  0.2070
 7732SOL    HW123880   0.055   5.611   5.426  1.7438  0.2450  1.8119
 7732SOL    HW223881  -0.026   5.731   5.383 -0.9083 -1.3447  2.1619
 7733SOL     OW23882   6.433   1.525   6.215 -0.2570 -0.2888 -0.9055
 7733SOL    HW123883   6.463   1.552   6.302 -0.3669 -0.4727 -0.8100
 7733SOL    HW223884   6.466   1.593   6.156 -4.8032  3.0695 -0.1538
 7734SOL     OW23885   0.851   5.859   6.632 -0.0520  0.1493 -0.1385
 7734SOL    HW123886   0.771   5.911   6.627 -0.2963 -0.2813 -0.7440
 7734SOL    HW223887   0.919   5.917   6.598 -0.3562  0.0187 -0.9904
 7735SOL     OW23888   6.895   6.021   2.138 -0.5716 -0.0987  0.4601
 7735SOL    HW123889   6.977   5.978   2.115 -0.1124  0.4165  1.0953
 7735SOL    HW223890   6.828   5.954   2.126 -0.4765  0.2566 -2.8554
 7736SOL     OW23891   6.492   5.683   0.703 -0.6839 -0.1711 -0.1160
 7736SOL    HW123892   6.500   5.599   0.750 -0.0054  0.1880  0.4382
 7736SOL    HW223893   6.433   5.664   0.631 -0.0795 -1.2850 -0.3481
 7737SOL     OW23894   6.476   5.560   2.173 -0.3564  0.0456 -0.4138
 7737SOL    HW123895   6.506   5.600   2.091 -2.3262  1.7622 -0.3977
 7737SOL    HW223896   6.380   5.556   2.163 -0.4953 -1.4662  1.0787
 7738SOL     OW23897   1.263   2.898   5.577  0.4066 -0.4073 -0.3140
 7738SOL    HW123898   1.326   2.837   5.614 -0.0052 -1.0285 -0.6191
 7738SOL    HW223899   1.241   2.958   5.649  1.7177  0.1328 -0.3442
 7739SOL     OW23900   1.091   3.071   5.197  0.2094 -0.0402  0.0453
 7739SOL    HW123901   1.028   3.000   5.213  0.9500 -0.6732  0.2453
 7739SOL    HW223902   1.057   3.117   5.121 -1.2867  0.5614  1.0375
 7740SOL     OW23903   5.151   1.332   3.170 -0.3337 -0.1258  0.3215
 7740SOL    HW123904   5.145   1.244   3.133 -1.5784  0.1894 -0.2835
 7740SOL    HW223905   5.092   1.330   3.246  0.2544 -0.0365  0.7878
 7741SOL     OW23906   2.551   4.622   2.633 -0.3906 -0.2634 -0.2735
 7741SOL    HW123907   2.563   4.685   2.562 -0.5540  1.5301  1.2138
 7741SOL    HW223908   2.632   4.571   2.633  1.5909  2.6471  0.9881
 7742SOL     OW23909   6.178   0.597   2.372 -0.2260  0.1342  0.3869
 7742SOL    HW123910   6.093   0.626   2.405 -0.1112 -0.3122  1.1144
 7742SOL    HW223911   6.160   0.565   2.284 -1.5931 -3.4337  1.7802
 7743SOL     OW23912   1.999   0.622   3.738 -0.5834 -0.2730 -0.7141
 7743SOL    HW123913   1.922   0.674   3.713 -0.2276  0.2619 -0.6963
 7743SOL    HW223914   2.045   0.676   3.802 -0.4989 -0.8455 -0.2877
 7744SOL     OW23915   5.990   6.249   5.758 -0.1880 -0.0889 -0.3420
 7744SOL    HW123916   6.025   6.199   5.685  0.4193 -1.8093  1.0356
 7744SOL    HW223917   6.067   6.279   5.806 -0.5478  2.2195 -1.1007
 7745SOL     OW23918   0.500   1.758   5.469 -0.2976 -0.8091 -0.5933
 7745SOL    HW123919   0.524   1.787   5.557  2.2859 -2.4702 -0.6505
 7745SOL    HW223920   0.544   1.820   5.411  2.0778 -2.4460 -0.6740
 7746SOL     OW23921   5.629   4.689   0.035  0.1635  0.5576 -0.5918
 7746SOL    HW123922   5.570   4.765   0.040  0.3999  0.9519 -2.7261
 7746SOL    HW223923   5.636   4.671  -0.059  1.5544 -0.9857 -0.2271
 7747SOL     OW23924   2.532   4.101   1.764  0.3931 -0.1486 -0.0926
 7747SOL    HW123925   2.571   4.066   1.684  0.0298  0.7918 -0.6908
 7747SOL    HW223926   2.538   4.196   1.755 -0.0719 -0.0223  0.7877
 7748SOL     OW23927   5.937   0.682   5.347 -0.4387 -0.0647 -0.4061
 7748SOL    HW123928   5.951   0.715   5.258  0.4213 -0.1465 -0.3092
 7748SOL    HW223929   5.944   0.587   5.339  1.2285 -0.0129 -0.0149
 7749SOL     OW23930   5.993   5.958   3.531 -0.1835 -0.1475 -0.3461
 7749SOL    HW123931   5.967   6.047   3.553  0.9969  0.7855 -2.4260
 7749SOL    HW223932   6.084   5.966   3.501  0.6010 -2.3738  1.2087
 7750SOL     OW23933   4.348   4.908   4.754 -0.1022  0.2378 -0.2769
 7750SOL    HW123934   4.353   5.004   4.757 -0.0608  0.2238  0.1903
 7750SOL    HW223935   4.330   4.888   4.662 -2.8712  0.8277  0.0458
 7751SOL     OW23936   2.358   1.378   5.104 -0.4969 -0.4067 -0.5309
 7751SOL    HW123937   2.359   1.472   5.085 -0.5474 -0.4375 -0.6862
 7751SOL    HW223938   2.321   1.372   5.192  2.8153 -0.0167  1.0493
 7752SOL     OW23939   5.505   4.314   2.132 -0.2822 -0.2870  0.0508
 7752SOL    HW123940   5.484   4.221   2.136 -0.7032 -0.2098 -0.3158
 7752SOL    HW223941   5.600   4.317   2.131 -0.2490 -0.8091 -1.9476
 7753SOL     OW23942   3.104   0.354   2.397  0.0249 -0.0264  0.3089
 7753SOL    HW123943   3.059   0.420   2.346  0.4754  1.1235  1.3581
 7753SOL    HW223944   3.195   0.358   2.367  0.3816  0.9496  1.4516
 7754SOL     OW23945   1.064   6.114   2.191  0.1789  0.0043  0.2688
 7754SOL    HW123946   0.995   6.177   2.209 -1.8216 -2.2337  0.8895
 7754SOL    HW223947   1.086   6.128   2.099 -1.2030  0.6630  0.0201
 7755SOL     OW23948   5.565   0.319   1.943 -0.0638 -0.0221  0.3737
 7755SOL    HW123949   5.501   0.275   1.888  0.3788 -1.4289  0.9307
 7755SOL    HW223950   5.648   0.307   1.898 -0.0492  1.0536  0.0827
 7756SOL     OW23951   4.295   5.285   0.465 -0.1023 -0.2438  0.1872
 7756SOL    HW123952   4.224   5.330   0.511  0.6211  1.2457 -0.1012
 7756SOL    HW223953   4.287   5.314   0.374 -0.5420 -1.9263 -0.3456
 7757SOL     OW23954   3.141   0.498   2.937 -0.7450  0.0939 -0.4347
 7757SOL    HW123955   3.225   0.464   2.967 -1.2658 -1.3053 -0.4786
 7757SOL    HW223956   3.138   0.477   2.844 -1.6950 -1.1418 -0.1616
 7758SOL     OW23957   4.348   2.800   3.129  0.2878 -0.4577 -0.1873
 7758SOL    HW123958   4.394   2.749   3.196  2.1890 -0.1329 -1.1857
 7758SOL    HW223959   4.293   2.861   3.179  2.2013  0.2842  1.1078
 7759SOL     OW23960   5.339   2.589   2.412  0.1791  0.5891  0.0202
 7759SOL    HW123961   5.318   2.669   2.461 -1.2088  0.3295 -0.1104
 7759SOL    HW223962   5.418   2.611   2.363  0.5389  1.4644  0.9516
 7760SOL     OW23963   4.672   0.509   3.646  0.6218 -0.3277  0.1431
 7760SOL    HW123964   4.711   0.536   3.563  2.1158 -0.5643  0.7383
 7760SOL    HW223965   4.694   0.580   3.707  1.6358 -1.2644  0.9033
 7761SOL     OW23966   6.448   0.484   5.615 -0.0870 -0.2947  0.3719
 7761SOL    HW123967   6.405   0.415   5.666  0.4227 -1.6939 -0.9984
 7761SOL    HW223968   6.524   0.508   5.667 -1.2399  0.5489  1.7164
 7762SOL     OW23969   0.040   4.693   0.207  1.0117  0.4034  0.0790
 7762SOL    HW123970  -0.034   4.741   0.170 -0.2599 -1.2004  0.4275
 7762SOL    HW223971   0.102   4.684   0.135  0.2993  0.6539 -0.5746
 7763SOL     OW23972   5.288   5.254   4.783 -0.0671 -0.1491 -0.5800
 7763SOL    HW123973   5.343   5.321   4.822 -1.0768  0.6662 -0.5065
 7763SOL    HW223974   5.207   5.257   4.834 -0.7806 -0.2078 -1.6798
 7764SOL     OW23975   6.354   6.311   0.923 -0.4637  0.1903  0.2721
 7764SOL    HW123976   6.335   6.223   0.893  2.2665 -0.7176  0.9166
 7764SOL    HW223977   6.384   6.357   0.845  0.5252 -0.2288  0.4001
 7765SOL     OW23978   1.539   1.098   1.226  0.6226 -0.1430 -0.0068
 7765SOL    HW123979   1.591   1.172   1.194  0.8914 -0.6385 -0.7277
 7765SOL    HW223980   1.486   1.135   1.297 -0.8574  1.2791 -1.7542
 7766SOL     OW23981   5.707   2.326   3.455  0.1151 -0.1422  0.4753
 7766SOL    HW123982   5.678   2.242   3.418 -1.7609  0.0419  1.3867
 7766SOL    HW223983   5.638   2.349   3.518 -0.4744  2.9911 -1.0874
 7767SOL     OW23984   0.048   4.517   0.713 -0.5666  0.4300  0.8524
 7767SOL    HW123985   0.085   4.509   0.625 -0.2010  0.5535  0.9923
 7767SOL    HW223986  -0.003   4.597   0.710  1.1903  1.6350  1.3495
 7768SOL     OW23987   2.281   3.884   0.973 -0.3977 -0.2257 -0.2126
 7768SOL    HW123988   2.328   3.967   0.961 -1.7000  0.7064  0.7320
 7768SOL    HW223989   2.329   3.821   0.921  2.1223  0.5491  1.0155
 7769SOL     OW23990   2.795   6.704   1.857  0.0303  0.1596 -0.1556
 7769SOL    HW123991   2.823   6.655   1.935 -0.6953 -1.4403 -0.8527
 7769SOL    HW223992   2.700   6.710   1.866  0.0832  1.1890 -0.2453
 7770SOL     OW23993   3.556   2.949   0.150 -0.0912 -0.3783 -0.5629
 7770SOL    HW123994   3.506   2.956   0.069 -1.4868  1.5345  0.3898
 7770SOL    HW223995   3.630   3.007   0.137 -0.0865 -0.3977 -0.6242
 7771SOL     OW23996   1.720   2.181   0.197 -0.3340  0.5006 -0.3552
 7771SOL    HW123997   1.800   2.231   0.211  0.2844 -0.4783 -0.3563
 7771SOL    HW223998   1.670   2.192   0.278  0.4249 -0.0287  0.1895
 7772SOL     OW23999   3.587   1.852   1.955 -0.0694 -0.0216 -0.2270
 7772SOL    HW124000   3.520   1.853   1.887 -0.3752 -0.3505  0.0680
 7772SOL    HW224001   3.646   1.924   1.931 -1.2311  1.1119  0.2253
 7773SOL     OW24002   2.741   6.829   4.292 -0.1594  0.0729  0.1559
 7773SOL    HW124003   2.797   6.753   4.276  1.2080  0.6616  1.8296
 7773SOL    HW224004   2.729   6.830   4.387 -0.0363  2.0259  0.1751
 7774SOL     OW24005   6.195   1.965   1.959  0.0988  0.4197  0.2709
 7774SOL    HW124006   6.205   1.871   1.943 -1.4125  0.3545 -0.5488
 7774SOL    HW224007   6.136   1.970   2.034 -0.2411  0.7035 -0.0127
 7775SOL     OW24008   6.633   1.225   0.668 -0.4384 -0.1970 -0.2229
 7775SOL    HW124009   6.684   1.300   0.700  1.5194 -1.9396  0.9415
 7775SOL    HW224010   6.613   1.248   0.577  1.8217  0.9238 -0.5197
 7776SOL     OW24011   0.385   1.855   6.083  0.4904 -0.2843 -0.5195
 7776SOL    HW124012   0.323   1.804   6.136 -2.0604  1.6260 -1.4580
 7776SOL    HW224013   0.378   1.818   5.995  0.1590  0.3509 -0.7687
 7777SOL     OW24014   3.445   4.966   2.869  0.2018  0.3532 -0.3858
 7777SOL    HW124015   3.410   5.031   2.807  0.9933  0.0869 -1.1169
 7777SOL    HW224016   3.414   4.997   2.954  0.4233  1.6122 -0.7387
 7778SOL     OW24017   6.258   0.349   4.141 -0.6664 -0.4113  0.1992
 7778SOL    HW124018   6.169   0.382   4.154 -0.8194 -0.6414 -0.2158
 7778SOL    HW224019   6.247   0.255   4.128 -0.2822 -0.5607  0.9044
 7779SOL     OW24020   4.070   5.803   2.894  0.1816 -0.2949  0.2448
 7779SOL    HW124021   4.017   5.878   2.920 -0.2781 -0.4101 -0.3350
 7779SOL    HW224022   4.105   5.827   2.808  2.3223  0.4211  1.2326
 7780SOL     OW24023   5.746   1.245   2.827  0.3563  0.3734  0.1913
 7780SOL    HW124024   5.700   1.322   2.793  2.2831  1.8395  0.7265
 7780SOL    HW224025   5.685   1.173   2.812 -1.1516  1.8295 -1.2022
 7781SOL     OW24026   0.496   6.135   5.469 -0.4574  0.6125  0.1527
 7781SOL    HW124027   0.500   6.106   5.378 -0.9779  1.0480 -0.0181
 7781SOL    HW224028   0.565   6.086   5.513 -0.0579  0.5539 -0.5197
 7782SOL     OW24029   5.714   0.037   3.244 -0.5917  0.2398  0.4208
 7782SOL    HW124030   5.766  -0.001   3.315  0.2024 -0.0847 -0.3086
 7782SOL    HW224031   5.775   0.042   3.170 -1.5510  0.0382 -0.4055
 7783SOL     OW24032   3.293   2.751   4.321  0.3517  0.4011  0.7032
 7783SOL    HW124033   3.248   2.825   4.279  0.1438  0.3252  0.7956
 7783SOL    HW224034   3.385   2.777   4.321  0.1625  1.1358  1.6947
 7784SOL     OW24035   1.525   0.174   5.536  0.2323  0.4634  0.8738
 7784SOL    HW124036   1.614   0.210   5.542  1.1220 -1.1459 -1.1012
 7784SOL    HW224037   1.519   0.112   5.608  1.6024 -1.0285 -0.2248
 7785SOL     OW24038   5.939   1.030   3.345 -0.9223  0.0520  0.2757
 7785SOL    HW124039   5.914   1.122   3.354 -0.2306  0.3351 -0.4787
 7785SOL    HW224040   6.028   1.027   3.380 -0.0277  0.1958 -1.8401
 7786SOL     OW24041   1.419   3.846   0.123  0.5780  0.0606  0.5971
 7786SOL    HW124042   1.427   3.813   0.212  1.1287  0.3355  0.6496
 7786SOL    HW224043   1.431   3.769   0.068 -2.1212 -0.5910  0.7707
 7787SOL     OW24044   2.973   4.793   0.874  0.1470 -0.6361  0.0352
 7787SOL    HW124045   2.997   4.730   0.942  0.6817  0.2599  0.6914
 7787SOL    HW224046   3.049   4.852   0.868 -0.2720 -0.1559 -0.6896
 7788SOL     OW24047   1.382   5.040   2.122 -0.1573 -0.0998  0.1580
 7788SOL    HW124048   1.378   5.099   2.198  1.2524  1.8962 -1.2198
 7788SOL    HW224049   1.304   4.985   2.131 -2.3232  2.8253  0.9079
 7789SOL     OW24050   5.579   3.407   3.156 -0.0531  0.7275 -0.1904
 7789SOL    HW124051   5.649   3.343   3.149 -0.9522 -0.5605  1.6597
 7789SOL    HW224052   5.623   3.491   3.163  1.4224 -0.1421  2.0666
 7790SOL     OW24053   0.337   3.934   1.433  0.0721 -0.4039 -0.3293
 7790SOL    HW124054   0.321   3.877   1.508  0.1344 -0.9565 -0.7317
 7790SOL    HW224055   0.393   3.883   1.375 -2.0897 -1.0415 -2.0016
 7791SOL     OW24056   4.400   2.594   5.275  0.0600  0.3172  0.1286
 7791SOL    HW124057   4.440   2.623   5.193 -1.5049 -0.5964 -0.9905
 7791SOL    HW224058   4.322   2.649   5.285  0.7556  1.1195  1.5646
 7792SOL     OW24059   6.064   1.066   0.115 -0.6076  0.2453  0.0275
 7792SOL    HW124060   6.043   1.062   0.208 -0.5777 -1.0191 -0.0104
 7792SOL    HW224061   5.999   1.126   0.078 -2.8565 -1.8901  0.2731
 7793SOL     OW24062   3.095   6.277   5.477  0.2572 -0.0877 -0.4815
 7793SOL    HW124063   3.087   6.324   5.560 -1.3227 -2.1466  0.6179
 7793SOL    HW224064   3.050   6.332   5.413 -0.2652  0.5700  0.4436
 7794SOL     OW24065   4.245   5.542   4.798  0.1482  0.0296 -0.1937
 7794SOL    HW124066   4.280   5.611   4.855 -0.8528  0.5642 -0.1984
 7794SOL    HW224067   4.210   5.589   4.723 -1.9279 -0.3046  0.4941
 7795SOL     OW24068   0.426   2.143   6.073  0.4777  0.4345  0.3615
 7795SOL    HW124069   0.423   2.048   6.059  0.4067  0.0347  2.7379
 7795SOL    HW224070   0.347   2.175   6.030  0.9511 -0.4127 -1.2677
 7796SOL     OW24071   6.020   4.631   0.896 -0.5894 -0.2787 -0.3794
 7796SOL    HW124072   6.070   4.684   0.834  1.7760  0.5280  2.0137
 7796SOL    HW224073   5.952   4.690   0.929  1.1462  0.9065  1.2275
 7797SOL     OW24074   4.694   4.568   5.603  0.0250  0.2330  0.5474
 7797SOL    HW124075   4.778   4.611   5.615  0.5861 -1.2826  2.7639
 7797SOL    HW224076   4.711   4.476   5.625 -1.8569 -0.4504 -0.6000
 7798SOL     OW24077   5.905   6.338   5.087 -0.2761 -0.0321 -0.4351
 7798SOL    HW124078   5.841   6.320   5.019  0.2699  0.3424 -1.0516
 7798SOL    HW224079   5.863   6.307   5.168 -1.3001  0.3780 -0.7950
 7799SOL     OW24080   2.029   0.667   2.842 -0.5156 -0.0801  0.0789
 7799SOL    HW124081   2.056   0.618   2.919  0.0162 -0.0949 -0.1072
 7799SOL    HW224082   2.034   0.604   2.770  0.7084  0.3642 -0.2535
 7800SOL     OW24083   3.427   5.810   0.228  0.0520 -0.4336 -0.3741
 7800SOL    HW124084   3.396   5.850   0.309  0.3663  0.5741 -0.7274
 7800SOL    HW224085   3.484   5.877   0.189  1.5378 -1.6853 -0.4308
 7801SOL     OW24086   1.416   2.060   4.336 -0.3417  0.2740 -0.0361
 7801SOL    HW124087   1.337   2.008   4.325 -0.1662  0.3089 -1.6762
 7801SOL    HW224088   1.474   2.030   4.266  0.9734  0.4987  0.9129
 7802SOL     OW24089   5.867   1.916   3.692  0.3309 -0.3055  0.3404
 7802SOL    HW124090   5.799   1.939   3.756 -0.2726 -1.5679  0.1800
 7802SOL    HW224091   5.941   1.886   3.745 -0.2137 -1.4708  0.4546
 7803SOL     OW24092   2.098   4.978   4.479  0.1187 -0.0410 -0.4018
 7803SOL    HW124093   2.047   4.960   4.558 -0.9689 -1.2748 -1.3305
 7803SOL    HW224094   2.188   4.959   4.503 -0.2292 -0.5788  0.4920
 7804SOL     OW24095   4.575   1.083   5.454 -0.7425  0.1868 -0.3091
 7804SOL    HW124096   4.502   1.049   5.507 -0.3821 -1.1520 -0.6365
 7804SOL    HW224097   4.584   1.174   5.482 -2.1036  0.1863  0.2207
 7805SOL     OW24098   2.431   5.602   1.562  0.0564 -0.3514  0.0820
 7805SOL    HW124099   2.432   5.685   1.515  1.7598  0.6318  1.7095
 7805SOL    HW224100   2.434   5.536   1.493  0.8899  0.9800 -1.2318
 7806SOL     OW24101   0.091   0.887   1.942  0.1058  0.0104  0.3747
 7806SOL    HW124102   0.099   0.853   2.031  1.6612  0.7621  0.5550
 7806SOL    HW224103   0.155   0.958   1.938 -0.6252  0.6262 -1.0534
 7807SOL     OW24104   5.174   4.012   0.166 -0.2476 -0.2796 -0.3847
 7807SOL    HW124105   5.240   4.081   0.180  0.2127 -0.9150  0.7090
 7807SOL    HW224106   5.099   4.058   0.129 -0.6946  1.2203  2.1366
 7808SOL     OW24107   0.063   6.692   0.449  1.0048  0.2400  0.0165
 7808SOL    HW124108  -0.024   6.664   0.421  1.4244 -0.5591 -0.5422
 7808SOL    HW224109   0.102   6.732   0.371  1.7653 -0.9846 -0.2722
 7809SOL     OW24110   3.677   2.192   2.978 -0.4220 -0.1836  0.1355
 7809SOL    HW124111   3.611   2.253   3.009  1.2163  1.6204  0.2439
 7809SOL    HW224112   3.678   2.122   3.042 -2.3045 -0.3333  0.0438
 7810SOL     OW24113   3.037   6.800   4.870  0.5285  0.1969  0.1765
 7810SOL    HW124114   3.108   6.856   4.840  0.7770 -0.0177  0.3639
 7810SOL    HW224115   2.957   6.846   4.844  0.7375 -0.2247 -1.2727
 7811SOL     OW24116   0.701   2.175   0.768 -0.2731 -0.1890  0.0730
 7811SOL    HW124117   0.700   2.080   0.755  1.3635 -0.4039  1.2120
 7811SOL    HW224118   0.674   2.211   0.683 -0.7681 -1.6609 -0.4253
 7812SOL     OW24119   2.861   3.502   4.091 -0.3276 -0.0975 -0.2283
 7812SOL    HW124120   2.913   3.491   4.011 -0.6140 -0.0108 -0.4285
 7812SOL    HW224121   2.771   3.487   4.063 -0.7213  2.2590 -0.4463
 7813SOL     OW24122   3.331   4.576   5.881 -0.9338 -0.5416 -0.6397
 7813SOL    HW124123   3.247   4.618   5.862 -0.2802  0.8482 -0.5541
 7813SOL    HW224124   3.384   4.592   5.802 -1.1781 -2.6320 -1.2875
 7814SOL     OW24125   4.105   1.109   3.305  0.1878 -0.2436 -0.4561
 7814SOL    HW124126   4.116   1.176   3.373  0.5014  0.2382 -0.9738
 7814SOL    HW224127   4.010   1.100   3.295  0.0617  1.9957 -2.1550
 7815SOL     OW24128   1.035   2.761   3.011  0.1780  0.6309 -0.0605
 7815SOL    HW124129   1.105   2.732   3.068  0.6360  1.4966 -0.1651
 7815SOL    HW224130   0.969   2.799   3.070 -0.7016 -1.0964  0.1332
 7816SOL     OW24131   4.757   2.419   5.059  0.3129 -0.5189 -0.4088
 7816SOL    HW124132   4.702   2.423   5.137  0.4948  0.1388 -0.3094
 7816SOL    HW224133   4.811   2.342   5.072 -0.1979 -0.8581 -0.2509
 7817SOL     OW24134   4.176   1.940   5.277 -0.0546 -0.3928 -0.1478
 7817SOL    HW124135   4.122   1.979   5.346  0.6156  0.2487  0.0201
 7817SOL    HW224136   4.208   1.859   5.316 -0.5666 -0.5856 -0.1093
 7818SOL     OW24137   4.689   6.806   3.305 -0.6560 -0.0968  0.0576
 7818SOL    HW124138   4.686   6.805   3.209  0.5254  0.7587 -0.0113
 7818SOL    HW224139   4.780   6.830   3.326 -0.8606 -0.4107  1.3954
 7819SOL     OW24140   3.474   1.482   0.041 -0.2586 -0.0608  0.1360
 7819SOL    HW124141   3.423   1.461  -0.038 -0.2621  1.3345 -0.2633
 7819SOL    HW224142   3.527   1.557   0.015  1.1274 -0.7391  0.9221
 7820SOL     OW24143   3.691   3.153   3.499 -0.0202 -0.1111 -0.4274
 7820SOL    HW124144   3.731   3.155   3.412  0.0403 -2.1876 -0.4974
 7820SOL    HW224145   3.712   3.065   3.533 -1.5902 -0.0032  0.9295
 7821SOL     OW24146   3.791   4.553   1.071 -0.3248 -0.0768  0.3238
 7821SOL    HW124147   3.790   4.640   1.109 -0.5389  0.4113 -0.7557
 7821SOL    HW224148   3.872   4.513   1.103  1.2730  1.5640 -1.3952
 7822SOL     OW24149   0.670   5.037   0.846 -0.3256  0.4717 -0.6003
 7822SOL    HW124150   0.662   5.052   0.940 -1.2168  1.6311 -0.8405
 7822SOL    HW224151   0.746   5.089   0.819  0.1002 -0.0805 -0.4907
 7823SOL     OW24152   3.772   6.235   1.197 -0.1168  0.1599 -1.1774
 7823SOL    HW124153   3.803   6.190   1.277  0.7485  1.4489 -0.7583
 7823SOL    HW224154   3.705   6.296   1.228  0.4291  0.8753 -1.3838
 7824SOL     OW24155   0.574   3.000   1.237 -1.0530 -0.8364 -0.7059
 7824SOL    HW124156   0.662   3.009   1.201 -1.7817  0.0148 -2.4205
 7824SOL    HW224157   0.584   2.939   1.310  1.4285  1.3840  0.9919
 7825SOL     OW24158   0.007   1.955   5.870  0.6952  0.3834  0.0980
 7825SOL    HW124159  -0.055   1.883   5.879  0.2530  0.7061 -0.3381
 7825SOL    HW224160  -0.046   2.031   5.847  1.1084  0.9636  0.9999
 7826SOL     OW24161   5.677   6.718   4.662 -0.0833  0.1509 -0.2837
 7826SOL    HW124162   5.757   6.693   4.615 -0.5750  0.1193 -1.1118
 7826SOL    HW224163   5.705   6.788   4.721  0.5546  0.1326 -0.5542
 7827SOL     OW24164   0.234   5.120   1.089  0.4504  0.2772 -0.1588
 7827SOL    HW124165   0.268   5.082   1.169  0.8410  0.7668 -0.0923
 7827SOL    HW224166   0.176   5.053   1.053 -0.3386  0.3561  0.9348
 7828SOL     OW24167   0.156   5.279   4.642  0.0067  0.7460 -0.4730
 7828SOL    HW124168   0.203   5.272   4.725 -2.1876 -1.2413  0.6806
 7828SOL    HW224169   0.206   5.345   4.593  2.2158  0.9270  1.8005
 7829SOL     OW24170   0.815   0.413   4.421  0.4523 -0.0368 -0.1991
 7829SOL    HW124171   0.759   0.487   4.443 -0.0252 -0.1890 -0.8528
 7829SOL    HW224172   0.898   0.431   4.465  0.0360  0.4131  0.4245
 7830SOL     OW24173   4.789   4.617   4.391 -1.0763 -0.3881  0.7994
 7830SOL    HW124174   4.861   4.649   4.446  0.7182 -1.3792 -0.8585
 7830SOL    HW224175   4.776   4.526   4.418 -2.4247  0.0314  1.7241
 7831SOL     OW24176   0.444   2.266   2.770 -0.2572  0.3863 -0.5452
 7831SOL    HW124177   0.506   2.206   2.727 -1.3543 -2.1155  1.1266
 7831SOL    HW224178   0.464   2.257   2.863 -1.4924  1.4585 -0.1541
 7832SOL     OW24179   3.683   2.953   1.024 -0.8382 -0.2688  0.1251
 7832SOL    HW124180   3.608   2.895   1.037 -1.4786  0.2996 -0.8319
 7832SOL    HW224181   3.752   2.917   1.079 -2.0423 -0.3641  1.6398
 7833SOL     OW24182   0.805   4.392   5.381 -0.4557 -0.0644  0.3609
 7833SOL    HW124183   0.837   4.355   5.298 -0.7688 -0.6468  0.4943
 7833SOL    HW224184   0.863   4.353   5.447 -0.5994 -0.0855  0.4740
 7834SOL     OW24185   2.104   5.771   3.090 -0.4612  0.2897  0.3642
 7834SOL    HW124186   2.170   5.702   3.094 -0.4127  0.2915 -0.2910
 7834SOL    HW224187   2.130   5.834   3.158  0.5597  0.5905 -0.2901
 7835SOL     OW24188   5.404   0.056   3.272  0.4577 -0.0286 -0.1181
 7835SOL    HW124189   5.494   0.071   3.299  0.3656  1.3109 -0.5035
 7835SOL    HW224190   5.408  -0.023   3.217  1.3224 -0.2010  0.1875
 7836SOL     OW24191   0.138   2.761   0.504  0.3129  0.1649 -0.0359
 7836SOL    HW124192   0.224   2.733   0.535  0.0525  1.0014  1.5753
 7836SOL    HW224193   0.120   2.706   0.428  1.4949 -1.2403  0.6636
 7837SOL     OW24194   4.410   6.506   0.875  0.0448  0.0790  0.3388
 7837SOL    HW124195   4.439   6.560   0.802 -1.3847  0.7243  0.2180
 7837SOL    HW224196   4.324   6.541   0.898 -0.4380 -1.4450  0.9779
 7838SOL     OW24197   2.682   3.566   6.407 -0.4252  0.0029  0.0921
 7838SOL    HW124198   2.747   3.635   6.412  0.0650 -0.3597 -0.9495
 7838SOL    HW224199   2.730   3.485   6.424 -1.0790 -0.0734  1.7570
 7839SOL     OW24200   0.241   5.027   3.493 -0.2744  0.2529 -0.5244
 7839SOL    HW124201   0.333   5.005   3.481  0.1466  2.0126 -0.7632
 7839SOL    HW224202   0.211   5.052   3.406 -0.8980 -0.0196 -0.3921
 7840SOL     OW24203   2.531   5.174   2.177 -0.5286 -0.2123  0.0629
 7840SOL    HW124204   2.557   5.116   2.248 -0.9376 -0.5433 -0.0518
 7840SOL    HW224205   2.598   5.242   2.176 -1.8946  1.3156  2.5119
 7841SOL     OW24206   3.761   6.237   4.187  0.2519  0.0650 -0.0888
 7841SOL    HW124207   3.701   6.163   4.182 -0.2266  0.4671 -0.3756
 7841SOL    HW224208   3.765   6.271   4.097 -1.3597  1.8235  0.4312
 7842SOL     OW24209   2.342   5.868   4.828  0.0288 -0.1216  0.2391
 7842SOL    HW124210   2.342   5.895   4.736  0.8140  0.7219  0.4695
 7842SOL    HW224211   2.355   5.950   4.876 -0.3170 -0.5658  1.0998
 7843SOL     OW24212   1.433   5.203   2.362 -0.4543 -0.4253  0.0910
 7843SOL    HW124213   1.372   5.277   2.364  1.1257  0.9467 -0.3327
 7843SOL    HW224214   1.520   5.243   2.369  0.4120 -2.3508  1.1987
 7844SOL     OW24215   1.950   4.601   4.630 -0.1165  0.1175  0.4801
 7844SOL    HW124216   1.924   4.511   4.614 -0.1018 -0.0736  1.4496
 7844SOL    HW224217   1.908   4.652   4.561 -1.3223 -0.4548  0.7770
 7845SOL     OW24218   4.707   0.518   6.742  0.0663  0.3104 -0.1184
 7845SOL    HW124219   4.774   0.454   6.715 -0.3226 -0.2583  0.2522
 7845SOL    HW224220   4.669   0.548   6.660  0.9565  0.8337 -0.3489
 7846SOL     OW24221   6.531   0.363   2.423 -0.1283 -0.0378  0.5623
 7846SOL    HW124222   6.585   0.308   2.481 -0.8014 -1.4825 -0.1454
 7846SOL    HW224223   6.458   0.391   2.478  0.5121  0.6539  1.0874
 7847SOL     OW24224   4.979   5.944   0.892 -0.0066  0.1615 -0.1589
 7847SOL    HW124225   5.034   5.970   0.965 -0.7341  0.7956  0.1775
 7847SOL    HW224226   4.890   5.944   0.927 -0.2141 -1.0381 -0.6375
 7848SOL     OW24227   5.755   2.953   4.108 -0.0376  0.3079 -0.4953
 7848SOL    HW124228   5.696   2.983   4.178  0.3820 -0.7696  0.3520
 7848SOL    HW224229   5.787   3.034   4.068  0.0031  0.9679  0.8066
 7849SOL     OW24230   3.419   2.314   2.142 -0.0971 -0.4317 -0.3497
 7849SOL    HW124231   3.327   2.334   2.158  0.1860  0.7614 -0.1371
 7849SOL    HW224232   3.428   2.221   2.165 -1.0103 -0.2924  0.6357
 7850SOL     OW24233   4.013   3.849   0.226  0.1754 -0.0553  0.0607
 7850SOL    HW124234   3.932   3.890   0.196  0.2359  0.2869  0.3586
 7850SOL    HW224235   3.986   3.761   0.252 -0.0196 -0.0888 -0.2471
 7851SOL     OW24236   4.245   3.338   4.582  0.3303 -0.0631 -0.3204
 7851SOL    HW124237   4.315   3.398   4.555 -0.9040  1.2330 -0.7206
 7851SOL    HW224238   4.186   3.391   4.635 -0.1712 -1.2379  0.3482
 7852SOL     OW24239   3.987   6.362   3.342  0.6134 -0.2935 -0.1141
 7852SOL    HW124240   4.021   6.451   3.333 -1.7206  0.7390  0.5696
 7852SOL    HW224241   3.976   6.351   3.437 -0.2491 -0.8279 -0.2678
 7853SOL     OW24242   3.159   3.435   1.132  0.9025  0.1904  0.1895
 7853SOL    HW124243   3.216   3.404   1.202  0.1923  1.5959  1.4613
 7853SOL    HW224244   3.147   3.528   1.150 -0.6614  0.2335 -0.8205
 7854SOL     OW24245   0.682   2.354   1.227 -0.1716 -0.3929  0.8794
 7854SOL    HW124246   0.651   2.441   1.204  0.7953  0.0454  1.2117
 7854SOL    HW224247   0.602   2.301   1.232 -0.8048  0.5667  1.1144
 7855SOL     OW24248   1.650   0.669   3.032 -0.1348  0.5381  0.0244
 7855SOL    HW124249   1.713   0.659   3.103  1.0068  1.4267 -0.8349
 7855SOL    HW224250   1.667   0.756   2.996 -1.7351  0.7333 -0.3592
 7856SOL     OW24251   3.771   0.975   4.803  0.1878 -0.3431  0.8710
 7856SOL    HW124252   3.841   1.034   4.828 -0.0111 -0.5518  1.9620
 7856SOL    HW224253   3.798   0.889   4.836 -1.1569 -0.1904  2.5131
 7857SOL     OW24254   0.387   4.901   2.675  0.2736  0.1553 -0.1377
 7857SOL    HW124255   0.475   4.930   2.697  0.3534  0.2667 -0.6087
 7857SOL    HW224256   0.395   4.806   2.664  0.0038 -0.0815  1.4414
 7858SOL     OW24257   2.785   2.076   1.901  0.6720  0.4268  0.1101
 7858SOL    HW124258   2.708   2.126   1.926  0.3412  1.0896 -2.0149
 7858SOL    HW224259   2.834   2.065   1.982 -0.1874  2.5477  0.9926
 7859SOL     OW24260   5.062   0.636   0.708 -0.0144  0.2298  0.0608
 7859SOL    HW124261   5.014   0.637   0.791 -2.2521  1.3444 -1.1375
 7859SOL    HW224262   5.145   0.593   0.728 -0.9682 -0.6050  2.5848
 7860SOL     OW24263   3.050   3.933   1.042 -0.4910 -0.0703  0.1638
 7860SOL    HW124264   3.018   3.846   1.066  0.4582  0.0641  2.0058
 7860SOL    HW224265   3.023   3.943   0.950  0.0862 -2.6179 -0.3579
 7861SOL     OW24266   5.989   2.391   6.593  0.1788 -0.6359 -0.1756
 7861SOL    HW124267   5.960   2.482   6.586 -0.7487 -0.8705  0.4201
 7861SOL    HW224268   5.968   2.353   6.508 -1.2767 -0.7894  0.2294
 7862SOL     OW24269   6.868   5.631   5.792  0.3030  0.2180  0.0342
 7862SOL    HW124270   6.910   5.699   5.738  1.3938 -0.4341  0.0330
 7862SOL    HW224271   6.928   5.557   5.788 -0.5771 -0.5432  0.5387
 7863SOL     OW24272   2.019   6.425   5.526  0.0929 -0.1384 -0.0564
 7863SOL    HW124273   2.073   6.387   5.457 -1.8207 -0.1315 -1.6637
 7863SOL    HW224274   2.064   6.505   5.551  1.7971 -1.1042  0.0920
 7864SOL     OW24275   2.650   4.113   2.533  0.0058 -0.1882  0.1480
 7864SOL    HW124276   2.681   4.096   2.622 -1.0986  1.2913  0.8754
 7864SOL    HW224277   2.561   4.147   2.545  0.0863  0.7131 -1.4793
 7865SOL     OW24278   5.545   1.053   3.180  0.2012 -0.2673 -0.0137
 7865SOL    HW124279   5.452   1.072   3.187  0.0785 -0.4981 -0.8889
 7865SOL    HW224280   5.587   1.138   3.170  0.2154 -0.0671  1.5321
 7866SOL     OW24281   2.531   6.756   6.033 -0.1500 -0.1022  0.4005
 7866SOL    HW124282   2.613   6.798   6.057  0.0698 -0.7100  0.7439
 7866SOL    HW224283   2.492   6.814   5.968 -0.1904  0.9811  1.3634
 7867SOL     OW24284   4.855   0.786   5.640  0.4358  0.4894 -0.7328
 7867SOL    HW124285   4.882   0.707   5.687  2.1576  0.2523 -1.9883
 7867SOL    HW224286   4.763   0.772   5.619  0.1826 -0.2810  0.7790
 7868SOL     OW24287   2.396   4.982   2.678  0.5710 -0.3652 -0.3263
 7868SOL    HW124288   2.319   4.960   2.729  1.7272  0.6343  1.9668
 7868SOL    HW224289   2.459   4.913   2.697  1.5762  0.8448  0.9671
 7869SOL     OW24290   3.035   0.253   1.072  0.0395 -0.0409  0.0626
 7869SOL    HW124291   3.049   0.347   1.059 -0.5778 -0.0619 -0.8492
 7869SOL    HW224292   3.123   0.215   1.062 -0.0102  0.2229 -1.8595
 7870SOL     OW24293   3.105   2.941   1.091  0.1756  0.6013  0.1512
 7870SOL    HW124294   3.019   2.977   1.070 -0.9577 -3.1652 -2.7365
 7870SOL    HW224295   3.096   2.906   1.179 -0.9187  1.1686  0.2792
 7871SOL     OW24296   4.488   5.803   4.642 -0.8485 -0.1178  0.4270
 7871SOL    HW124297   4.533   5.726   4.676 -1.1289 -1.3915 -1.8544
 7871SOL    HW224298   4.540   5.830   4.566 -2.2278  0.2096 -0.4566
 7872SOL     OW24299   5.178   0.125   3.403  0.5420  0.1001 -0.3217
 7872SOL    HW124300   5.124   0.202   3.385  1.3031  0.6318 -0.3896
 7872SOL    HW224301   5.246   0.127   3.335  0.6530 -0.5487 -0.2363
 7873SOL     OW24302   1.627   5.827   0.686  0.2357 -0.5236  0.0834
 7873SOL    HW124303   1.674   5.752   0.650 -0.2782  0.0342 -1.8561
 7873SOL    HW224304   1.645   5.898   0.625  0.2445  0.8112  1.5755
 7874SOL     OW24305   5.457   2.413   6.075 -0.3671  0.1340  0.1682
 7874SOL    HW124306   5.401   2.337   6.092 -1.2211  0.8702  0.7632
 7874SOL    HW224307   5.505   2.391   5.995 -2.9894  0.2380 -1.5596
 7875SOL     OW24308   1.279   3.649   1.108 -0.3119 -0.2628  0.5290
 7875SOL    HW124309   1.199   3.637   1.057 -1.4651  1.6726  1.7459
 7875SOL    HW224310   1.328   3.567   1.098 -1.9532 -1.0838 -1.0924
 7876SOL     OW24311   5.856   3.348   3.499 -0.1059  0.1590 -0.0229
 7876SOL    HW124312   5.946   3.375   3.515 -0.0491 -1.0958  2.2222
 7876SOL    HW224313   5.817   3.422   3.453  1.7378  1.2602  0.0702
 7877SOL     OW24314   3.612   5.299   3.825  0.0120  0.3666  0.2007
 7877SOL    HW124315   3.603   5.208   3.853  0.2520  0.1465 -0.4072
 7877SOL    HW224316   3.527   5.338   3.843  0.0566  0.1441  0.9005
 7878SOL     OW24317   5.461   0.576   0.503  0.4415 -0.0806  0.4156
 7878SOL    HW124318   5.461   0.664   0.465  1.0838 -0.5894 -0.8070
 7878SOL    HW224319   5.450   0.518   0.428 -0.1375 -1.0455  1.2298
 7879SOL     OW24320   2.007   6.362   6.240  0.3355 -0.0439 -0.1120
 7879SOL    HW124321   2.009   6.392   6.331  2.2997  0.3436 -0.2399
 7879SOL    HW224322   1.970   6.275   6.245  0.1067  0.0981  1.0282
 7880SOL     OW24323   3.139   5.195   1.121  0.8433 -0.0628 -0.5705
 7880SOL    HW124324   3.141   5.260   1.191  1.2333  0.4010 -1.0069
 7880SOL    HW224325   3.094   5.120   1.159 -2.2625  1.4718 -0.9266
 7881SOL     OW24326   3.170   4.276   4.523  1.1019  0.2981 -0.3882
 7881SOL    HW124327   3.255   4.301   4.486 -0.0885  1.1107 -2.7405
 7881SOL    HW224328   3.186   4.190   4.562  2.9607  0.3561 -0.9142
 7882SOL     OW24329   5.772   2.203   2.018  0.1496 -0.4420  0.4555
 7882SOL    HW124330   5.773   2.132   1.953  1.3915 -1.7138  1.8035
 7882SOL    HW224331   5.820   2.274   1.976  0.9676 -1.2525 -0.0200
 7883SOL     OW24332   6.759   6.860   4.031  0.5510 -0.0370 -0.0366
 7883SOL    HW124333   6.761   6.818   3.944  0.6635  0.7350 -0.4174
 7883SOL    HW224334   6.758   6.954   4.012  1.4327  0.1566  0.8165
 7884SOL     OW24335   3.829   1.491   5.661  0.6685 -0.1532  0.0832
 7884SOL    HW124336   3.844   1.445   5.578 -1.1384  0.4661 -0.6388
 7884SOL    HW224337   3.745   1.458   5.692  1.1560 -0.1173  1.5156
 7885SOL     OW24338   1.937   0.153   2.702  0.2594 -0.0833  0.2665
 7885SOL    HW124339   1.864   0.192   2.655  1.8223  0.7179 -1.5926
 7885SOL    HW224340   1.915   0.164   2.795 -2.1738 -0.3276 -0.2309
 7886SOL     OW24341   4.380   4.998   6.384  0.0960 -0.2932 -0.4552
 7886SOL    HW124342   4.447   5.057   6.349 -0.6268  0.4068 -0.6799
 7886SOL    HW224343   4.314   5.056   6.422 -0.3113 -0.9786 -0.0910
 7887SOL     OW24344   1.514   0.511   4.949 -0.4170  0.0723 -0.3879
 7887SOL    HW124345   1.609   0.521   4.954 -0.3198 -1.1864  0.9656
 7887SOL    HW224346   1.488   0.565   4.875  1.3641  0.3676 -0.8409
 7888SOL     OW24347   6.328   2.938   4.826  0.4702 -0.4683  0.0712
 7888SOL    HW124348   6.251   2.956   4.880  0.0604  1.8057 -1.1456
 7888SOL    HW224349   6.367   3.024   4.810  1.7500 -1.2882 -1.5351
 7889SOL     OW24350   4.200   5.730   3.125 -0.0791  0.2106  0.1817
 7889SOL    HW124351   4.178   5.811   3.171 -0.4519  0.4924 -0.4849
 7889SOL    HW224352   4.156   5.737   3.040 -0.5315 -0.9108  0.3058
 7890SOL     OW24353   4.950   4.865   6.026  0.5413  0.1016  0.1253
 7890SOL    HW124354   4.922   4.928   5.960  1.0406 -0.3381 -0.5164
 7890SOL    HW224355   4.990   4.919   6.094  0.8789  0.4925 -0.3725
 7891SOL     OW24356   2.571   3.120   1.592  0.2073  0.0242  0.0572
 7891SOL    HW124357   2.665   3.110   1.580  0.6369  2.6147  0.6300
 7891SOL    HW224358   2.536   3.131   1.504  0.7270  0.9400 -0.0405
 7892SOL     OW24359   6.444   0.035   6.828 -0.3526  0.3167  0.4731
 7892SOL    HW124360   6.494  -0.023   6.885 -0.5215 -0.2679  0.0247
 7892SOL    HW224361   6.372   0.065   6.883  0.3005  0.9205  1.0253
 7893SOL     OW24362   2.097   1.631   4.326  0.1545  0.4157  0.0321
 7893SOL    HW124363   2.052   1.548   4.318  2.5482 -0.7999 -2.3286
 7893SOL    HW224364   2.053   1.676   4.399 -3.2158 -1.5410 -0.6134
 7894SOL     OW24365   2.303   5.633   5.228  0.0636  0.0489  0.4130
 7894SOL    HW124366   2.273   5.703   5.170 -0.7327 -0.5739  0.0568
 7894SOL    HW224367   2.305   5.674   5.315  0.5507  0.7791  0.0696
 7895SOL     OW24368   6.163   6.589   3.837 -0.4666 -0.0254  0.5775
 7895SOL    HW124369   6.256   6.598   3.820 -0.4704 -1.4359 -0.3320
 7895SOL    HW224370   6.133   6.521   3.776 -1.9399 -0.1397  1.3654
 7896SOL     OW24371   0.870   2.963   1.165 -0.1629  0.2184  0.2722
 7896SOL    HW124372   0.917   3.045   1.150  0.2388  0.1488  1.1238
 7896SOL    HW224373   0.892   2.938   1.254 -0.8968 -0.4241  0.2853
 7897SOL     OW24374   0.524   4.198   3.502  0.0226  0.1989 -0.0019
 7897SOL    HW124375   0.463   4.264   3.471  0.3214  0.7765  0.6152
 7897SOL    HW224376   0.495   4.176   3.591 -0.2748 -0.7542 -0.3197
 7898SOL     OW24377   4.471   2.564   3.288 -0.9371  0.2337 -0.3072
 7898SOL    HW124378   4.507   2.580   3.201 -0.2585  0.3990 -0.0066
 7898SOL    HW224379   4.520   2.489   3.321  0.8616  1.8619  1.0244
 7899SOL     OW24380   3.395   2.948   1.894  0.1953 -0.5994 -0.2947
 7899SOL    HW124381   3.310   2.978   1.925  1.0849  2.6974 -0.6669
 7899SOL    HW224382   3.438   2.912   1.972  0.3995  2.6698  1.2654
 7900SOL     OW24383   1.461   3.262   0.657  0.1827  0.0142 -0.3377
 7900SOL    HW124384   1.499   3.312   0.585 -1.3017 -0.5994 -1.5981
 7900SOL    HW224385   1.500   3.300   0.736  4.6078 -1.5048 -1.4524
 7901SOL     OW24386   4.164   0.512   3.948  0.0757  0.0041  0.2343
 7901SOL    HW124387   4.087   0.459   3.970 -1.7279  2.5320  0.4835
 7901SOL    HW224388   4.181   0.492   3.856 -0.7022 -0.8292  0.2637
 7902SOL     OW24389   3.932   0.996   5.974  0.0470 -0.5588  0.3529
 7902SOL    HW124390   3.880   0.918   5.957 -1.3003  0.4698 -0.4746
 7902SOL    HW224391   3.897   1.031   6.056  2.0370 -1.8835  1.8521
 7903SOL     OW24392   3.530   3.388   3.279 -0.5459  0.4084 -0.5961
 7903SOL    HW124393   3.449   3.352   3.317  0.4323 -0.6121  0.5981
 7903SOL    HW224394   3.501   3.466   3.231 -2.3463 -0.3903 -0.8802
 7904SOL     OW24395   5.703   3.441   3.880  0.3493  0.7102 -0.4317
 7904SOL    HW124396   5.652   3.365   3.854  0.2934  0.1771  1.1559
 7904SOL    HW224397   5.787   3.406   3.908  0.5754  1.2934 -0.3594
 7905SOL     OW24398   5.787   5.189   1.853  0.2888  0.0566 -0.6243
 7905SOL    HW124399   5.782   5.282   1.875  1.2143 -0.4997  2.4597
 7905SOL    HW224400   5.867   5.158   1.896 -0.5034 -2.3391 -0.6991
 7906SOL     OW24401   5.921   1.294   6.087  0.4298 -0.0600 -0.2044
 7906SOL    HW124402   5.835   1.315   6.052  0.2839 -1.8413 -1.0419
 7906SOL    HW224403   5.951   1.375   6.128 -1.7609  0.5111  0.4005
 7907SOL     OW24404   0.399   0.283   6.590 -0.0193 -0.0437  0.0782
 7907SOL    HW124405   0.490   0.259   6.570  0.2618  0.7126  0.4324
 7907SOL    HW224406   0.402   0.376   6.612 -0.6641 -0.3282  1.5002
 7908SOL     OW24407   6.870   4.366   6.157 -0.1080 -0.2858  0.3402
 7908SOL    HW124408   6.900   4.453   6.131  0.3322 -0.3888  0.4899
 7908SOL    HW224409   6.786   4.355   6.112  1.1328 -0.8987 -1.9484
 7909SOL     OW24410   4.527   6.198   4.962 -0.5572 -0.1533 -0.0783
 7909SOL    HW124411   4.588   6.145   5.013 -1.0373  1.0112  1.7972
 7909SOL    HW224412   4.444   6.194   5.011 -2.1153 -1.7740 -2.6047
 7910SOL     OW24413   1.638   4.617   0.347 -0.0141 -0.0286  0.6368
 7910SOL    HW124414   1.546   4.639   0.355  0.0689  0.3158  0.6653
 7910SOL    HW224415   1.676   4.690   0.297  0.3054 -0.0082  0.9069
 7911SOL     OW24416   6.724   6.246   3.050  0.2104 -0.2327 -0.1604
 7911SOL    HW124417   6.699   6.329   3.091  2.0579 -0.4679  1.5653
 7911SOL    HW224418   6.654   6.230   2.986 -1.6362  1.2879  1.3251
 7912SOL     OW24419   5.065   4.702   1.332 -0.0343 -0.3607 -0.2800
 7912SOL    HW124420   5.101   4.648   1.402  0.7046 -1.7590 -1.6853
 7912SOL    HW224421   5.032   4.640   1.268 -0.4163  0.8816 -1.3269
 7913SOL     OW24422   1.101   1.230   1.272  0.5179 -0.1262 -0.1712
 7913SOL    HW124423   1.147   1.288   1.211 -0.3354  0.8220  0.0473
 7913SOL    HW224424   1.133   1.143   1.251  1.6275  0.3872 -0.7119
 7914SOL     OW24425   2.363   0.750   4.123  0.0774  0.3717  0.0685
 7914SOL    HW124426   2.338   0.659   4.136 -1.2546  0.5419 -1.0316
 7914SOL    HW224427   2.349   0.766   4.029  1.6464  1.3310 -0.0508
 7915SOL     OW24428   6.869   1.798   1.228 -0.5373 -0.1267 -0.2808
 7915SOL    HW124429   6.957   1.763   1.214 -0.5784  0.0034 -0.9023
 7915SOL    HW224430   6.870   1.832   1.317  0.4345  1.0025 -0.6982
 7916SOL     OW24431   0.033   2.434   3.823  0.2929 -0.1879 -0.0685
 7916SOL    HW124432   0.089   2.431   3.745 -0.4430 -0.5623 -0.5952
 7916SOL    HW224433   0.091   2.462   3.893  1.4147 -1.6328 -0.3699
 7917SOL     OW24434   0.437   0.178   5.122 -0.1817 -0.1092 -0.6845
 7917SOL    HW124435   0.530   0.162   5.135 -0.5150 -0.6807  1.3800
 7917SOL    HW224436   0.429   0.273   5.116  0.4110  0.0196  0.3800
 7918SOL     OW24437   2.918   2.289   1.131 -0.1490 -0.6609 -0.1226
 7918SOL    HW124438   2.959   2.292   1.218 -2.0740 -0.9992  0.8631
 7918SOL    HW224439   2.886   2.199   1.123  0.9028 -0.9275 -1.6621
 7919SOL     OW24440   0.789   6.196   3.113 -0.2215  0.4024  0.7150
 7919SOL    HW124441   0.851   6.141   3.162 -2.5552 -0.1477  3.3281
 7919SOL    HW224442   0.793   6.281   3.156 -0.2381  0.7882 -0.0395
 7920SOL     OW24443   1.483   0.235   5.247 -0.1774 -0.0268  0.1493
 7920SOL    HW124444   1.484   0.329   5.263  0.1390  0.3309 -1.6876
 7920SOL    HW224445   1.487   0.195   5.334 -0.8281  1.6441  0.9825
 7921SOL     OW24446   6.275   4.873   4.319 -0.0048 -0.0897 -0.0530
 7921SOL    HW124447   6.370   4.887   4.322 -0.0458  0.2049 -0.1334
 7921SOL    HW224448   6.264   4.803   4.255  0.4221 -2.5099  2.3203
 7922SOL     OW24449   1.903   4.949   1.090 -0.0511 -0.0500  0.2894
 7922SOL    HW124450   1.962   5.024   1.099  0.3385 -0.2199 -0.6989
 7922SOL    HW224451   1.839   4.977   1.024 -1.3994  0.3132  1.6952
 7923SOL     OW24452   6.717   4.892   0.602  0.7491  0.2716  0.1718
 7923SOL    HW124453   6.681   4.980   0.610  1.6762  0.5999  0.9454
 7923SOL    HW224454   6.783   4.898   0.533 -0.2100 -0.1978 -0.8384
 7924SOL     OW24455   3.194   4.972   4.493 -0.1336  0.3359  0.3207
 7924SOL    HW124456   3.284   4.985   4.522 -0.6180 -0.3447  2.2916
 7924SOL    HW224457   3.150   4.933   4.568 -2.2191  1.1672 -0.3958
 7925SOL     OW24458   5.611   0.718   6.287 -0.0239  0.0301 -0.6629
 7925SOL    HW124459   5.683   0.774   6.315  2.0552 -2.1721 -1.3605
 7925SOL    HW224460   5.591   0.748   6.198  0.4119  0.2596 -0.6877
 7926SOL     OW24461   1.034   6.092   6.609  0.2512 -0.1261  0.8374
 7926SOL    HW124462   1.092   6.094   6.534 -0.6453  1.9039  0.1378
 7926SOL    HW224463   1.092   6.097   6.685  1.0572 -0.1094  0.2283
 7927SOL     OW24464   4.561   5.073   5.739  0.0536  0.3937  0.3150
 7927SOL    HW124465   4.615   5.001   5.771 -1.2352 -0.4415  0.7006
 7927SOL    HW224466   4.529   5.042   5.654 -0.9070  0.2888  0.7099
 7928SOL     OW24467   4.892   3.501   4.670 -0.3072  0.2560 -0.7363
 7928SOL    HW124468   4.853   3.463   4.592 -0.3839 -1.3455  0.0395
 7928SOL    HW224469   4.818   3.517   4.729 -0.0163 -1.1712  0.0663
 7929SOL     OW24470   3.699   2.367   3.536 -0.2262  0.4041  0.1051
 7929SOL    HW124471   3.724   2.449   3.494  0.0666  0.5054  0.4709
 7929SOL    HW224472   3.657   2.394   3.618  0.1829  0.1811  0.3897
 7930SOL     OW24473   3.680   4.976   1.226  0.7421 -1.0325  0.4278
 7930SOL    HW124474   3.728   4.896   1.245  2.2430  0.1918  2.1200
 7930SOL    HW224475   3.701   4.995   1.134  0.6905 -2.3289  0.1315
 7931SOL     OW24476   2.911   3.254   1.084  0.1122 -0.1942  0.5129
 7931SOL    HW124477   2.993   3.299   1.103 -0.5799  1.3889 -0.0917
 7931SOL    HW224478   2.854   3.322   1.048 -1.6751 -1.1153  1.4846
 7932SOL     OW24479   6.670   1.474   5.730  0.1621  1.0826 -0.0994
 7932SOL    HW124480   6.637   1.563   5.717  1.0313  1.6583  1.4382
 7932SOL    HW224481   6.613   1.420   5.676 -0.1141  2.6079 -1.4223
 7933SOL     OW24482   3.772   2.252   6.368  0.3791 -0.0885 -0.3142
 7933SOL    HW124483   3.846   2.217   6.318  0.2768 -0.5075 -0.1771
 7933SOL    HW224484   3.775   2.346   6.353  1.0341 -0.0850 -0.1821
 7934SOL     OW24485   2.720   2.174   0.332  0.2223  0.5862 -0.4700
 7934SOL    HW124486   2.641   2.202   0.286  0.5441 -1.7480 -2.6690
 7934SOL    HW224487   2.688   2.119   0.404 -0.2110 -0.0763 -1.1513
 7935SOL     OW24488   2.774   6.829   3.688  0.2831  0.1823  0.1688
 7935SOL    HW124489   2.749   6.913   3.650 -1.0919 -0.3815 -0.2334
 7935SOL    HW224490   2.866   6.817   3.663  0.5287  1.5877  0.3151
 7936SOL     OW24491   1.701   4.037   0.089 -0.6055  0.5087 -0.5170
 7936SOL    HW124492   1.713   4.061   0.181 -2.7787  0.8162 -0.2652
 7936SOL    HW224493   1.790   4.037   0.052  0.5503 -1.5589  2.0021
 7937SOL     OW24494   1.836   5.446   0.015 -0.1097  0.0345 -0.0466
 7937SOL    HW124495   1.757   5.467   0.065  0.0567 -0.2073  0.3200
 7937SOL    HW224496   1.804   5.426  -0.072 -0.5357 -0.8456  0.3010
 7938SOL     OW24497   1.889   5.522   2.378 -0.1172 -0.1960  0.0470
 7938SOL    HW124498   1.920   5.546   2.466  0.6131 -0.0036 -0.2565
 7938SOL    HW224499   1.949   5.453   2.349  0.0894  0.2432 -0.5856
 7939SOL     OW24500   0.840   4.535   0.966 -0.3154  0.0101  0.1123
 7939SOL    HW124501   0.914   4.474   0.961  0.1489  0.6643 -1.6807
 7939SOL    HW224502   0.856   4.585   1.046  1.2830  0.2264 -0.3021
 7940SOL     OW24503   2.355   6.262   4.649 -0.2126 -0.0089 -0.2469
 7940SOL    HW124504   2.260   6.249   4.650 -0.1777 -0.2683  0.2610
 7940SOL    HW224505   2.385   6.224   4.732  0.4461 -0.7387 -0.8091
 7941SOL     OW24506   3.044   4.949   1.171 -0.1599  0.0148 -0.2598
 7941SOL    HW124507   3.044   4.900   1.253 -0.1111 -0.6020 -0.6254
 7941SOL    HW224508   3.124   4.923   1.126 -0.7620 -0.5638 -1.0333
 7942SOL     OW24509   2.496   3.466   0.323 -0.1462  0.2943  0.2606
 7942SOL    HW124510   2.501   3.380   0.281  0.3379  0.3071  0.2920
 7942SOL    HW224511   2.434   3.515   0.269  1.3003  0.6806 -1.1112
 7943SOL     OW24512   1.521   3.775   2.160  0.1220 -0.1773 -0.0833
 7943SOL    HW124513   1.575   3.803   2.086 -0.2577 -0.6636 -0.5600
 7943SOL    HW224514   1.435   3.815   2.143 -0.5713 -1.9240 -1.0317
 7944SOL     OW24515   2.379   5.677   0.465 -0.5787  0.2856 -0.0814
 7944SOL    HW124516   2.293   5.683   0.423 -0.0940  0.9490 -1.0379
 7944SOL    HW224517   2.437   5.646   0.395  0.6426  3.3136 -0.5664
 7945SOL     OW24518   3.959   5.744   3.563 -0.3424 -0.1396 -0.1213
 7945SOL    HW124519   4.000   5.830   3.553  1.6179 -0.8161  1.4075
 7945SOL    HW224520   3.903   5.735   3.486 -0.1362  2.2273 -0.6363
 7946SOL     OW24521   5.441   4.092   0.498  0.4160  0.3067  0.0807
 7946SOL    HW124522   5.422   4.000   0.485 -0.9634  0.7021 -0.9460
 7946SOL    HW224523   5.517   4.093   0.555  2.0116 -1.5037 -1.8490
 7947SOL     OW24524   2.437   5.840   1.431  0.0438 -0.2061 -0.1166
 7947SOL    HW124525   2.489   5.788   1.369  0.5319  0.4938 -0.3007
 7947SOL    HW224526   2.422   5.923   1.387 -0.8269 -0.2179  0.1396
 7948SOL     OW24527   5.970   5.618   2.648  0.4382  0.4797  0.2912
 7948SOL    HW124528   6.001   5.640   2.560 -0.4901 -0.7796 -0.3842
 7948SOL    HW224529   5.994   5.526   2.659  0.7665  0.6860  1.4758
 7949SOL     OW24530   3.536   2.449   1.337  0.0512 -0.6841  0.5241
 7949SOL    HW124531   3.521   2.420   1.248 -1.2995 -0.4202  0.6559
 7949SOL    HW224532   3.478   2.394   1.391 -1.7214  1.4324  0.8828
 7950SOL     OW24533   1.981   4.830   1.652 -0.1818 -1.0146 -0.5845
 7950SOL    HW124534   2.050   4.818   1.587  0.4156 -1.1016  0.0425
 7950SOL    HW224535   1.937   4.911   1.628  0.9283 -0.3128 -0.3133
 7951SOL     OW24536   5.922   0.970   2.192 -0.4241  0.5244 -0.2810
 7951SOL    HW124537   6.007   0.927   2.185 -0.8039 -0.8609  2.5312
 7951SOL    HW224538   5.863   0.904   2.228 -1.6447  2.5828  1.8527
 7952SOL     OW24539   5.391   0.870   4.608 -0.0351  0.6975  0.0170
 7952SOL    HW124540   5.468   0.870   4.666 -0.2163 -1.4393  0.3673
 7952SOL    HW224541   5.427   0.867   4.520  0.2419  2.5264  0.0284
 7953SOL     OW24542   1.476   0.993   4.597  0.7035 -0.2427 -1.1739
 7953SOL    HW124543   1.529   0.964   4.522  0.9376  0.5515 -1.3224
 7953SOL    HW224544   1.392   1.019   4.559  0.5189 -0.6504 -1.0497
 7954SOL     OW24545   3.328   1.390   6.443  0.3310  0.2460  0.2182
 7954SOL    HW124546   3.412   1.433   6.465  0.9784 -1.2491  0.7918
 7954SOL    HW224547   3.281   1.387   6.526 -0.2630  0.9752 -0.0814
 7955SOL     OW24548   3.897   4.136   0.523 -0.5985 -0.3125 -0.0789
 7955SOL    HW124549   3.901   4.118   0.429 -0.4907  0.8885 -0.3104
 7955SOL    HW224550   3.830   4.204   0.532 -0.7380 -0.5449  0.7385
 7956SOL     OW24551   1.466   2.192   4.623  0.0673  0.3685  0.3387
 7956SOL    HW124552   1.500   2.102   4.623  1.7707  0.9633  1.0276
 7956SOL    HW224553   1.417   2.199   4.705  1.2605  0.5111  1.0594
 7957SOL     OW24554   4.374   4.803   2.058  0.2379  1.0548  0.2177
 7957SOL    HW124555   4.308   4.736   2.070  1.1631  0.1750  0.5411
 7957SOL    HW224556   4.334   4.883   2.092 -1.1003  0.8156 -0.7448
 7958SOL     OW24557   6.190   1.457   4.438  0.7851 -0.2289  0.4965
 7958SOL    HW124558   6.165   1.484   4.526 -0.8389 -0.1953  0.0573
 7958SOL    HW224559   6.110   1.422   4.400  1.3252  0.2306 -1.1519
 7959SOL     OW24560   1.268   5.425   2.296 -1.0447 -0.0891  0.2872
 7959SOL    HW124561   1.298   5.514   2.313  0.1438 -0.2680 -0.7679
 7959SOL    HW224562   1.186   5.418   2.346 -1.1220  1.5554  0.4589
 7960SOL     OW24563   6.088   3.747   1.185  0.2469  0.2758 -0.7264
 7960SOL    HW124564   6.033   3.671   1.202  0.2361  0.4893  0.3229
 7960SOL    HW224565   6.031   3.822   1.202  0.9244  0.5004  0.7276
 7961SOL     OW24566   4.329   3.380   6.493  0.2565 -0.4500 -0.3935
 7961SOL    HW124567   4.371   3.294   6.486 -2.5312 -1.9059 -0.6204
 7961SOL    HW224568   4.287   3.394   6.409  1.3523  1.6042 -0.6638
 7962SOL     OW24569   0.439   0.464   1.874  0.2183 -0.4422  0.3572
 7962SOL    HW124570   0.346   0.488   1.871  0.1491 -0.7987 -2.0035
 7962SOL    HW224571   0.485   0.548   1.882 -0.2835 -0.2362  1.1491
 7963SOL     OW24572   1.734   2.563   4.542  0.5486 -0.2369  0.6560
 7963SOL    HW124573   1.659   2.529   4.590 -0.3284 -1.4245 -1.4152
 7963SOL    HW224574   1.766   2.488   4.492  1.5135  0.8767 -0.4571
 7964SOL     OW24575   5.021   6.811   4.117 -0.1673 -0.0289  0.4800
 7964SOL    HW124576   5.095   6.781   4.170 -0.6323 -1.8344  0.2021
 7964SOL    HW224577   4.947   6.814   4.178 -0.4069 -0.7847  0.2438
 7965SOL     OW24578   0.733   1.213   5.503  0.2044  0.1513 -0.1042
 7965SOL    HW124579   0.742   1.152   5.430 -0.0003 -0.7324  0.5896
 7965SOL    HW224580   0.700   1.294   5.462  0.7675 -0.0894 -1.0763
 7966SOL     OW24581   2.526   5.231   3.773 -0.6066  0.2776  0.0817
 7966SOL    HW124582   2.450   5.173   3.780 -0.4060 -0.0295 -0.2297
 7966SOL    HW224583   2.584   5.186   3.711 -0.3732  0.7325 -0.0293
 7967SOL     OW24584   6.133   5.935   2.190  0.3865  0.5585 -0.3786
 7967SOL    HW124585   6.093   6.015   2.158  0.0578  0.2987 -0.6232
 7967SOL    HW224586   6.189   5.906   2.118  1.2318  1.0668  0.0662
 7968SOL     OW24587   3.684   4.731   6.639  0.8980  0.2440  0.3111
 7968SOL    HW124588   3.738   4.660   6.605 -0.8612 -1.0789  0.1626
 7968SOL    HW224589   3.612   4.687   6.685 -0.4160  1.9178 -0.0449
 7969SOL     OW24590   2.976   0.507   0.225 -0.1989 -0.4102  0.1710
 7969SOL    HW124591   2.926   0.521   0.144  0.5064  3.6951  0.2439
 7969SOL    HW224592   2.926   0.552   0.293  2.2009  1.5894  0.7368
 7970SOL     OW24593   6.813   0.386   3.726 -0.4657 -0.4880 -0.0301
 7970SOL    HW124594   6.894   0.415   3.685 -0.0874 -1.0574  0.2888
 7970SOL    HW224595   6.812   0.430   3.811 -0.2609 -0.8265  0.1504
 7971SOL     OW24596   6.644   1.027   0.878  0.2667 -0.0290 -0.0063
 7971SOL    HW124597   6.701   1.073   0.816  0.5301 -0.0874  0.1895
 7971SOL    HW224598   6.586   0.974   0.823  0.3991  0.0350 -0.2072
 7972SOL     OW24599   1.694   1.630   4.244 -0.7281  0.0045 -0.1894
 7972SOL    HW124600   1.778   1.647   4.200 -0.6546 -0.5672 -0.2768
 7972SOL    HW224601   1.687   1.699   4.310 -0.3830  0.3002 -0.4594
 7973SOL     OW24602   6.857   6.877   2.609 -0.0342 -0.0816  0.4049
 7973SOL    HW124603   6.826   6.876   2.518  1.8771 -0.1142 -0.3117
 7973SOL    HW224604   6.791   6.927   2.657 -0.9401  0.1979 -1.0625
 7974SOL     OW24605   0.374   5.543   0.707 -0.3209 -0.5562  0.7378
 7974SOL    HW124606   0.445   5.575   0.762  1.2745 -0.9261 -1.0195
 7974SOL    HW224607   0.367   5.450   0.728  0.9244 -0.9094 -0.2856
 7975SOL     OW24608   5.706   2.895   2.640 -0.2395  0.3041  0.5864
 7975SOL    HW124609   5.732   2.828   2.576 -3.0024  0.4794 -0.8594
 7975SOL    HW224610   5.662   2.846   2.709 -2.1401  0.5028 -0.4057
 7976SOL     OW24611   4.780   3.559   6.330  0.7678  0.2635 -0.1161
 7976SOL    HW124612   4.850   3.563   6.265  0.7806  0.5506 -0.0839
 7976SOL    HW224613   4.714   3.502   6.290 -0.2891  2.2702 -1.4174
 7977SOL     OW24614   1.648   2.878   2.939  0.2698 -0.4879  0.6480
 7977SOL    HW124615   1.662   2.875   3.034 -0.9130 -0.2894  0.8408
 7977SOL    HW224616   1.554   2.889   2.929  0.5422  1.0566 -0.5350
 7978SOL     OW24617   1.591   4.723   3.954  0.7063  0.2785  0.2554
 7978SOL    HW124618   1.671   4.671   3.966  1.3354  0.9414 -0.8413
 7978SOL    HW224619   1.520   4.661   3.969  1.2584  0.3550  4.6371
 7979SOL     OW24620   6.017   4.442   4.365  0.0796  0.0262 -0.0975
 7979SOL    HW124621   6.086   4.391   4.322  1.8526  1.7771  0.5121
 7979SOL    HW224622   6.064   4.502   4.423 -2.0458  0.4309  1.3300
 7980SOL     OW24623   0.432   3.997   5.977 -0.1328 -0.2986  0.0738
 7980SOL    HW124624   0.394   4.068   5.926  0.0880 -0.6469 -0.5828
 7980SOL    HW224625   0.495   3.956   5.918  3.2758  1.8620  1.8842
 7981SOL     OW24626   1.027   0.233   0.870  0.1865 -0.2980 -0.3351
 7981SOL    HW124627   0.939   0.206   0.841  0.0569  1.4350 -1.6924
 7981SOL    HW224628   1.016   0.323   0.900  1.3284 -0.4007  0.4550
 7982SOL     OW24629   1.776   3.608   0.300 -0.4878  0.5574  0.3542
 7982SOL    HW124630   1.788   3.605   0.395 -0.1009 -0.2600  0.2827
 7982SOL    HW224631   1.715   3.681   0.286 -1.0696  0.2592  1.2814
 7983SOL     OW24632   5.809   0.349   3.973 -0.0597  0.8706 -0.0202
 7983SOL    HW124633   5.776   0.397   3.897  0.2043 -0.6539 -1.1554
 7983SOL    HW224634   5.745   0.279   3.986  1.7700 -1.1404 -1.2278
 7984SOL     OW24635   2.610   2.654   1.562  0.3699 -0.2094 -0.0950
 7984SOL    HW124636   2.522   2.667   1.598  0.6699 -0.7309  0.8572
 7984SOL    HW224637   2.644   2.576   1.607  0.7931 -0.8442 -1.4820
 7985SOL     OW24638   4.672   4.453   0.108  0.4604  0.3609 -0.1783
 7985SOL    HW124639   4.640   4.503   0.184  0.2702 -1.4476  1.0079
 7985SOL    HW224640   4.726   4.514   0.060  3.8520  0.6563  3.4966
 7986SOL     OW24641   0.449   2.528   2.705  0.2841 -0.0821 -0.3578
 7986SOL    HW124642   0.447   2.573   2.789  2.3442 -0.9368  0.2038
 7986SOL    HW224643   0.450   2.435   2.728 -0.6274 -0.3671 -1.3901
 7987SOL     OW24644   5.809   3.372   4.212  0.3263  0.2321  0.6244
 7987SOL    HW124645   5.865   3.445   4.182  2.3946 -0.8956  1.5084
 7987SOL    HW224646   5.806   3.382   4.307  1.1070 -1.1038  0.8179
 7988SOL     OW24647   3.462   5.174   5.599 -0.7187  0.0746 -0.4604
 7988SOL    HW124648   3.540   5.219   5.567  0.3429 -1.1944  0.2462
 7988SOL    HW224649   3.469   5.085   5.564 -1.2564 -0.3807  0.5435
 7989SOL     OW24650   1.928   4.911   1.385 -0.0750  0.0892 -0.2082
 7989SOL    HW124651   1.926   4.901   1.290  2.4623 -0.9510 -0.2169
 7989SOL    HW224652   1.857   4.854   1.416 -0.0037 -0.6907 -1.4042
 7990SOL     OW24653   4.228   0.463   6.265  0.3759 -0.3610  0.4513
 7990SOL    HW124654   4.279   0.543   6.279  1.9554 -1.6438  2.5360
 7990SOL    HW224655   4.232   0.449   6.170  2.1221  0.7586  0.3100
 7991SOL     OW24656   4.082   1.899   6.745  0.7665  0.1816 -0.1208
 7991SOL    HW124657   4.127   1.968   6.697 -2.0509  0.5313 -2.5113
 7991SOL    HW224658   3.993   1.932   6.758  0.5420 -1.1805  2.8086
 7992SOL     OW24659   1.417   6.572   5.824 -0.2956  0.3876 -0.5854
 7992SOL    HW124660   1.336   6.564   5.775  0.2687  3.2956 -2.2283
 7992SOL    HW224661   1.465   6.491   5.806 -2.2114 -0.7807 -0.6781
 7993SOL     OW24662   4.443   4.657   6.734 -0.3072  0.0838  0.2033
 7993SOL    HW124663   4.505   4.695   6.797  0.5421 -0.9201  0.0036
 7993SOL    HW224664   4.367   4.632   6.787 -0.4188  1.0274  0.5061
 7994SOL     OW24665   4.893   1.799   2.900 -0.5797  0.4999  0.0528
 7994SOL    HW124666   4.956   1.730   2.882 -1.5099 -0.9454  2.0435
 7994SOL    HW224667   4.944   1.880   2.895  0.7324 -0.3687 -1.3851
 7995SOL     OW24668   2.534   5.798   4.547 -0.1599 -0.1255  0.5331
 7995SOL    HW124669   2.517   5.759   4.632  0.6033 -3.4309 -0.6642
 7995SOL    HW224670   2.626   5.824   4.550 -0.2087  0.0121  0.8115
 7996SOL     OW24671   6.098   3.374   2.672  0.3008 -0.6959 -0.2116
 7996SOL    HW124672   6.117   3.391   2.580  0.4186 -0.3123 -0.1168
 7996SOL    HW224673   6.050   3.291   2.671  1.1108 -1.1833 -0.5467
 7997SOL     OW24674   0.815   6.210   5.947  0.4359  0.4870 -0.0320
 7997SOL    HW124675   0.793   6.264   6.023 -2.2614  1.7504 -1.5640
 7997SOL    HW224676   0.790   6.121   5.971  1.2831  0.5422  1.1324
 7998SOL     OW24677   4.874   5.585   2.906  0.2920  0.0118 -0.2144
 7998SOL    HW124678   4.793   5.575   2.856 -0.6720  0.4205  1.2300
 7998SOL    HW224679   4.906   5.495   2.917  0.8171 -0.0560 -1.9779
 7999SOL     OW24680   1.957   2.327   0.484 -0.4490 -0.1815  0.2883
 7999SOL    HW124681   2.004   2.336   0.567  0.8248 -0.3718 -0.3796
 7999SOL    HW224682   1.921   2.239   0.486 -1.9973  0.4227  1.3841
 8000SOL     OW24683   2.332   1.699   2.059  0.0979  0.3309 -0.4637
 8000SOL    HW124684   2.374   1.612   2.056 -1.0817 -0.3685  1.4752
 8000SOL    HW224685   2.406   1.760   2.062  0.9628 -0.6573 -0.6573
 8001SOL     OW24686   3.644   0.932   3.261  0.0353 -0.2449  0.0178
 8001SOL    HW124687   3.549   0.944   3.257  0.0754 -0.0430 -0.4371
 8001SOL    HW224688   3.655   0.838   3.275 -0.2256 -0.5083 -1.3431
 8002SOL     OW24689   3.181   0.149   6.463  0.4653 -0.4144  0.7635
 8002SOL    HW124690   3.139   0.113   6.385  3.8560 -2.1290 -0.4419
 8002SOL    HW224691   3.221   0.231   6.433  0.8880 -0.5407  0.9717
 8003SOL     OW24692   3.964   6.851   4.193 -0.1774  0.0993 -0.4995
 8003SOL    HW124693   3.934   6.916   4.130  0.2688  0.6297 -0.1647
 8003SOL    HW224694   3.920   6.874   4.275  1.4680  1.1628  0.1150
 8004SOL     OW24695   3.994   1.707   6.206  0.1309  0.4915 -0.3008
 8004SOL    HW124696   3.911   1.753   6.196 -0.9596 -1.4247 -0.5717
 8004SOL    HW224697   4.047   1.765   6.262 -2.0474  0.9680  1.4086
 8005SOL     OW24698   5.996   3.946   0.322  0.9464  0.1612  0.0497
 8005SOL    HW124699   6.023   3.859   0.351  1.2765  0.3458  0.3013
 8005SOL    HW224700   6.004   4.000   0.401 -1.1622  0.0085  0.4481
 8006SOL     OW24701   5.509   3.402   6.578  0.2077  0.5205 -0.4351
 8006SOL    HW124702   5.421   3.433   6.599 -0.9309 -1.9067 -1.1661
 8006SOL    HW224703   5.536   3.353   6.656 -0.8957 -2.1786 -1.6248
 8007SOL     OW24704   2.479   5.459   2.538 -0.3449 -0.1871  0.1749
 8007SOL    HW124705   2.386   5.479   2.529 -0.4466 -0.5879  0.3159
 8007SOL    HW224706   2.494   5.455   2.633 -0.0495  0.4859  0.1611
 8008SOL     OW24707   1.675   6.455   0.252 -0.2148  0.5477  0.6932
 8008SOL    HW124708   1.612   6.432   0.320  0.4231 -2.5286  0.3570
 8008SOL    HW224709   1.760   6.432   0.289  0.2088 -0.5374 -0.8441
 8009SOL     OW24710   1.192   3.124   0.232 -0.0191 -0.3848 -0.1412
 8009SOL    HW124711   1.231   3.037   0.222 -0.0779 -0.5016  0.5776
 8009SOL    HW224712   1.240   3.178   0.169  1.5754 -0.4553  0.9493
 8010SOL     OW24713   3.584   3.499   2.408  0.3563  0.1280 -0.1794
 8010SOL    HW124714   3.534   3.418   2.395  1.1702 -0.4581  0.2028
 8010SOL    HW224715   3.675   3.472   2.394  0.6687  0.8991  0.3279
 8011SOL     OW24716   5.033   4.697   3.184 -0.4571 -0.5230  0.4228
 8011SOL    HW124717   5.123   4.667   3.198 -0.4311 -0.1505  1.1038
 8011SOL    HW224718   5.015   4.754   3.259 -0.9398  0.1408 -0.1781
 8012SOL     OW24719   6.502   2.811   6.770 -0.1804  0.2671 -0.4537
 8012SOL    HW124720   6.539   2.730   6.805  1.2297  0.0001 -2.4146
 8012SOL    HW224721   6.408   2.791   6.761  0.0898 -1.0451 -0.6367
 8013SOL     OW24722   2.736   1.802   1.245  0.1333 -0.5798 -0.2059
 8013SOL    HW124723   2.804   1.774   1.184  1.2169 -0.1525  0.7720
 8013SOL    HW224724   2.749   1.896   1.255 -0.5577 -0.5025  0.0593
 8014SOL     OW24725   3.381   2.912   1.060 -0.3641  0.1109 -0.0195
 8014SOL    HW124726   3.291   2.934   1.085 -0.5050 -0.5090  0.0401
 8014SOL    HW224727   3.379   2.817   1.046  0.4826 -0.0496  0.8576
 8015SOL     OW24728   4.791   6.037   4.403  0.1973  0.2810  0.2815
 8015SOL    HW124729   4.848   6.098   4.450  0.4373 -0.1382  0.5376
 8015SOL    HW224730   4.704   6.076   4.410  0.4079  0.8083  0.0837
 8016SOL     OW24731   6.703   6.343   6.676 -0.3227 -0.5743  0.1808
 8016SOL    HW124732   6.795   6.365   6.657 -0.2585 -2.7100 -2.6560
 8016SOL    HW224733   6.708   6.268   6.735 -0.1981 -0.7472 -0.0444
 8017SOL     OW24734   4.728   6.395   5.881 -0.2131 -0.0286 -0.3142
 8017SOL    HW124735   4.651   6.393   5.825 -0.0092 -0.8004 -0.5923
 8017SOL    HW224736   4.794   6.344   5.832  0.8450  1.5481 -0.6072
 8018SOL     OW24737   5.880   1.354   3.030  0.0810  0.0981 -0.0474
 8018SOL    HW124738   5.936   1.276   3.028  1.0815  0.7922  0.0988
 8018SOL    HW224739   5.807   1.333   2.972 -0.3470 -1.4410  0.9969
 8019SOL     OW24740   5.612   2.689   3.604 -0.7905 -0.3713 -0.2594
 8019SOL    HW124741   5.554   2.738   3.662 -2.6579 -0.3366 -2.0142
 8019SOL    HW224742   5.585   2.598   3.616  0.8010 -0.7173  0.9866
 8020SOL     OW24743   6.082   3.369   3.174  0.4154 -0.1111 -0.0771
 8020SOL    HW124744   6.150   3.336   3.115  1.0360  2.0664 -0.6575
 8020SOL    HW224745   6.080   3.463   3.159 -1.8124  0.0767  0.9200
 8021SOL     OW24746   3.678   1.126   2.200  0.3684 -0.3988 -0.2882
 8021SOL    HW124747   3.633   1.054   2.245  0.7185  0.0987  0.9017
 8021SOL    HW224748   3.749   1.084   2.153 -0.3923 -1.0130 -0.9167
 8022SOL     OW24749   2.837   5.015   5.455  0.2831 -0.5745 -0.3472
 8022SOL    HW124750   2.790   5.039   5.375 -1.6031  0.5200  0.9929
 8022SOL    HW224751   2.769   5.007   5.522  1.8505 -0.6727  1.3408
 8023SOL     OW24752   2.461   0.884   2.335 -0.4485  0.2244 -0.2431
 8023SOL    HW124753   2.387   0.856   2.388 -1.4117 -0.0602 -1.6959
 8023SOL    HW224754   2.424   0.899   2.248  0.7698  2.2169 -0.4865
 8024SOL     OW24755   4.507   0.302   3.679  0.2882  0.6640 -0.1633
 8024SOL    HW124756   4.562   0.376   3.703 -0.2560  0.7447  0.8572
 8024SOL    HW224757   4.542   0.229   3.730 -0.5189  0.7066  0.4649
 8025SOL     OW24758   3.448   1.386   2.973 -0.0226  0.0128  0.0280
 8025SOL    HW124759   3.366   1.395   2.924 -0.1460 -1.8253 -0.2052
 8025SOL    HW224760   3.494   1.469   2.960 -1.6665  0.9191 -0.1643
 8026SOL     OW24761   5.328   4.608   4.981  0.0696 -0.0739 -0.0705
 8026SOL    HW124762   5.233   4.610   4.996  0.4583  1.7851  2.7733
 8026SOL    HW224763   5.348   4.692   4.941  0.6871  0.0794  0.5572
 8027SOL     OW24764   1.820   2.535   5.125 -0.5579 -0.3801 -0.6768
 8027SOL    HW124765   1.807   2.574   5.211 -0.8844 -2.8757  0.4740
 8027SOL    HW224766   1.872   2.600   5.077  0.1652  0.8162  1.5926
 8028SOL     OW24767   6.368   0.062   4.472  0.1069  0.4796  0.3379
 8028SOL    HW124768   6.454   0.088   4.440 -0.4249  1.2124 -0.5731
 8028SOL    HW224769   6.312   0.065   4.394 -0.5242 -1.0171  0.7070
 8029SOL     OW24770   1.794   6.806   4.315  0.6702 -0.1909 -0.3323
 8029SOL    HW124771   1.713   6.762   4.344  0.8475  0.3286  1.0030
 8029SOL    HW224772   1.795   6.888   4.363  1.5194  0.2573 -1.0883
 8030SOL     OW24773   2.056   5.429   6.705  0.0497  0.0269  0.5352
 8030SOL    HW124774   2.045   5.338   6.731 -1.6168  0.1067  0.2424
 8030SOL    HW224775   2.074   5.425   6.611  1.4909 -0.0512  0.7986
 8031SOL     OW24776   3.323   0.993   6.669 -0.1236 -0.0616  0.5417
 8031SOL    HW124777   3.323   0.994   6.573 -1.0177 -0.1033  0.5337
 8031SOL    HW224778   3.340   0.901   6.692  2.3633  0.2970  0.4765
 8032SOL     OW24779   0.566   5.239   3.872 -0.1977  0.3296  0.5646
 8032SOL    HW124780   0.504   5.300   3.913 -0.3646  0.4072  0.2056
 8032SOL    HW224781   0.582   5.277   3.786 -0.5214 -0.2839  0.2263
 8033SOL     OW24782   5.002   5.765   5.586  0.7695  0.1630  0.3321
 8033SOL    HW124783   4.910   5.738   5.591  0.5855  0.4680 -0.8679
 8033SOL    HW224784   5.004   5.825   5.511  2.4204 -1.8978 -1.4087
 8034SOL     OW24785   4.484   2.469   2.716 -0.7379  0.3220 -0.2051
 8034SOL    HW124786   4.564   2.453   2.767  0.7596  2.1258 -1.8623
 8034SOL    HW224787   4.458   2.382   2.685  1.3175 -0.1667 -0.6854
 8035SOL     OW24788   4.151   3.611   4.303  0.1343  0.7397 -0.3294
 8035SOL    HW124789   4.242   3.591   4.282  0.3220  1.0895  0.1394
 8035SOL    HW224790   4.104   3.599   4.220  0.1069 -2.2169  0.0286
 8036SOL     OW24791   6.008   1.088   0.979  0.5121  0.4206  0.3371
 8036SOL    HW124792   5.949   1.030   1.027  0.8669 -0.4816 -0.2654
 8036SOL    HW224793   5.966   1.173   0.980 -1.2702 -0.3854 -0.8307
 8037SOL     OW24794   4.690   2.633   3.122  0.1170  0.5880 -0.0892
 8037SOL    HW124795   4.684   2.561   3.059 -1.3691  1.1725 -0.6503
 8037SOL    HW224796   4.774   2.675   3.103 -0.1348  0.5183 -1.4277
 8038SOL     OW24797   2.408   4.402   2.388  0.2827  0.5108 -0.3798
 8038SOL    HW124798   2.501   4.415   2.406  0.3143 -1.6718  1.4250
 8038SOL    HW224799   2.367   4.400   2.475 -0.9607 -1.6827 -0.9605
 8039SOL     OW24800   3.529   4.047   5.604  0.3132  0.0595  0.0230
 8039SOL    HW124801   3.436   4.039   5.581 -0.4042 -1.2576  2.9443
 8039SOL    HW224802   3.531   4.115   5.671  1.5438  0.3147 -0.2516
 8040SOL     OW24803   0.427   4.984   0.165  0.4470  0.3192 -0.0702
 8040SOL    HW124804   0.437   4.991   0.070  0.7800  0.5033 -0.0222
 8040SOL    HW224805   0.514   5.002   0.200  0.3735  0.0411  0.2619
 8041SOL     OW24806   0.404   4.380   4.741 -0.0454 -0.0268  0.0823
 8041SOL    HW124807   0.465   4.307   4.734  0.2403  0.2370 -0.2670
 8041SOL    HW224808   0.457   4.453   4.771 -0.2041  0.1845 -0.1439
 8042SOL     OW24809   1.184   1.322   2.195  0.2928  0.2847 -0.2139
 8042SOL    HW124810   1.277   1.303   2.180  0.2355 -0.6495  0.5384
 8042SOL    HW224811   1.184   1.409   2.235  0.7471  0.8176 -1.3206
 8043SOL     OW24812   6.461   1.519   3.611  0.2375 -0.4707  0.5146
 8043SOL    HW124813   6.365   1.514   3.606  0.1431  1.4663 -0.7936
 8043SOL    HW224814   6.484   1.470   3.690 -1.9819  0.6225  1.9288
 8044SOL     OW24815   5.241   1.776   0.365 -0.0673 -0.0706 -0.5183
 8044SOL    HW124816   5.320   1.828   0.349 -0.1749 -0.3006 -1.8391
 8044SOL    HW224817   5.177   1.839   0.397 -0.2896  0.7051 -2.3842
 8045SOL     OW24818   3.105   2.176   2.059  0.5765 -0.1855 -0.0516
 8045SOL    HW124819   3.132   2.189   1.968 -2.9407  2.1766 -0.9307
 8045SOL    HW224820   3.129   2.258   2.103  0.3735 -0.5031  0.6670
 8046SOL     OW24821   3.542   5.706   2.044 -0.1410 -0.7523 -0.4867
 8046SOL    HW124822   3.557   5.648   1.970 -2.8176 -0.3149 -1.5032
 8046SOL    HW224823   3.531   5.648   2.119 -2.5034 -1.6558 -1.4394
 8047SOL     OW24824   0.544   5.924   3.005  0.1842 -0.8322 -0.2291
 8047SOL    HW124825   0.585   5.865   3.069 -0.7848 -1.1770  0.0977
 8047SOL    HW224826   0.557   5.880   2.921  0.9578 -0.6668 -0.1980
 8048SOL     OW24827   5.951   0.188   4.717 -0.2905 -0.0145 -0.6620
 8048SOL    HW124828   6.006   0.116   4.688 -0.6563 -0.1861 -0.9369
 8048SOL    HW224829   5.880   0.146   4.766 -0.9454  0.0908 -1.5032
 8049SOL     OW24830   6.313   4.458   2.160  0.0680  0.0720 -0.3248
 8049SOL    HW124831   6.232   4.508   2.159  1.1594  1.9610  0.2456
 8049SOL    HW224832   6.337   4.454   2.253 -0.4674 -2.4289 -0.2157
 8050SOL     OW24833   4.644   6.310   0.535  0.2154 -0.3537  0.1775
 8050SOL    HW124834   4.637   6.340   0.626  0.6445  1.0379 -0.2244
 8050SOL    HW224835   4.556   6.322   0.499  0.8927  3.0870 -0.7121
 8051SOL     OW24836   3.603   0.743   0.751  0.2078 -0.2461  0.1041
 8051SOL    HW124837   3.561   0.829   0.756  0.9175  0.0592  1.1783
 8051SOL    HW224838   3.541   0.689   0.701  0.2285  1.1488 -1.5009
 8052SOL     OW24839   6.583   5.359   5.233 -0.0158 -0.1269  0.2057
 8052SOL    HW124840   6.653   5.396   5.178 -0.1059 -1.5322 -0.8987
 8052SOL    HW224841   6.531   5.435   5.259 -0.1224  0.5950 -1.8932
 8053SOL     OW24842   3.890   2.408   0.784  0.1720  0.3602  0.6351
 8053SOL    HW124843   3.894   2.336   0.721 -0.6909 -1.4093  2.5206
 8053SOL    HW224844   3.814   2.389   0.839 -0.6040  3.1773  0.7205
 8054SOL     OW24845   2.014   3.678   5.657  0.7714 -0.8933 -0.0708
 8054SOL    HW124846   2.009   3.706   5.566 -0.4751  1.1705  0.5889
 8054SOL    HW224847   2.061   3.594   5.653  0.6536 -0.9157 -2.5943
 8055SOL     OW24848   3.207   6.674   0.088  0.2075  0.1916 -0.1400
 8055SOL    HW124849   3.175   6.643   0.003  1.1703  0.0948 -0.4727
 8055SOL    HW224850   3.291   6.715   0.069  1.5576 -1.8612  1.0674
 8056SOL     OW24851   5.386   4.906   0.877 -0.0467  0.4474 -0.2743
 8056SOL    HW124852   5.307   4.856   0.895  1.4219 -1.9771 -0.0221
 8056SOL    HW224853   5.443   4.890   0.952  1.2264  0.8846 -1.0934
 8057SOL     OW24854   2.749   2.684   2.407  0.2103  0.3188 -0.3665
 8057SOL    HW124855   2.822   2.739   2.435  0.8646  0.4805 -2.2555
 8057SOL    HW224856   2.789   2.617   2.352 -0.9112 -0.3952 -0.3426
 8058SOL     OW24857   6.701   6.672   0.299 -0.1916  0.0006  0.1907
 8058SOL    HW124858   6.644   6.746   0.282 -1.0831 -0.3974  1.3096
 8058SOL    HW224859   6.685   6.650   0.391  2.1586  0.2041  0.7276
 8059SOL     OW24860   1.723   6.774   1.737 -0.1185  0.0605  0.3430
 8059SOL    HW124861   1.651   6.722   1.702  0.9999  0.3504 -2.5980
 8059SOL    HW224862   1.700   6.864   1.715  1.8870  0.0335 -2.3722
 8060SOL     OW24863   5.674   1.628   1.773 -0.6460  1.2974  0.7066
 8060SOL    HW124864   5.613   1.642   1.700 -0.6849 -0.9113  0.2159
 8060SOL    HW224865   5.755   1.598   1.730 -0.9845 -1.0224  1.5218
 8061SOL     OW24866   3.781   3.593   6.550  0.2839  0.2630  0.2092
 8061SOL    HW124867   3.814   3.647   6.622  0.3631  0.2389  0.1920
 8061SOL    HW224868   3.716   3.647   6.506  0.3838  0.3547  0.1751
 8062SOL     OW24869   6.097   5.834   0.459  0.2842 -0.1567  0.0317
 8062SOL    HW124870   6.045   5.806   0.384  0.1831 -1.8363  0.6754
 8062SOL    HW224871   6.034   5.869   0.521  0.4080  1.5970 -0.7726
 8063SOL     OW24872   0.192   4.410   6.650 -0.3557 -0.3939  0.3994
 8063SOL    HW124873   0.181   4.373   6.562  1.4883  1.6281 -0.7973
 8063SOL    HW224874   0.103   4.423   6.682 -1.0600 -2.4918 -0.5461
 8064SOL     OW24875   2.669   0.111   5.754 -0.0272 -0.1825  0.1815
 8064SOL    HW124876   2.690   0.057   5.830 -0.2114  0.3974  0.6588
 8064SOL    HW224877   2.696   0.199   5.780 -0.2080  0.0411 -0.3823
 8065SOL     OW24878   4.840   4.131   6.499 -0.4021 -0.0347  0.1804
 8065SOL    HW124879   4.779   4.121   6.571 -0.6519 -0.7096 -0.1153
 8065SOL    HW224880   4.849   4.043   6.463  1.2344 -0.0674  0.6095
 8066SOL     OW24881   5.105   0.412   0.913  0.0402  0.3980  0.4135
 8066SOL    HW124882   5.167   0.356   0.866  0.3365  1.5985 -0.6806
 8066SOL    HW224883   5.160   0.475   0.960 -0.3121  1.1750 -0.1836
 8067SOL     OW24884   4.914   0.253   4.243 -0.2648  0.3041 -0.7760
 8067SOL    HW124885   4.967   0.212   4.311  1.2059  2.7958 -0.2956
 8067SOL    HW224886   4.963   0.240   4.162 -1.2344 -1.2644 -1.1748
 8068SOL     OW24887   4.670   3.824   2.268  0.3073  0.0882 -0.0424
 8068SOL    HW124888   4.590   3.869   2.242  0.6983  0.7114 -0.1966
 8068SOL    HW224889   4.641   3.736   2.295 -0.4651  0.4263  0.2610
 8069SOL     OW24890   6.859   3.670   3.069 -0.1623  0.0769  0.7795
 8069SOL    HW124891   6.937   3.713   3.033 -1.4190  0.3543 -1.8572
 8069SOL    HW224892   6.893   3.591   3.111  1.5135 -0.1606 -0.8735
 8070SOL     OW24893   4.065   2.246   1.392  0.2704 -0.0376  0.5530
 8070SOL    HW124894   4.112   2.313   1.441 -0.4498  1.0182 -0.1505
 8070SOL    HW224895   3.982   2.288   1.368  0.5296 -0.5699 -1.4068
 8071SOL     OW24896   6.291   3.067   6.493  0.2145  0.2337  0.2150
 8071SOL    HW124897   6.359   3.134   6.481  1.0190 -0.6345 -0.2146
 8071SOL    HW224898   6.210   3.116   6.505  0.5867  1.2788 -1.2621
 8072SOL     OW24899   3.639   3.477   2.717 -0.5179  0.1124 -0.4237
 8072SOL    HW124900   3.611   3.540   2.784  1.1450  1.3668 -0.8476
 8072SOL    HW224901   3.688   3.530   2.654 -0.2549 -1.4054 -1.5376
 8073SOL     OW24902   1.737   1.883   4.411  0.0487 -0.5525  0.0690
 8073SOL    HW124903   1.801   1.951   4.431 -0.0038 -0.2062 -0.8823
 8073SOL    HW224904   1.664   1.930   4.370  1.5068 -1.4946 -4.0136
 8074SOL     OW24905   5.361   3.463   2.149 -0.0214 -0.0447  0.0722
 8074SOL    HW124906   5.339   3.488   2.059 -2.3305 -0.0314  0.5806
 8074SOL    HW224907   5.367   3.546   2.196  1.0669 -0.0589 -0.0024
 8075SOL     OW24908   6.583   1.393   6.892 -0.1791  0.7318  0.0578
 8075SOL    HW124909   6.670   1.361   6.913  0.1069  0.7081 -1.0911
 8075SOL    HW224910   6.582   1.399   6.796 -2.0424 -1.0096 -0.1005
 8076SOL     OW24911   2.961   0.762   2.816  0.6511  0.5900 -0.1906
 8076SOL    HW124912   3.007   0.738   2.896  0.2228  1.8418  0.4512
 8076SOL    HW224913   2.975   0.687   2.757  1.5372 -0.0517  0.7983
 8077SOL     OW24914   5.390   3.070   1.107 -0.7780  0.0085  0.0345
 8077SOL    HW124915   5.301   3.086   1.139 -0.7059  2.9086 -0.9671
 8077SOL    HW224916   5.445   3.133   1.154  0.8661 -1.8486  0.7747
 8078SOL     OW24917   5.324   2.312   2.448 -0.1040  0.4819 -0.5075
 8078SOL    HW124918   5.338   2.404   2.429  0.1936  0.3610 -0.8903
 8078SOL    HW224919   5.262   2.282   2.382 -0.5842  0.5218 -0.0807
 8079SOL     OW24920   3.196   1.440   4.651  0.0245  0.1613 -0.2371
 8079SOL    HW124921   3.257   1.367   4.657  0.3076  0.4777  1.1172
 8079SOL    HW224922   3.112   1.399   4.633  0.0611 -0.5897  1.1178
 8080SOL     OW24923   5.606   6.121   6.664 -0.2007 -0.0999  0.2141
 8080SOL    HW124924   5.685   6.067   6.672  0.3858  0.6753 -0.2331
 8080SOL    HW224925   5.587   6.120   6.570 -0.1374  0.5418  0.1937
 8081SOL     OW24926   2.144   1.792   1.870  0.3845  0.4191 -0.4551
 8081SOL    HW124927   2.165   1.885   1.880  1.6516  0.1086 -0.0333
 8081SOL    HW224928   2.203   1.747   1.931  0.1096 -0.6980 -0.9794
 8082SOL     OW24929   3.186   0.409   0.812 -0.2284 -0.1394 -0.1487
 8082SOL    HW124930   3.264   0.356   0.795  0.7130  0.7896  1.0749
 8082SOL    HW224931   3.191   0.430   0.906 -1.0129  1.3929 -0.4098
 8083SOL     OW24932   6.319   2.464   0.041  0.1119  0.2104  0.8646
 8083SOL    HW124933   6.295   2.459  -0.051  0.1599 -1.0153  0.9001
 8083SOL    HW224934   6.408   2.500   0.042  0.4482 -0.5759  0.3619
 8084SOL     OW24935   5.966   0.128   0.561 -0.3059  0.1065 -0.3253
 8084SOL    HW124936   5.908   0.073   0.614 -0.3194  0.7606  0.3521
 8084SOL    HW224937   6.050   0.126   0.607 -0.9288  2.5643  1.0990
 8085SOL     OW24938   6.687   4.133   4.307 -0.7429 -0.0647  0.7403
 8085SOL    HW124939   6.595   4.114   4.324 -0.5263  0.6259  2.9594
 8085SOL    HW224940   6.722   4.162   4.391  1.3089  0.5242 -0.2469
 8086SOL     OW24941   6.217   2.516   2.049 -0.0866 -0.2087 -0.2010
 8086SOL    HW124942   6.159   2.450   2.088 -0.3365 -0.4886 -1.0296
 8086SOL    HW224943   6.223   2.492   1.957 -2.3909  2.4646 -1.1916
 8087SOL     OW24944   3.299   5.797   4.451 -0.3566 -0.1298  0.0526
 8087SOL    HW124945   3.369   5.777   4.388  0.1214  0.6998  0.2996
 8087SOL    HW224946   3.254   5.714   4.464  0.6199 -0.6954 -0.0707
 8088SOL     OW24947   0.120   0.485   5.118  0.1946 -0.4806  0.1800
 8088SOL    HW124948   0.108   0.399   5.157 -0.4648 -0.4335  0.0973
 8088SOL    HW224949   0.146   0.467   5.028  0.6697 -0.5878  0.3343
 8089SOL     OW24950   0.124   0.931   3.421  0.0691  0.2454  0.0441
 8089SOL    HW124951   0.064   0.991   3.466 -1.6763 -1.1229 -0.3561
 8089SOL    HW224952   0.162   0.878   3.491  1.0083  1.2515  0.3201
 8090SOL     OW24953   6.067   6.110   0.987 -0.0910  0.4321  0.2734
 8090SOL    HW124954   6.029   6.030   1.022 -0.8035  0.3820 -0.5783
 8090SOL    HW224955   6.075   6.168   1.063 -2.8851  0.8324  0.3587
 8091SOL     OW24956   2.927   3.184   6.058 -0.2048 -0.0953 -0.2661
 8091SOL    HW124957   2.933   3.092   6.034 -1.1260 -0.0891 -0.5542
 8091SOL    HW224958   3.015   3.218   6.045  0.4198 -1.1912  0.9275
 8092SOL     OW24959   0.202   0.765   6.538  0.9008 -0.6045  0.2179
 8092SOL    HW124960   0.127   0.757   6.479  1.1438 -1.6511  0.0181
 8092SOL    HW224961   0.169   0.810   6.615  0.0188 -1.2577  0.2246
 8093SOL     OW24962   3.886   3.429   3.439 -0.0967 -0.5123 -0.3173
 8093SOL    HW124963   3.955   3.496   3.442 -1.2505  0.6667  1.0192
 8093SOL    HW224964   3.877   3.400   3.529 -3.3168  1.4740  0.1211
 8094SOL     OW24965   3.809   2.836   0.729  0.1090  0.0654 -0.1221
 8094SOL    HW124966   3.862   2.844   0.809  0.2819 -1.8561 -0.0191
 8094SOL    HW224967   3.719   2.834   0.760  0.0078  1.6479 -0.1869
 8095SOL     OW24968   0.183   4.348   3.739 -0.0666  0.0751 -0.2645
 8095SOL    HW124969   0.198   4.377   3.649 -0.5985 -1.6297 -0.9597
 8095SOL    HW224970   0.153   4.426   3.786  2.2958  1.5075 -0.9902
 8096SOL     OW24971   2.611   0.468   1.678  0.3781 -0.3784 -0.4494
 8096SOL    HW124972   2.563   0.415   1.614  2.7302 -1.5864 -1.3510
 8096SOL    HW224973   2.638   0.546   1.630 -2.5074  1.4766  0.6975
 8097SOL     OW24974   1.447   4.642   5.687  0.3389 -0.7219 -0.5042
 8097SOL    HW124975   1.363   4.675   5.656  0.2143 -1.1034 -0.5703
 8097SOL    HW224976   1.428   4.602   5.772  0.4870 -0.6471 -0.4344
 8098SOL     OW24977   6.896   4.650   6.091  0.3405 -0.5360 -0.2267
 8098SOL    HW124978   6.806   4.681   6.086  0.3314 -0.3008  1.0000
 8098SOL    HW224979   6.949   4.726   6.070  0.2974  0.1771  1.9666
 8099SOL     OW24980   0.248   1.274   3.982  0.0744 -0.0098 -0.2273
 8099SOL    HW124981   0.248   1.255   4.076  0.7200 -0.5249 -0.3182
 8099SOL    HW224982   0.162   1.246   3.953  0.2645 -0.9226  0.0261
 8100SOL     OW24983   0.825   1.488   3.521  0.1485  0.4479  0.3630
 8100SOL    HW124984   0.804   1.416   3.580 -0.0538 -0.9267 -1.3108
 8100SOL    HW224985   0.887   1.450   3.458  1.3896  2.2253  0.4410
 8101SOL     OW24986   1.584   3.760   3.598  0.1608  0.1259 -0.2339
 8101SOL    HW124987   1.517   3.825   3.580  1.5667  2.2751  1.7633
 8101SOL    HW224988   1.646   3.768   3.525  0.0956  0.7405 -0.2242
 8102SOL     OW24989   3.996   5.365   1.900 -0.1595  0.2625  0.1668
 8102SOL    HW124990   3.930   5.305   1.865 -1.3272  1.9853 -0.7675
 8102SOL    HW224991   4.027   5.323   1.980 -0.5827 -1.7724 -0.6822
 8103SOL     OW24992   4.995   6.711   1.164 -0.0838 -0.1829 -0.2234
 8103SOL    HW124993   4.994   6.725   1.069 -1.5312 -0.2552 -0.2471
 8103SOL    HW224994   4.902   6.701   1.187  0.3727 -2.5922  0.8331
 8104SOL     OW24995   1.116   4.185   1.946 -0.0651 -0.6618 -0.0539
 8104SOL    HW124996   1.075   4.102   1.921 -0.0019 -0.4597 -0.8345
 8104SOL    HW224997   1.201   4.159   1.982 -0.8933 -1.0932  1.6941
 8105SOL     OW24998   5.106   2.781   4.818  0.1052 -0.1330 -0.0842
 8105SOL    HW124999   5.110   2.876   4.815  0.7054 -0.1617 -0.3382
 8105SOL    HW225000   5.013   2.760   4.810  0.0548  0.4043 -1.0189
 8106SOL     OW25001   3.356   0.175   1.425  0.6034  0.2903 -0.0773
 8106SOL    HW125002   3.442   0.181   1.383  0.9617  1.4922  0.7555
 8106SOL    HW225003   3.374   0.192   1.517 -0.5807  1.0603  0.0321
 8107SOL     OW25004   1.811   0.430   5.431 -0.2630  0.1165  0.2374
 8107SOL    HW125005   1.814   0.509   5.485  1.9120  0.4434 -0.2421
 8107SOL    HW225006   1.807   0.358   5.494 -1.2711  0.5700  0.7117
 8108SOL     OW25007   5.281   3.946   4.776  0.4294 -0.4378 -0.3911
 8108SOL    HW125008   5.356   3.904   4.733  0.1082  1.5930 -3.1868
 8108SOL    HW225009   5.297   4.040   4.768 -0.9015  0.0614  1.8599
 8109SOL     OW25010   4.631   5.170   1.239  0.3162  0.7259 -0.1192
 8109SOL    HW125011   4.583   5.104   1.190 -0.2166  1.5477 -0.7359
 8109SOL    HW225012   4.587   5.176   1.323 -0.7845  1.5745 -0.7316
 8110SOL     OW25013   3.006   1.201   2.487  0.3770  0.1748 -0.4206
 8110SOL    HW125014   3.006   1.151   2.405  0.2340 -1.4811  0.5469
 8110SOL    HW225015   2.950   1.151   2.546  0.5620  1.2740  0.7349
 8111SOL     OW25016   0.042   0.062   3.592  0.0833 -0.3070 -0.6423
 8111SOL    HW125017   0.056   0.150   3.556  0.1483  0.5459  1.3334
 8111SOL    HW225018  -0.030   0.026   3.540 -0.3361  1.1597 -1.1361
 8112SOL     OW25019   3.196   5.807   2.248 -0.1842  0.5029 -0.0657
 8112SOL    HW125020   3.180   5.850   2.164  1.6931  0.1723 -0.6457
 8112SOL    HW225021   3.234   5.722   2.224  1.8124  1.0098  1.0997
 8113SOL     OW25022   4.322   2.637   2.191  0.2275  0.0995 -0.1504
 8113SOL    HW125023   4.252   2.631   2.256 -1.0727  0.3533 -1.4665
 8113SOL    HW225024   4.276   2.648   2.107  1.8137 -1.3420 -1.2729
 8114SOL     OW25025   4.396   0.774   2.469  0.0918  0.0669 -0.2175
 8114SOL    HW125026   4.382   0.861   2.506 -2.1103 -0.0130 -0.6971
 8114SOL    HW225027   4.320   0.723   2.498  2.3781 -2.3935  1.8583
 8115SOL     OW25028   0.266   6.319   3.953  0.4819 -0.2550 -0.0132
 8115SOL    HW125029   0.243   6.395   4.006  1.5819 -1.6737  2.7375
 8115SOL    HW225030   0.361   6.326   3.941  0.5948 -1.1541  0.2680
 8116SOL     OW25031   5.832   0.757   2.326 -0.2656 -0.5289 -0.4093
 8116SOL    HW125032   5.887   0.724   2.397 -0.3110  0.8116  0.2675
 8116SOL    HW225033   5.763   0.690   2.317 -0.2424 -0.7476  0.7873
 8117SOL     OW25034   1.266   2.232   5.229  0.1757 -0.1547  0.5294
 8117SOL    HW125035   1.250   2.164   5.163  0.2935 -0.0688  0.4122
 8117SOL    HW225036   1.184   2.239   5.277  0.8932 -2.2164  2.2389
 8118SOL     OW25037   3.365   6.327   4.809  0.5489 -0.2507  0.1362
 8118SOL    HW125038   3.315   6.245   4.808 -1.5140  0.9309  0.6153
 8118SOL    HW225039   3.319   6.384   4.748  0.4765  1.3522  1.6025
 8119SOL     OW25040   5.360   1.073   0.596 -0.4364  0.5997 -0.8122
 8119SOL    HW125041   5.393   1.030   0.517 -0.1492 -0.0374 -0.3600
 8119SOL    HW225042   5.290   1.016   0.626 -0.3430  0.6747 -0.4435
 8120SOL     OW25043   3.045   4.473   0.646 -0.0072 -0.2863 -0.3642
 8120SOL    HW125044   3.101   4.417   0.592  2.6803  0.4738  1.4141
 8120SOL    HW225045   2.973   4.417   0.673  0.3801 -1.6353 -1.9742
 8121SOL     OW25046   1.584   5.945   5.965 -0.2393  0.4760  0.0765
 8121SOL    HW125047   1.653   5.913   6.023  1.7147  0.3182 -2.1590
 8121SOL    HW225048   1.629   6.005   5.905 -2.5660  2.3534  0.0449
 8122SOL     OW25049   6.166   4.564   1.790  0.2892  0.1750 -0.3611
 8122SOL    HW125050   6.196   4.540   1.702 -0.7776  0.3879 -0.7900
 8122SOL    HW225051   6.147   4.480   1.831 -0.0617  0.1156 -0.6413
 8123SOL     OW25052   0.989   4.909   4.846  0.0796  0.1065  0.1530
 8123SOL    HW125053   1.044   4.975   4.889 -0.4924  0.5000  0.2886
 8123SOL    HW225054   0.993   4.930   4.753  0.4009 -0.0540  0.1281
 8124SOL     OW25055   5.101   4.133   6.591  0.2247 -0.4091  0.1155
 8124SOL    HW125056   5.016   4.143   6.549 -0.1258  1.3695  1.1735
 8124SOL    HW225057   5.136   4.051   6.555 -0.1689  0.7978 -3.3727
 8125SOL     OW25058   5.334   1.603   3.475 -0.4255 -0.2334 -0.0170
 8125SOL    HW125059   5.252   1.650   3.463  0.6452  1.5098 -0.8473
 8125SOL    HW225060   5.372   1.641   3.554 -0.3769 -0.9918  0.3317
 8126SOL     OW25061   6.095   1.797   6.249  0.1349 -0.4284  0.2699
 8126SOL    HW125062   6.060   1.867   6.303  0.0646 -0.8418  0.7690
 8126SOL    HW225063   6.167   1.838   6.201 -0.0056  0.0221  0.4392
 8127SOL     OW25064   2.345   0.745   3.857 -0.0136  0.1795 -0.4966
 8127SOL    HW125065   2.387   0.661   3.842  0.9323  0.7226 -0.9467
 8127SOL    HW225066   2.383   0.804   3.792  0.3995  1.3079  0.7238
 8128SOL     OW25067   1.644   3.167   6.057 -0.1977  0.1338 -0.3474
 8128SOL    HW125068   1.640   3.234   5.988  1.7143 -1.0307 -1.6904
 8128SOL    HW225069   1.578   3.103   6.032  1.1126 -0.7535 -1.7000
 8129SOL     OW25070   6.427   2.041   0.520  0.6565 -0.2927 -0.6097
 8129SOL    HW125071   6.357   2.097   0.553 -0.8821 -3.5537  2.4371
 8129SOL    HW225072   6.507   2.090   0.537 -0.6684  2.4900 -1.7919
 8130SOL     OW25073   3.545   2.136   6.473 -0.3934  0.2452  0.0468
 8130SOL    HW125074   3.627   2.156   6.429  0.0660 -1.3222  0.1430
 8130SOL    HW225075   3.562   2.152   6.566 -0.3593  0.3931  0.0154
 8131SOL     OW25076   1.221   6.569   4.948 -0.4770  0.4444 -0.1505
 8131SOL    HW125077   1.171   6.533   4.875 -0.5896  0.5995 -0.1502
 8131SOL    HW225078   1.256   6.492   4.994  0.7461  0.3604 -1.1537
 8132SOL     OW25079   2.576   2.759   0.660  0.1984  0.1292 -0.3178
 8132SOL    HW125080   2.592   2.829   0.597 -0.7820  0.3833 -0.3077
 8132SOL    HW225081   2.593   2.799   0.745 -2.9322  1.2470 -0.0894
 8133SOL     OW25082   0.603   0.979   0.681 -0.1729 -0.3761  0.9243
 8133SOL    HW125083   0.562   0.893   0.689 -2.0196  0.2211 -0.9509
 8133SOL    HW225084   0.538   1.040   0.716  0.4005  0.3943  0.6887
 8134SOL     OW25085   4.634   6.372   0.818  0.2707  0.4332  0.0967
 8134SOL    HW125086   4.549   6.409   0.843  0.4064  0.1830  0.9693
 8134SOL    HW225087   4.697   6.442   0.836  0.2453  0.6645 -0.6707
 8135SOL     OW25088   6.035   0.780   4.545  0.5280  0.4121  0.2996
 8135SOL    HW125089   6.071   0.692   4.536  0.7124  0.4232  0.9375
 8135SOL    HW225090   6.102   0.830   4.590  0.3655  0.8498  0.0676
 8136SOL     OW25091   4.177   1.486   3.259  0.3646 -0.3025 -0.0291
 8136SOL    HW125092   4.186   1.466   3.352 -0.6601 -0.4028  0.0552
 8136SOL    HW225093   4.252   1.443   3.218  0.4613 -0.8159  0.6681
 8137SOL     OW25094   2.325   5.588   3.043 -0.3025  0.3436 -0.3856
 8137SOL    HW125095   2.407   5.629   3.017 -0.6344  0.0708 -1.9764
 8137SOL    HW225096   2.350   5.506   3.085  0.2264 -0.3300 -1.9595
 8138SOL     OW25097   3.571   0.475   2.195  0.4677  0.5262 -0.2581
 8138SOL    HW125098   3.557   0.394   2.146 -0.4519 -0.2930  1.2701
 8138SOL    HW225099   3.659   0.467   2.231 -0.0929 -0.4300  0.9616
 8139SOL     OW25100   5.717   1.990   5.304  0.3640 -0.6114  0.6102
 8139SOL    HW125101   5.704   2.084   5.289  0.9016 -0.8920 -2.0842
 8139SOL    HW225102   5.646   1.965   5.363 -1.3077  1.0093 -0.5986
 8140SOL     OW25103   5.164   0.328   6.557  0.0021 -0.7996 -0.0973
 8140SOL    HW125104   5.203   0.393   6.498  1.6638  1.2053  2.9618
 8140SOL    HW225105   5.232   0.261   6.567  0.4686 -0.2035  0.8679
 8141SOL     OW25106   2.264   5.187   3.363  0.1602  0.5651 -0.2020
 8141SOL    HW125107   2.331   5.238   3.409 -0.0895  0.9058 -0.2132
 8141SOL    HW225108   2.191   5.181   3.426 -0.0642  0.7749 -0.4399
 8142SOL     OW25109   5.777   5.950   5.518  0.6428 -0.1498  0.3125
 8142SOL    HW125110   5.771   5.896   5.439  0.2105  0.0499  0.2062
 8142SOL    HW225111   5.837   5.902   5.576 -0.8236 -1.4570  0.7913
 8143SOL     OW25112   3.692   4.293   1.047  0.1331  0.3883 -0.3293
 8143SOL    HW125113   3.743   4.371   1.023  1.0153 -0.0266  0.1538
 8143SOL    HW225114   3.659   4.314   1.134  2.4403 -0.7177  0.9095
 8144SOL     OW25115   2.331   6.048   6.042 -0.3518 -0.0327 -0.1713
 8144SOL    HW125116   2.356   5.956   6.054  1.1230  0.5373  1.5512
 8144SOL    HW225117   2.289   6.072   6.124  0.6144  1.2210 -0.0248
 8145SOL     OW25118   4.796   6.547   2.096 -0.1153  0.1410 -0.4923
 8145SOL    HW125119   4.831   6.603   2.027  0.4037 -0.5341 -0.7868
 8145SOL    HW225120   4.765   6.608   2.163  2.2504  0.7725  0.0968
 8146SOL     OW25121   2.734   2.145   5.962  0.1341 -0.0788  0.6519
 8146SOL    HW125122   2.780   2.227   5.942 -0.2137 -0.1663 -0.5978
 8146SOL    HW225123   2.790   2.076   5.928  0.4312 -0.3798  1.7138
 8147SOL     OW25124   3.663   6.744   4.747 -0.0116 -0.3758 -0.4722
 8147SOL    HW125125   3.689   6.734   4.656 -2.2612 -0.1364 -1.2054
 8147SOL    HW225126   3.571   6.772   4.743  0.2945  1.2714  1.8207
 8148SOL     OW25127   2.289   0.596   2.639 -0.1755  0.0128 -0.2192
 8148SOL    HW125128   2.218   0.531   2.638 -2.5876  2.4983 -1.2880
 8148SOL    HW225129   2.317   0.604   2.548 -0.0107  0.5854 -0.1239
 8149SOL     OW25130   2.351   4.405   3.363 -0.1093 -0.3520 -0.3193
 8149SOL    HW125131   2.380   4.433   3.450 -0.1596 -0.4007 -0.2867
 8149SOL    HW225132   2.425   4.355   3.328 -0.4487 -1.1786  0.0931
 8150SOL     OW25133   0.036   1.862   2.903  0.0848  0.0251  0.0583
 8150SOL    HW125134   0.030   1.930   2.970 -2.8565 -0.0983  0.0286
 8150SOL    HW225135   0.002   1.903   2.824 -0.5869 -1.1100 -0.2596
 8151SOL     OW25136   4.982   4.309   4.502  0.4680 -0.1947  0.1002
 8151SOL    HW125137   4.887   4.297   4.495  0.7086 -1.7383 -1.3168
 8151SOL    HW225138   4.996   4.342   4.591 -1.3403 -0.5269  0.5495
 8152SOL     OW25139   0.696   3.452   0.405 -0.8046 -0.1392 -0.1160
 8152SOL    HW125140   0.627   3.421   0.346 -0.5544 -1.3370  0.2167
 8152SOL    HW225141   0.649   3.492   0.478 -1.1262  1.8220 -1.3152
 8153SOL     OW25142   5.496   5.189   2.838  0.0311  0.1412 -0.1559
 8153SOL    HW125143   5.514   5.097   2.858  0.5612  0.3158  0.1970
 8153SOL    HW225144   5.414   5.188   2.788 -1.4434 -0.2917  2.1369
 8154SOL     OW25145   6.162   4.624   4.519  0.2235  0.0236  0.0784
 8154SOL    HW125146   6.233   4.663   4.468 -0.3014  0.4138 -0.3749
 8154SOL    HW225147   6.156   4.678   4.598  1.1860 -0.7175  0.6781
 8155SOL     OW25148   1.932   2.056   0.567 -0.3127  0.9120 -0.2879
 8155SOL    HW125149   1.873   2.004   0.623 -1.5081  1.2506 -1.1904
 8155SOL    HW225150   2.014   2.060   0.617 -0.9405  0.1635  0.8724
 8156SOL     OW25151   2.208   1.248   5.637  0.1307 -0.4491 -0.0742
 8156SOL    HW125152   2.160   1.260   5.555  0.4761  2.6386  0.0225
 8156SOL    HW225153   2.140   1.249   5.704  0.0496  0.4641 -0.1517
 8157SOL     OW25154   0.361   6.378   5.375  0.4156 -0.0381  0.9170
 8157SOL    HW125155   0.410   6.301   5.403 -0.6922 -0.5329  1.5707
 8157SOL    HW225156   0.394   6.398   5.287 -0.4178 -2.2852  0.0133
 8158SOL     OW25157   3.065   4.931   5.085  0.4331  0.4992  0.4270
 8158SOL    HW125158   2.977   4.965   5.071 -0.9098 -3.0500 -0.8905
 8158SOL    HW225159   3.071   4.917   5.180 -0.5955  0.4383  0.4875
 8159SOL     OW25160   3.142   1.714   0.694 -0.0598  0.0019 -0.1970
 8159SOL    HW125161   3.203   1.756   0.633  0.3446  1.0260  0.8891
 8159SOL    HW225162   3.188   1.711   0.777 -0.8899 -0.7060  0.2613
 8160SOL     OW25163   3.414   5.169   0.487  0.4773 -0.1730 -0.3731
 8160SOL    HW125164   3.425   5.224   0.410 -0.0867  0.4248 -0.0378
 8160SOL    HW225165   3.336   5.203   0.530  1.1315 -0.0762  0.7996
 8161SOL     OW25166   3.534   5.729   3.590  1.0738  0.3745  0.0382
 8161SOL    HW125167   3.573   5.817   3.600  1.0157  0.2967  1.0363
 8161SOL    HW225168   3.539   5.691   3.677  1.5594 -0.8205 -0.4983
 8162SOL     OW25169   2.696   4.073   1.146  0.1213  0.0172  0.0044
 8162SOL    HW125170   2.653   4.137   1.090  2.0136  2.3755  1.0719
 8162SOL    HW225171   2.676   4.101   1.235 -1.1299 -2.4631  0.6042
 8163SOL     OW25172   6.812   5.025   3.745 -0.7409 -0.0697 -0.2729
 8163SOL    HW125173   6.774   4.984   3.667 -0.7795  0.9496 -0.8002
 8163SOL    HW225174   6.884   4.966   3.770 -1.0806 -0.6950 -0.7358
 8164SOL     OW25175   0.315   6.137   2.365 -0.0321 -0.0022  0.1423
 8164SOL    HW125176   0.244   6.129   2.428 -0.1730 -0.0155 -0.0181
 8164SOL    HW225177   0.306   6.060   2.309 -0.2876  0.3274 -0.2785
 8165SOL     OW25178   2.931   4.185   2.102 -0.3802 -0.3222 -0.5664
 8165SOL    HW125179   2.995   4.115   2.096 -1.1345 -0.9925 -0.9818
 8165SOL    HW225180   2.968   4.256   2.049  0.7282 -0.1105  0.4417
 8166SOL     OW25181   0.789   2.657   0.389  0.2702  0.6122 -0.0356
 8166SOL    HW125182   0.773   2.657   0.483  1.5678 -0.0756  0.2105
 8166SOL    HW225183   0.849   2.731   0.374  0.7694  0.1923 -0.1674
 8167SOL     OW25184   3.966   3.111   2.707  0.5212 -0.0444 -0.2338
 8167SOL    HW125185   3.918   3.192   2.727 -0.1031 -0.2314 -0.9137
 8167SOL    HW225186   4.045   3.116   2.761 -0.5523 -0.0173  1.4241
 8168SOL     OW25187   1.320   0.854   5.704 -0.4989  0.0937 -0.3754
 8168SOL    HW125188   1.259   0.888   5.639 -0.0839 -0.8676 -1.2915
 8168SOL    HW225189   1.287   0.888   5.787 -0.7905  1.6772 -1.1153
 8169SOL     OW25190   1.119   0.657   4.738  0.1788 -0.3620 -0.3436
 8169SOL    HW125191   1.214   0.649   4.742  0.1062 -0.8044  1.1859
 8169SOL    HW225192   1.101   0.748   4.759  0.2589 -0.2702 -0.6663
 8170SOL     OW25193   5.272   4.415   2.457  0.3456  0.6408 -0.0471
 8170SOL    HW125194   5.346   4.361   2.484 -0.3299 -0.4387 -0.2785
 8170SOL    HW225195   5.195   4.368   2.490 -0.3710  0.4869 -1.8008
 8171SOL     OW25196   3.218   6.024   1.505  0.1835  0.1734 -0.2971
 8171SOL    HW125197   3.122   6.018   1.495  0.1133 -0.1182  0.5077
 8171SOL    HW225198   3.231   6.046   1.597  0.8612  1.5291 -0.6984
 8172SOL     OW25199   5.623   5.806   3.823 -0.3255  0.4352 -0.0874
 8172SOL    HW125200   5.643   5.726   3.871 -0.5779 -0.3101 -1.1901
 8172SOL    HW225201   5.692   5.813   3.757 -0.6940  0.7468 -0.4464
 8173SOL     OW25202   1.500   1.068   0.490  0.0634  0.1647 -0.3932
 8173SOL    HW125203   1.585   1.042   0.525 -0.3969 -0.8595  0.0063
 8173SOL    HW225204   1.440   1.000   0.520 -1.1789  1.5985  0.5099
 8174SOL     OW25205   0.464   0.737   0.719 -0.0559 -0.0787 -0.3665
 8174SOL    HW125206   0.461   0.642   0.725 -1.7707 -0.0789 -0.6959
 8174SOL    HW225207   0.377   0.762   0.687  0.2673  1.6164 -0.0373
 8175SOL     OW25208   5.285   1.236   5.299 -0.3313  0.2317 -0.1924
 8175SOL    HW125209   5.302   1.198   5.212  0.2953  2.2410 -1.0108
 8175SOL    HW225210   5.323   1.174   5.360  1.2296 -0.1613 -1.4937
 8176SOL     OW25211   5.079   2.419   5.223 -0.1289 -0.0144  0.1003
 8176SOL    HW125212   5.002   2.388   5.175  0.1758  0.4873 -0.7332
 8176SOL    HW225213   5.121   2.480   5.163 -0.1239  1.1939  1.2848
 8177SOL     OW25214   0.312   1.132   5.120 -0.3119  0.0360  0.4184
 8177SOL    HW125215   0.320   1.191   5.195 -2.0383  1.5654 -0.5306
 8177SOL    HW225216   0.245   1.172   5.065 -1.0124 -2.4233 -0.6565
 8178SOL     OW25217   4.778   0.265   2.550  0.0298 -0.1327 -0.4109
 8178SOL    HW125218   4.719   0.337   2.526  1.6234  1.1286 -0.7511
 8178SOL    HW225219   4.824   0.297   2.628  1.9115 -0.0620 -1.4904
 8179SOL     OW25220   5.499   5.459   5.656 -0.2932  0.2014  0.1141
 8179SOL    HW125221   5.562   5.493   5.593 -0.1289 -1.1521 -0.4775
 8179SOL    HW225222   5.463   5.537   5.699  2.7915  0.9970  1.4923
 8180SOL     OW25223   6.604   3.384   2.647  0.1213  0.0616 -0.4603
 8180SOL    HW125224   6.682   3.347   2.607  1.3746  2.5763 -0.5584
 8180SOL    HW225225   6.625   3.391   2.740  0.5202  1.7119 -0.6319
 8181SOL     OW25226   0.118   5.409   3.883 -0.0194 -0.2377 -0.2125
 8181SOL    HW125227   0.080   5.351   3.818 -0.2316 -0.6516  0.2779
 8181SOL    HW225228   0.058   5.484   3.888 -1.3432 -1.3314  1.2684
 8182SOL     OW25229   3.291   1.792   2.572 -0.1830 -0.2892 -0.2428
 8182SOL    HW125230   3.292   1.887   2.557  2.1775 -0.1176  0.6248
 8182SOL    HW225231   3.244   1.782   2.655 -1.4002 -0.0157 -0.8729
 8183SOL     OW25232   6.070   0.339   2.929  0.0767  0.5139  0.5712
 8183SOL    HW125233   6.165   0.324   2.926  0.0667  0.5901 -0.6750
 8183SOL    HW225234   6.052   0.395   2.854 -0.8543  1.1782  1.2713
 8184SOL     OW25235   2.146   0.541   0.775  0.0159 -0.0959 -0.4418
 8184SOL    HW125236   2.122   0.576   0.689 -0.5499 -1.9916 -1.0951
 8184SOL    HW225237   2.208   0.471   0.756  1.5305  0.8130  0.8665
 8185SOL     OW25238   0.167   5.964   4.057  0.4096 -0.2518  0.0902
 8185SOL    HW125239   0.130   6.039   4.103 -0.4693 -0.8104  0.3263
 8185SOL    HW225240   0.252   5.950   4.097  0.5485  0.5706  0.0956
 8186SOL     OW25241   2.342   1.551   3.086  0.3021 -0.1841 -0.0365
 8186SOL    HW125242   2.348   1.467   3.130 -0.8663 -0.9353 -1.2189
 8186SOL    HW225243   2.275   1.599   3.134 -0.0487 -0.4907 -0.2187
 8187SOL     OW25244   2.537   5.809   6.862  0.1294  0.5923  1.0034
 8187SOL    HW125245   2.515   5.726   6.903 -0.2602  1.1018  1.8434
 8187SOL    HW225246   2.453   5.849   6.841  0.0259 -1.5594 -4.5182
 8188SOL     OW25247   4.888   5.222   2.657 -0.2263 -0.3549 -0.4258
 8188SOL    HW125248   4.868   5.300   2.606  1.5851  0.1972 -0.3447
 8188SOL    HW225249   4.813   5.164   2.642 -1.4651  1.2521 -0.7273
 8189SOL     OW25250   2.620   5.017   5.640 -0.0951  0.2679 -0.0094
 8189SOL    HW125251   2.552   5.061   5.589 -0.9794  1.0166  1.7178
 8189SOL    HW225252   2.636   5.076   5.714  0.2854 -1.2995  1.2164
 8190SOL     OW25253   0.417   0.136   4.831 -0.6172 -0.4323  0.5226
 8190SOL    HW125254   0.416   0.046   4.797  1.7450 -0.0507 -0.7697
 8190SOL    HW225255   0.413   0.125   4.927  0.8602 -2.0199  0.4614
 8191SOL     OW25256   3.537   0.204   5.186  0.4879 -0.6175 -0.0890
 8191SOL    HW125257   3.619   0.250   5.202  1.1247 -1.2065 -1.5542
 8191SOL    HW225258   3.538   0.131   5.249  0.9852 -0.5078  0.0352
 8192SOL     OW25259   6.465   1.041   5.216  0.2694  0.2589  0.0942
 8192SOL    HW125260   6.447   1.122   5.265  2.1575  1.7718 -1.5484
 8192SOL    HW225261   6.397   1.038   5.149 -2.2028 -1.7134  2.4430
 8193SOL     OW25262   6.871   0.157   3.825 -0.6705 -0.7701 -0.3031
 8193SOL    HW125263   6.852   0.237   3.777  0.7852 -0.4374 -0.3669
 8193SOL    HW225264   6.881   0.090   3.757 -0.7711 -0.7570 -0.3296
 8194SOL     OW25265   3.564   4.162   4.283 -0.2509 -0.2239 -0.9087
 8194SOL    HW125266   3.532   4.236   4.333 -0.9546 -0.6620 -0.7051
 8194SOL    HW225267   3.491   4.101   4.279  0.8736 -1.7966  0.6226
 8195SOL     OW25268   3.836   2.966   1.408 -0.5628  0.1788 -0.3671
 8195SOL    HW125269   3.769   2.916   1.361 -3.1411  3.6886 -0.7972
 8195SOL    HW225270   3.797   3.052   1.421  2.7333  1.4876  2.2312
 8196SOL     OW25271   2.246   3.953   2.662 -0.1270 -0.3640  0.1553
 8196SOL    HW125272   2.201   3.892   2.604 -0.1004  0.3376 -0.6147
 8196SOL    HW225273   2.284   3.897   2.730  0.1512 -1.2343 -0.6889
 8197SOL     OW25274   4.218   2.320   1.888  0.3203 -0.5129 -0.0395
 8197SOL    HW125275   4.299   2.296   1.843  1.0583  2.1260 -0.3042
 8197SOL    HW225276   4.242   2.324   1.981  0.7879  1.1272 -0.2022
 8198SOL     OW25277   0.485   2.097   3.707 -0.1704  0.3280  0.0011
 8198SOL    HW125278   0.469   2.120   3.798 -0.5466  0.7273 -0.1621
 8198SOL    HW225279   0.577   2.068   3.705  0.2497  1.5653  0.2748
 8199SOL     OW25280   2.589   1.869   0.130 -0.3184 -0.0696  0.1494
 8199SOL    HW125281   2.596   1.928   0.054  1.9436  1.7913  1.6664
 8199SOL    HW225282   2.615   1.783   0.096 -0.6061  0.4319 -1.4488
 8200SOL     OW25283   0.532   2.062   2.097 -0.5561  0.1593 -0.7496
 8200SOL    HW125284   0.605   2.096   2.148 -0.8951 -0.9324  0.5333
 8200SOL    HW225285   0.461   2.124   2.113 -0.3288  0.4435 -0.8354
 8201SOL     OW25286   2.729   1.160   6.411 -0.3112  0.3640  0.0530
 8201SOL    HW125287   2.751   1.142   6.320  1.3106 -2.8656  0.9344
 8201SOL    HW225288   2.641   1.124   6.422  0.6829 -2.1246  0.4063
 8202SOL     OW25289   3.692   0.206   4.680  0.2534  0.1245  0.2905
 8202SOL    HW125290   3.636   0.218   4.757 -1.1987  3.1499 -1.0529
 8202SOL    HW225291   3.635   0.226   4.606  1.2273 -3.8412 -1.8215
 8203SOL     OW25292   6.090   2.270   0.891 -0.0923 -0.3852 -0.0754
 8203SOL    HW125293   5.995   2.263   0.898  0.0160 -1.8206  0.2931
 8203SOL    HW225294   6.107   2.364   0.892 -1.5186 -0.1017 -0.4009
 8204SOL     OW25295   3.148   5.889   4.900  0.3846  0.3149  0.0307
 8204SOL    HW125296   3.058   5.882   4.931  0.9663  1.2757  2.0714
 8204SOL    HW225297   3.140   5.895   4.805 -1.4792 -2.7794 -0.1478
 8205SOL     OW25298   0.870   1.132   2.313 -0.8351  0.0391  0.2690
 8205SOL    HW125299   0.908   1.160   2.230  0.4231  0.7368  1.0412
 8205SOL    HW225300   0.820   1.208   2.344  0.9557  0.8326  1.4163
 8206SOL     OW25301   3.735   3.243   2.194 -0.3825  0.1294 -0.4207
 8206SOL    HW125302   3.705   3.288   2.115  0.7888 -0.4755 -1.2367
 8206SOL    HW225303   3.744   3.152   2.168  0.1188 -0.0589  0.3872
 8207SOL     OW25304   2.935   2.413   6.404 -0.1708  0.1380 -0.0103
 8207SOL    HW125305   2.950   2.339   6.463 -0.2506 -0.0802 -0.2618
 8207SOL    HW225306   2.978   2.487   6.447  1.2026 -0.3558 -0.4809
 8208SOL     OW25307   2.784   3.909   5.260  0.7910 -0.3453 -0.5290
 8208SOL    HW125308   2.873   3.888   5.289  0.6708 -0.8989 -0.5519
 8208SOL    HW225309   2.784   4.005   5.253  1.3843 -0.3366 -0.5289
 8209SOL     OW25310   2.117   5.823   1.176 -0.2859  0.2575  0.3827
 8209SOL    HW125311   2.064   5.745   1.156 -1.0020  0.8593 -0.1165
 8209SOL    HW225312   2.200   5.788   1.208 -0.5046 -0.7178 -0.0813
 8210SOL     OW25313   3.452   0.270   0.761 -0.1685  0.1184  0.1073
 8210SOL    HW125314   3.504   0.226   0.694  1.4180  0.7269  0.8899
 8210SOL    HW225315   3.516   0.298   0.827 -1.6814 -0.5464  1.9477
 8211SOL     OW25316   0.714   5.857   2.439 -0.2916  0.0186  0.1684
 8211SOL    HW125317   0.765   5.895   2.368 -2.0160  0.5029 -0.8820
 8211SOL    HW225318   0.699   5.929   2.500 -0.9660  0.2688 -0.2823
 8212SOL     OW25319   2.262   1.985   2.738  0.0167 -0.2590  0.3545
 8212SOL    HW125320   2.288   1.908   2.686 -1.3181 -0.2818 -0.3237
 8212SOL    HW225321   2.232   1.948   2.821 -2.1257 -0.6787 -0.5332
 8213SOL     OW25322   2.280   3.082   1.749  0.8550 -0.2705 -0.0531
 8213SOL    HW125323   2.330   3.134   1.812  1.5456 -1.6675  0.5985
 8213SOL    HW225324   2.347   3.037   1.696  0.2936 -1.0678 -0.1041
 8214SOL     OW25325   4.832   0.993   2.055  0.8521  0.6605 -1.0086
 8214SOL    HW125326   4.860   1.033   2.138  1.1633 -1.7965  0.1710
 8214SOL    HW225327   4.914   0.971   2.011  0.7529 -0.8609 -0.4788
 8215SOL     OW25328   4.117   0.055   4.964 -0.5031 -0.0552  0.3606
 8215SOL    HW125329   4.121   0.118   4.892 -1.8115 -0.3349  0.0174
 8215SOL    HW225330   4.136  -0.030   4.923 -1.1151 -0.1959  0.3532
 8216SOL     OW25331   4.839   5.473   5.135  0.1446 -0.2558  0.5046
 8216SOL    HW125332   4.850   5.500   5.043  0.4187  0.9855  0.8801
 8216SOL    HW225333   4.750   5.436   5.138  1.1761 -3.1048 -0.8718
 8217SOL     OW25334   0.209   6.191   0.535  0.1293 -0.2267  0.2089
 8217SOL    HW125335   0.195   6.097   0.522 -1.1317  0.0047 -0.2002
 8217SOL    HW225336   0.141   6.233   0.483  0.6321  0.9256  0.4481
 8218SOL     OW25337   1.286   5.151   0.381  0.2291 -0.0586  0.0997
 8218SOL    HW125338   1.367   5.161   0.330  0.0086 -0.9128 -0.4528
 8218SOL    HW225339   1.277   5.056   0.392  1.5663  0.0553  3.8443
 8219SOL     OW25340   1.675   0.838   1.142 -0.1447 -0.2811 -0.0423
 8219SOL    HW125341   1.684   0.917   1.195  1.4612 -1.8190  2.1881
 8219SOL    HW225342   1.603   0.857   1.082 -2.2742  1.5587  2.8441
 8220SOL     OW25343   1.634   2.461   2.018  0.2055  0.1556 -0.0894
 8220SOL    HW125344   1.593   2.451   1.932  1.6770  1.8700 -1.0557
 8220SOL    HW225345   1.714   2.410   2.013  1.4012  1.9906 -0.5760
 8221SOL     OW25346   6.427   4.811   5.430  0.2269 -0.2034  0.0441
 8221SOL    HW125347   6.332   4.804   5.441  0.2174 -0.3297 -0.1227
 8221SOL    HW225348   6.448   4.751   5.359  0.4614 -0.3394  0.2259
 8222SOL     OW25349   2.983   0.178   0.537  0.2104  0.7698  0.3298
 8222SOL    HW125350   2.922   0.122   0.488 -1.9081  0.9208  2.5894
 8222SOL    HW225351   3.004   0.127   0.615  2.2138  1.1767  0.0911
 8223SOL     OW25352   5.880   4.338   3.611  0.0133  0.0967 -0.7420
 8223SOL    HW125353   5.812   4.273   3.592  1.6825 -1.6431 -1.1861
 8223SOL    HW225354   5.835   4.422   3.607 -1.7675 -0.8322 -2.8006
 8224SOL     OW25355   4.426   1.194   3.393  0.3737  0.4375  0.3706
 8224SOL    HW125356   4.365   1.237   3.452  1.3890  0.3937  1.4997
 8224SOL    HW225357   4.427   1.103   3.422  0.6439  0.3480  0.0890
 8225SOL     OW25358   5.316   0.458   4.472 -0.1686 -1.0315 -0.7363
 8225SOL    HW125359   5.336   0.367   4.496 -0.7465 -1.1068 -0.5324
 8225SOL    HW225360   5.393   0.507   4.501 -0.6051 -1.1998  0.8384
 8226SOL     OW25361   6.118   6.082   5.562 -0.1503 -0.1140  0.3990
 8226SOL    HW125362   6.159   6.019   5.621  0.7893  0.1251  0.0252
 8226SOL    HW225363   6.087   6.029   5.488  1.0256 -0.0983 -0.1203
 8227SOL     OW25364   4.489   3.816   1.796  0.2070  0.2279 -0.0069
 8227SOL    HW125365   4.533   3.862   1.725 -0.9020 -0.6907 -1.3485
 8227SOL    HW225366   4.559   3.770   1.842  0.7083 -1.3005 -2.1593
 8228SOL     OW25367   4.855   5.608   4.884  0.4443  0.1688  0.2596
 8228SOL    HW125368   4.823   5.594   4.795  0.6984 -0.3520  0.2467
 8228SOL    HW225369   4.815   5.690   4.912  0.4682  0.3961 -0.3825
 8229SOL     OW25370   4.565   3.618   2.401  0.4513  0.4855  0.3478
 8229SOL    HW125371   4.483   3.599   2.445 -0.5971 -0.4299 -1.8356
 8229SOL    HW225372   4.609   3.533   2.394  0.6587  0.6317 -0.1899
 8230SOL     OW25373   0.688   4.231   5.810  0.0040  0.0557 -0.5067
 8230SOL    HW125374   0.721   4.192   5.891  1.2308  1.0360 -0.5011
 8230SOL    HW225375   0.638   4.308   5.839  1.5526  1.1773 -0.6985
 8231SOL     OW25376   0.782   6.778   1.984  0.1449  0.2913  0.1458
 8231SOL    HW125377   0.855   6.791   2.045 -1.1811  0.1001  1.8420
 8231SOL    HW225378   0.801   6.695   1.941  0.5962 -0.0920  1.0620
 8232SOL     OW25379   4.920   4.968   5.168 -0.0069 -0.5287  0.4807
 8232SOL    HW125380   4.846   5.020   5.136 -0.7447 -1.1096  1.2007
 8232SOL    HW225381   4.917   4.887   5.116 -0.4989 -0.9743  1.1814
 8233SOL     OW25382   5.171   6.245   6.771  0.3424 -0.1140 -0.2887
 8233SOL    HW125383   5.108   6.173   6.777  1.3731 -0.9505  1.3134
 8233SOL    HW225384   5.176   6.264   6.677 -1.8008 -0.4251 -0.5132
 8234SOL     OW25385   1.700   4.801   3.687 -0.7974 -0.1912 -0.4353
 8234SOL    HW125386   1.611   4.789   3.722 -0.8116 -0.1114 -0.4433
 8234SOL    HW225387   1.720   4.718   3.643 -0.1747 -0.8826  1.0773
 8235SOL     OW25388   0.515   3.455   1.559 -0.3435  0.1665  0.1589
 8235SOL    HW125389   0.428   3.435   1.595 -0.3752  2.1346  1.3118
 8235SOL    HW225390   0.572   3.461   1.636  1.2941 -2.7396 -0.6358
 8236SOL     OW25391   4.659   5.579   5.883  0.3572  0.1731 -0.5597
 8236SOL    HW125392   4.724   5.590   5.953 -1.2148  1.3078  0.7862
 8236SOL    HW225393   4.616   5.496   5.903 -0.4938  0.7813  0.1980
 8237SOL     OW25394   5.921   5.866   5.099 -0.5602 -0.6264 -0.0463
 8237SOL    HW125395   5.971   5.836   5.022  0.5241  1.9759 -0.4536
 8237SOL    HW225396   5.834   5.886   5.064 -0.9647 -2.1059  0.0257
 8238SOL     OW25397   1.417   0.407   5.758 -0.5520  0.5483  0.3758
 8238SOL    HW125398   1.463   0.473   5.810 -1.1960  0.7075  0.7552
 8238SOL    HW225399   1.464   0.325   5.776 -0.8863  0.5654  1.3802
 8239SOL     OW25400   5.726   5.004   3.032 -0.2384 -0.1111 -0.2774
 8239SOL    HW125401   5.780   5.046   3.099  1.5874  0.0257 -1.7441
 8239SOL    HW225402   5.646   4.978   3.078  1.4541 -1.2315  2.2760
 8240SOL     OW25403   3.904   0.097   1.157 -0.2086 -0.4514  0.3085
 8240SOL    HW125404   3.859   0.013   1.160 -0.4596 -0.2981  0.8330
 8240SOL    HW225405   3.955   0.101   1.238 -1.0635  0.3820  0.8190
 8241SOL     OW25406   6.803   6.510   3.921  0.6556  0.4238 -0.3776
 8241SOL    HW125407   6.798   6.498   4.016 -0.3712 -1.5343 -0.6438
 8241SOL    HW225408   6.882   6.463   3.895 -0.0046 -0.5438 -0.6809
 8242SOL     OW25409   5.634   6.742   5.794 -0.2483 -0.1592  0.2623
 8242SOL    HW125410   5.694   6.817   5.802 -0.6294  0.0786  0.9638
 8242SOL    HW225411   5.624   6.710   5.883 -0.5591 -0.6845  0.0427
 8243SOL     OW25412   1.827   1.107   4.763  0.0930  0.3248  0.3406
 8243SOL    HW125413   1.879   1.087   4.840 -1.4973  0.5152  1.5226
 8243SOL    HW225414   1.750   1.152   4.797 -2.1186 -2.1723 -0.9792
 8244SOL     OW25415   2.273   1.581   1.423  0.0493 -0.2164 -0.2958
 8244SOL    HW125416   2.239   1.646   1.486 -0.5383 -0.2870 -0.5317
 8244SOL    HW225417   2.366   1.601   1.416  0.0323  0.0834  0.2577
 8245SOL     OW25418   2.805   6.837   5.922 -0.0340 -0.2177 -0.5231
 8245SOL    HW125419   2.831   6.786   5.846  0.3511 -2.8336  1.2677
 8245SOL    HW225420   2.886   6.856   5.968 -0.0600  2.7867 -1.4578
 8246SOL     OW25421   5.388   2.069   5.231 -0.1264 -0.1467  1.2627
 8246SOL    HW125422   5.398   2.085   5.324 -0.5505  1.4307  1.0622
 8246SOL    HW225423   5.353   1.980   5.226  0.9920 -0.6827  2.5329
 8247SOL     OW25424   6.375   6.754   2.795  0.7313 -0.9219 -0.1454
 8247SOL    HW125425   6.325   6.676   2.816 -1.2021 -0.8853 -3.9206
 8247SOL    HW225426   6.466   6.728   2.807  0.0995 -1.9688  3.8146
 8248SOL     OW25427   4.017   2.838   3.628  0.1392  0.1907 -0.2430
 8248SOL    HW125428   4.071   2.761   3.610 -0.1013  0.0744 -0.4816
 8248SOL    HW225429   4.069   2.890   3.689 -0.7063 -1.3290  1.9177
 8249SOL     OW25430   4.890   2.438   5.808  0.2227  0.1933  0.3282
 8249SOL    HW125431   4.968   2.383   5.821  0.3998  0.7503  1.8462
 8249SOL    HW225432   4.902   2.511   5.870 -0.3439  1.5844 -1.1394
 8250SOL     OW25433   6.529   5.546   1.036 -0.3684 -0.1797  0.1503
 8250SOL    HW125434   6.600   5.596   1.075  0.2806  1.2813 -2.6377
 8250SOL    HW225435   6.569   5.463   1.010  0.8262  1.1504 -2.6435
 8251SOL     OW25436   4.106   5.391   4.020  0.3309  0.6337 -0.2303
 8251SOL    HW125437   4.019   5.364   3.992  0.9287 -0.8645 -0.7806
 8251SOL    HW225438   4.093   5.474   4.065 -1.3833  0.3827 -0.2137
 8252SOL     OW25439   4.780   2.646   3.601  0.3715  0.2744 -0.2866
 8252SOL    HW125440   4.864   2.647   3.646 -0.7802 -0.3384  2.0213
 8252SOL    HW225441   4.720   2.692   3.659 -1.6234 -2.1588 -0.2263
 8253SOL     OW25442   4.777   6.496   5.088 -0.1893  0.7359  0.4885
 8253SOL    HW125443   4.737   6.501   5.001  2.2873 -1.8771 -0.9776
 8253SOL    HW225444   4.721   6.435   5.137 -1.3936  1.9476  0.6977
 8254SOL     OW25445   6.089   2.537   2.445  0.2884  0.0611  0.1019
 8254SOL    HW125446   6.119   2.503   2.529 -1.1050  0.1717  0.6701
 8254SOL    HW225447   6.033   2.467   2.410 -0.6480  0.7731  0.1532
 8255SOL     OW25448   4.510   2.904   2.488 -0.2546 -0.4507 -0.2799
 8255SOL    HW125449   4.436   2.848   2.512 -1.6557  1.2839 -0.3310
 8255SOL    HW225450   4.524   2.960   2.564  0.3472 -0.0648 -0.6639
 8256SOL     OW25451   3.291   1.185   2.389  0.5915  0.3576 -0.4360
 8256SOL    HW125452   3.357   1.118   2.404 -1.6011 -1.7182  0.6374
 8256SOL    HW225453   3.302   1.246   2.462  0.7196 -0.4811  0.2589
 8257SOL     OW25454   4.603   5.733   6.190  0.7414  0.3365 -0.8790
 8257SOL    HW125455   4.672   5.682   6.150  0.9659 -1.5545  1.6825
 8257SOL    HW225456   4.523   5.682   6.176  0.2193  1.3384 -1.7649
 8258SOL     OW25457   4.644   4.831   4.526 -0.3371  0.3242 -0.0611
 8258SOL    HW125458   4.673   4.764   4.588  0.9751  1.1281  0.2189
 8258SOL    HW225459   4.621   4.782   4.447 -0.8808 -0.5957  0.6443
 8259SOL     OW25460   6.667   5.857   0.590  0.3528  0.6093  0.5722
 8259SOL    HW125461   6.741   5.797   0.579  0.1213  0.6478 -1.8369
 8259SOL    HW225462   6.595   5.801   0.620  0.0504 -0.4900 -1.9488
 8260SOL     OW25463   0.633   6.819   3.083 -0.2135 -0.3283  0.1052
 8260SOL    HW125464   0.726   6.802   3.094  0.5631  2.7604 -0.5744
 8260SOL    HW225465   0.602   6.748   3.026  2.2308 -0.3196 -1.3815
 8261SOL     OW25466   2.788   2.650   6.014  0.2018 -0.1274 -0.2906
 8261SOL    HW125467   2.765   2.605   6.095  0.9288  0.2430  0.1279
 8261SOL    HW225468   2.884   2.647   6.011  0.3440  2.1523  0.1945
 8262SOL     OW25469   5.030   0.408   0.511  0.6096 -0.1721 -0.3171
 8262SOL    HW125470   5.050   0.478   0.574  1.4332 -0.7763  0.1141
 8262SOL    HW225471   5.022   0.454   0.427 -0.6463  0.6589  0.2221
 8263SOL     OW25472   0.379   1.042   2.747  0.1028  0.5177  0.2448
 8263SOL    HW125473   0.414   1.017   2.832 -2.1966  1.0361  1.4002
 8263SOL    HW225474   0.447   1.014   2.685  1.5331 -0.4969  2.1526
 8264SOL     OW25475   0.863   5.266   6.587 -0.3281 -0.0483 -0.0189
 8264SOL    HW125476   0.819   5.182   6.574  1.5212 -1.1121  0.2058
 8264SOL    HW225477   0.877   5.300   6.499  0.2799 -0.7463 -0.2033
 8265SOL     OW25478   6.045   4.845   2.788 -0.3551 -0.0599  0.3070
 8265SOL    HW125479   5.967   4.799   2.819  0.1972 -0.1082  1.7225
 8265SOL    HW225480   6.064   4.909   2.857  0.0853  0.8804 -0.6613
 8266SOL     OW25481   1.500   1.628   4.552 -0.3934  0.2330  0.3204
 8266SOL    HW125482   1.567   1.568   4.584  1.6957  2.4887  0.4968
 8266SOL    HW225483   1.448   1.650   4.629 -0.1967 -0.1844  0.5754
 8267SOL     OW25484   1.357   1.441   0.836  0.1884  0.1245  0.0040
 8267SOL    HW125485   1.425   1.391   0.791  0.5714  1.3139 -0.7961
 8267SOL    HW225486   1.399   1.524   0.859 -0.1962 -0.1951  2.0243
 8268SOL     OW25487   4.468   0.950   3.095 -0.4285  0.6980 -0.2946
 8268SOL    HW125488   4.402   1.015   3.121 -1.9071 -0.5243 -0.8280
 8268SOL    HW225489   4.515   0.992   3.023 -0.6141  1.5951  0.0881
 8269SOL     OW25490   4.733   4.202   2.598 -0.3988  0.3461 -0.2799
 8269SOL    HW125491   4.739   4.298   2.600  0.8037  0.3117 -1.0147
 8269SOL    HW225492   4.770   4.178   2.513  0.7930 -0.8597  0.5395
 8270SOL     OW25493   2.827   2.036   3.563  0.4880 -0.4449 -0.3548
 8270SOL    HW125494   2.912   2.077   3.580  0.3195 -0.3366  0.2429
 8270SOL    HW225495   2.795   2.010   3.650  0.3267 -1.3168 -0.6578
 8271SOL     OW25496   6.508   5.498   4.286 -0.0728 -0.4214 -0.1731
 8271SOL    HW125497   6.587   5.453   4.316 -1.1623 -2.0898  0.3154
 8271SOL    HW225498   6.476   5.444   4.214  1.0391  2.0889 -2.7077
 8272SOL     OW25499   6.556   6.628   1.431  0.4449  0.1888  0.0247
 8272SOL    HW125500   6.631   6.578   1.462  0.0970 -0.1727  0.2951
 8272SOL    HW225501   6.507   6.568   1.375  0.1583  0.2993  0.1515
 8273SOL     OW25502   2.090   0.258   1.276  0.1694 -0.5801  0.1321
 8273SOL    HW125503   2.001   0.292   1.281  0.4070 -0.0025  0.5418
 8273SOL    HW225504   2.131   0.309   1.206  0.1414 -0.9519 -0.1623
 8274SOL     OW25505   3.671   2.782   3.108 -0.1109  0.3714 -0.2701
 8274SOL    HW125506   3.640   2.834   3.034 -0.4849  0.6474  0.0821
 8274SOL    HW225507   3.644   2.830   3.185 -0.3002 -0.2489  0.0602
 8275SOL     OW25508   5.439   0.285   4.944 -0.3877 -0.6350 -0.7209
 8275SOL    HW125509   5.408   0.367   4.906 -0.0698 -0.0449  0.2875
 8275SOL    HW225510   5.365   0.254   4.996  0.0340 -0.1892  0.1551
 8276SOL     OW25511   0.943   5.138   3.033 -0.1301 -0.2991 -0.0813
 8276SOL    HW125512   0.865   5.176   2.993  0.2610  1.9441  1.0637
 8276SOL    HW225513   1.013   5.157   2.970 -0.3678 -1.7240 -0.8061
 8277SOL     OW25514   6.402   6.717   3.419 -0.1022  0.5219  0.1539
 8277SOL    HW125515   6.404   6.802   3.374  1.4180  0.9600  0.9856
 8277SOL    HW225516   6.474   6.668   3.380  1.4506  1.0184  2.2109
 8278SOL     OW25517   4.652   6.270   3.819 -0.6419  0.5062 -0.2614
 8278SOL    HW125518   4.665   6.232   3.906  0.0536  1.7487  0.2028
 8278SOL    HW225519   4.700   6.353   3.821 -2.8105  1.8800 -0.9124
 8279SOL     OW25520   3.059   5.904   4.444 -0.0341  0.4479  0.0074
 8279SOL    HW125521   3.147   5.874   4.420 -0.0201 -0.4374  1.0688
 8279SOL    HW225522   3.075   5.979   4.502 -0.0364  1.4460 -1.2405
 8280SOL     OW25523   4.062   3.280   1.284  0.2894 -0.1966  0.0870
 8280SOL    HW125524   4.082   3.222   1.357  0.5998 -0.9496 -0.5891
 8280SOL    HW225525   3.967   3.279   1.278  0.3104 -0.9497 -0.1724
 8281SOL     OW25526   4.211   2.128   3.308  0.0284 -0.1182 -0.0703
 8281SOL    HW125527   4.220   2.223   3.304 -0.9946  0.0177  0.6314
 8281SOL    HW225528   4.302   2.096   3.309  0.3844  0.8075 -0.8479
 8282SOL     OW25529   6.729   6.446   1.548 -0.2888  0.0180  0.0973
 8282SOL    HW125530   6.817   6.454   1.585  0.1272 -1.2936 -0.5410
 8282SOL    HW225531   6.671   6.454   1.624  0.3561  0.9736  0.5181
 8283SOL     OW25532   5.430   2.686   1.964  0.0239 -0.1466  0.2077
 8283SOL    HW125533   5.494   2.755   1.948  0.8967 -1.0971 -0.4633
 8283SOL    HW225534   5.423   2.639   1.881  0.2141 -1.5084  0.9335
 8284SOL     OW25535   3.440   5.585   5.268 -0.1597  0.5681  0.8921
 8284SOL    HW125536   3.362   5.537   5.294  0.1543 -0.5608 -0.1625
 8284SOL    HW225537   3.481   5.530   5.202  1.1488  1.4837  0.9040
 8285SOL     OW25538   2.865   1.708   4.117  0.3512  0.1642 -0.3447
 8285SOL    HW125539   2.869   1.614   4.101  2.2295 -0.0030  0.7918
 8285SOL    HW225540   2.882   1.748   4.032  0.3798 -0.5312 -0.6709
 8286SOL     OW25541   2.836   0.410   0.918  0.2980  0.3463  0.6280
 8286SOL    HW125542   2.829   0.315   0.923 -3.1749  0.4383 -0.1182
 8286SOL    HW225543   2.895   0.426   0.845 -1.5879 -1.3511 -1.4197
 8287SOL     OW25544   2.055   3.724   0.976  0.1051  0.5142  0.1952
 8287SOL    HW125545   2.021   3.784   1.043  0.4012  0.4871  0.3738
 8287SOL    HW225546   2.150   3.732   0.983  0.1388  0.6011 -0.3064
 8288SOL     OW25547   6.813   4.143   5.171  0.0674  0.3550  0.4768
 8288SOL    HW125548   6.907   4.159   5.179 -0.0237  0.6141  1.0203
 8288SOL    HW225549   6.778   4.153   5.259 -0.1840 -1.6924  0.6675
 8289SOL     OW25550   0.729   6.784   5.448  0.1681  0.3971  0.4041
 8289SOL    HW125551   0.731   6.689   5.457  1.0277  0.2597 -0.8857
 8289SOL    HW225552   0.671   6.800   5.373 -0.3963  0.9302  0.9471
 8290SOL     OW25553   6.316   2.282   3.517 -0.3595  0.1424 -0.0031
 8290SOL    HW125554   6.352   2.369   3.505 -3.3490  1.4860 -0.1047
 8290SOL    HW225555   6.380   2.236   3.571  1.1569  2.4862  0.2961
 8291SOL     OW25556   2.400   3.725   3.793  0.2275  1.1391  0.0432
 8291SOL    HW125557   2.353   3.675   3.860  0.7400 -1.5966 -1.4766
 8291SOL    HW225558   2.338   3.731   3.720  0.6712  1.5328 -0.3025
 8292SOL     OW25559   5.953   1.514   2.718 -0.3292  0.5218 -0.4962
 8292SOL    HW125560   6.003   1.508   2.636 -0.8455  0.1566 -0.7838
 8292SOL    HW225561   6.000   1.457   2.779 -0.5786 -0.0846 -0.8649
 8293SOL     OW25562   1.821   3.476   1.436 -0.5700 -0.7088 -0.3239
 8293SOL    HW125563   1.870   3.557   1.449  0.1715 -1.1673 -0.2578
 8293SOL    HW225564   1.778   3.488   1.351 -0.4276 -0.2704 -0.3391
 8294SOL     OW25565   1.909   1.528   4.693 -0.5796  0.0787 -0.3363
 8294SOL    HW125566   1.888   1.509   4.785 -0.0336 -0.4493 -0.3145
 8294SOL    HW225567   1.993   1.485   4.679 -1.7881 -1.9751 -1.7626
 8295SOL     OW25568   4.247   4.510   5.003  0.3349  0.0211 -0.2229
 8295SOL    HW125569   4.340   4.494   4.987  0.2493 -1.2728  0.5063
 8295SOL    HW225570   4.206   4.425   4.991 -0.7926  0.6192 -0.7123
 8296SOL     OW25571   3.685   4.521   5.449 -0.6451  0.3602  0.3036
 8296SOL    HW125572   3.713   4.435   5.418  1.2933  1.1117 -0.1674
 8296SOL    HW225573   3.651   4.564   5.371  1.3052  1.1071 -0.1964
 8297SOL     OW25574   4.199   3.684   2.411 -0.5313 -0.8009  0.3125
 8297SOL    HW125575   4.192   3.598   2.370 -0.7751 -1.0280  0.8166
 8297SOL    HW225576   4.214   3.665   2.504  0.0410 -0.2996  0.3310
 8298SOL     OW25577   1.172   0.329   5.798  0.3250 -0.8405 -0.1730
 8298SOL    HW125578   1.264   0.357   5.792 -0.0166 -0.0145 -1.9099
 8298SOL    HW225579   1.122   0.407   5.776 -0.8014 -1.4745  0.0902
 8299SOL     OW25580   3.094   0.028   3.317 -0.1394 -0.3026 -0.4443
 8299SOL    HW125581   3.110   0.069   3.231  1.8745  0.9287  0.4462
 8299SOL    HW225582   3.101  -0.066   3.300 -0.7981 -0.1296 -1.8112
 8300SOL     OW25583   2.649   4.194   6.759  0.1127 -0.3035  0.2228
 8300SOL    HW125584   2.599   4.120   6.792  0.6422 -0.2124  1.2663
 8300SOL    HW225585   2.590   4.269   6.767 -0.3128 -0.5357 -0.5465
 8301SOL     OW25586   2.651   0.941   2.665  0.5320  0.2314 -0.1930
 8301SOL    HW125587   2.618   0.851   2.655  1.4763 -0.1929  0.3639
 8301SOL    HW225588   2.596   0.993   2.607  1.0413 -0.9784 -1.8441
 8302SOL     OW25589   4.734   3.410   2.326  0.1642  0.6793  0.0340
 8302SOL    HW125590   4.725   3.327   2.371 -1.5211  1.7320  1.8025
 8302SOL    HW225591   4.798   3.459   2.379  2.2651  0.0876 -1.7955
 8303SOL     OW25592   6.424   3.139   0.669  0.4597 -0.8247  0.6641
 8303SOL    HW125593   6.359   3.179   0.727  1.8299 -0.9294  2.3296
 8303SOL    HW225594   6.388   3.152   0.581  0.0830  2.7918  1.1934
 8304SOL     OW25595   3.555   2.704   6.795  0.0717  0.2952  0.1982
 8304SOL    HW125596   3.485   2.768   6.800  0.1621  0.3254  1.3840
 8304SOL    HW225597   3.611   2.724   6.870  1.0069 -0.1268 -0.3635
 8305SOL     OW25598   4.880   0.011   0.686  0.1536 -0.2875  0.6671
 8305SOL    HW125599   4.843   0.027   0.774 -0.5982 -0.8222  0.4626
 8305SOL    HW225600   4.888   0.098   0.648  0.7075 -0.0283  1.3517
 8306SOL     OW25601   4.749   1.736   6.314 -0.1639  0.5146 -0.1104
 8306SOL    HW125602   4.794   1.782   6.384 -0.2030 -0.1234  0.3460
 8306SOL    HW225603   4.819   1.703   6.257 -0.0944  0.3252  0.0846
 8307SOL     OW25604   3.728   4.961   3.039 -0.2056 -0.0978 -0.2235
 8307SOL    HW125605   3.725   4.943   2.946  1.3475 -0.1456 -0.2919
 8307SOL    HW225606   3.705   4.878   3.081  0.1088 -0.3594 -0.5645
 8308SOL     OW25607   6.714   5.948   4.685 -0.1174 -0.0215 -0.8462
 8308SOL    HW125608   6.672   5.967   4.602 -1.7742  2.7652  0.4892
 8308SOL    HW225609   6.652   5.892   4.732 -0.7165  1.1241 -0.2516
 8309SOL     OW25610   1.703   5.548   4.658  0.4738  0.0148  0.3191
 8309SOL    HW125611   1.786   5.585   4.689  0.7934  0.6015 -1.1790
 8309SOL    HW225612   1.730   5.480   4.596 -0.0794 -3.0125  3.1363
 8310SOL     OW25613   5.641   2.620   4.617 -0.5346  0.0313 -0.3160
 8310SOL    HW125614   5.724   2.591   4.655 -1.3238 -2.1024 -0.1267
 8310SOL    HW225615   5.665   2.694   4.561  1.3775 -0.0821  0.2971
 8311SOL     OW25616   3.836   6.829   3.115 -0.4558  0.0976  0.2107
 8311SOL    HW125617   3.778   6.791   3.049 -0.3061  1.1653 -0.5622
 8311SOL    HW225618   3.895   6.758   3.138 -1.7376 -0.8697  0.6490
 8312SOL     OW25619   2.021   2.019   5.984 -0.2429 -0.4496 -0.2911
 8312SOL    HW125620   1.957   2.075   6.028  0.5434  0.9930 -0.9079
 8312SOL    HW225621   2.047   2.068   5.906  1.4673 -1.0672 -0.1644
 8313SOL     OW25622   5.337   2.592   6.220  0.4095  0.6661  0.1398
 8313SOL    HW125623   5.374   2.520   6.168 -0.0336  0.2014  0.4614
 8313SOL    HW225624   5.267   2.551   6.272 -0.0972  1.4011  0.0494
 8314SOL     OW25625   5.246   4.560   6.577 -0.2416 -0.1374  0.1542
 8314SOL    HW125626   5.313   4.609   6.625 -0.3501 -0.8578  1.0763
 8314SOL    HW225627   5.261   4.469   6.602 -0.1737 -0.5683 -1.3639
 8315SOL     OW25628   3.639   1.853   0.759  0.2587 -0.2928 -0.2666
 8315SOL    HW125629   3.728   1.856   0.794  0.5346 -2.1975 -0.7087
 8315SOL    HW225630   3.595   1.926   0.802  1.8776  0.3663  0.3743
 8316SOL     OW25631   0.714   1.015   1.621 -0.5962 -0.8585  0.0805
 8316SOL    HW125632   0.750   0.929   1.641 -1.4624 -1.1819  0.2722
 8316SOL    HW225633   0.625   0.998   1.590 -0.8560 -0.0252  0.3323
 8317SOL     OW25634   5.911   6.509   0.164  0.2999 -0.3692  0.3105
 8317SOL    HW125635   5.893   6.569   0.237  0.0035 -1.0347  0.7940
 8317SOL    HW225636   5.923   6.566   0.089  0.7610  0.3401  0.9100
 8318SOL     OW25637   0.898   5.446   2.039  0.0886  0.1033 -0.8317
 8318SOL    HW125638   0.811   5.419   2.070  0.0253  1.9581  0.8036
 8318SOL    HW225639   0.913   5.393   1.961 -1.3291 -2.2108  0.3715
 8319SOL     OW25640   5.472   5.998   2.302  0.1922  0.1667 -0.7462
 8319SOL    HW125641   5.559   5.962   2.285  0.1316  0.0779 -0.8735
 8319SOL    HW225642   5.473   6.020   2.395  0.8764  1.5756 -1.0538
 8320SOL     OW25643   3.627   4.900   1.486  0.2439  0.0916  0.2158
 8320SOL    HW125644   3.632   4.969   1.419 -1.2858  0.3289  0.3067
 8320SOL    HW225645   3.540   4.861   1.475  0.6560 -1.0870  0.8966
 8321SOL     OW25646   6.011   5.771   6.706 -0.1502 -0.1376  0.6223
 8321SOL    HW125647   6.046   5.788   6.793 -1.9928  1.3925  1.1397
 8321SOL    HW225648   5.941   5.836   6.695  0.6362  0.3474 -2.3893
 8322SOL     OW25649   2.572   2.901   1.142  0.2727 -0.6854  0.0160
 8322SOL    HW125650   2.517   2.953   1.083  0.8833  0.8147  0.7305
 8322SOL    HW225651   2.639   2.962   1.173  1.0587 -1.9195  0.8519
 8323SOL     OW25652   0.919   5.562   1.549  0.0015 -0.3015 -0.0297
 8323SOL    HW125653   0.863   5.575   1.626  0.5284  0.7140  0.1966
 8323SOL    HW225654   0.941   5.650   1.520  1.0881 -0.6804 -0.4017
 8324SOL     OW25655   6.698   0.023   4.702 -0.1156 -0.3447  0.1994
 8324SOL    HW125656   6.738   0.074   4.632  0.4497 -0.5236  0.3890
 8324SOL    HW225657   6.771  -0.022   4.744 -0.1480  1.4360  2.3171
 8325SOL     OW25658   1.132   2.861   4.280 -0.6063 -0.5958  0.5221
 8325SOL    HW125659   1.069   2.899   4.342 -1.2607 -0.5483 -0.1599
 8325SOL    HW225660   1.196   2.930   4.265  0.1043 -0.9292  1.8779
 8326SOL     OW25661   1.939   4.006   2.387 -0.3374 -0.0365  0.0883
 8326SOL    HW125662   1.913   3.930   2.335  0.8378 -0.2920 -0.1396
 8326SOL    HW225663   2.025   4.031   2.354 -0.2092  0.7026  0.9198
 8327SOL     OW25664   0.355   1.842   3.031 -0.0554 -0.1838 -0.4718
 8327SOL    HW125665   0.285   1.892   2.990  0.9937  0.5558 -1.4475
 8327SOL    HW225666   0.315   1.803   3.108 -1.4193  0.5535 -0.7702
 8328SOL     OW25667   6.127   6.742   5.676 -0.2131 -0.2979 -0.0963
 8328SOL    HW125668   6.205   6.687   5.682  1.0224  1.5300  2.7747
 8328SOL    HW225669   6.056   6.686   5.708  0.5445 -1.0043  0.3939
 8329SOL     OW25670   5.226   3.257   0.438 -0.3948 -0.3294  0.7096
 8329SOL    HW125671   5.160   3.326   0.430  0.2662  0.4526  1.7838
 8329SOL    HW225672   5.227   3.235   0.531 -0.7390 -1.9722  0.3577
 8330SOL     OW25673   1.093   3.067   2.078 -0.8199 -0.0501 -0.1204
 8330SOL    HW125674   1.102   3.162   2.079 -0.3331 -0.0916 -0.1561
 8330SOL    HW225675   1.183   3.035   2.069 -0.8989 -0.5329  0.7182
 8331SOL     OW25676   2.847   6.416   2.076  0.3239  0.5300  0.0855
 8331SOL    HW125677   2.921   6.400   2.018  1.8875  2.7728  1.2951
 8331SOL    HW225678   2.806   6.331   2.088  1.1389 -0.3461 -2.6472
 8332SOL     OW25679   5.105   1.585   5.453  0.2496  0.1314 -0.0584
 8332SOL    HW125680   5.048   1.580   5.376  0.9637 -0.6362 -0.5583
 8332SOL    HW225681   5.057   1.538   5.521 -0.4399  0.9173  0.0167
 8333SOL     OW25682   5.260   3.012   0.322 -0.4594 -0.0437  0.6413
 8333SOL    HW125683   5.237   3.097   0.360 -1.1343  0.2236 -0.3335
 8333SOL    HW225684   5.197   2.951   0.362 -1.9712  0.4398 -0.8989
 8334SOL     OW25685   5.656   1.973   6.038  0.2248  0.3708  0.2668
 8334SOL    HW125686   5.561   1.981   6.050  0.0039  1.1977 -1.6748
 8334SOL    HW225687   5.693   2.044   6.091 -0.5087  2.2346 -1.5697
 8335SOL     OW25688   3.334   6.837   5.497 -0.2542 -0.3830  0.2166
 8335SOL    HW125689   3.299   6.927   5.495  0.4618 -0.1135 -1.1828
 8335SOL    HW225690   3.417   6.843   5.451  0.1949 -1.6261  0.8388
 8336SOL     OW25691   1.384   3.985   6.007 -0.6027 -0.2227 -0.0910
 8336SOL    HW125692   1.419   3.897   5.990 -1.8008 -0.6074 -0.6585
 8336SOL    HW225693   1.328   3.974   6.084  0.6166  0.4324  0.9348
 8337SOL     OW25694   1.848   6.567   3.179  0.3559 -0.1891  0.4180
 8337SOL    HW125695   1.785   6.495   3.177 -0.2565  0.3470 -0.4633
 8337SOL    HW225696   1.925   6.530   3.223  0.5666 -1.8015 -1.1735
 8338SOL     OW25697   4.249   3.904   1.670  0.0706 -0.3076 -0.2343
 8338SOL    HW125698   4.317   3.840   1.689 -0.0206 -0.1641  0.6218
 8338SOL    HW225699   4.189   3.899   1.745  0.1889  0.9221 -0.0231
 8339SOL     OW25700   3.517   3.628   0.238 -0.5441  0.1541 -0.1286
 8339SOL    HW125701   3.460   3.561   0.275 -1.9221  1.4797  0.2749
 8339SOL    HW225702   3.467   3.666   0.166  0.5918  0.1404 -0.9607
 8340SOL     OW25703   4.186   6.180   5.663  0.5025  0.5022 -0.2142
 8340SOL    HW125704   4.152   6.107   5.716  3.4921  0.9306  2.5518
 8340SOL    HW225705   4.143   6.258   5.699 -0.4810  0.4543 -1.2184
 8341SOL     OW25706   2.106   5.361   3.996  0.1811  0.0835 -0.0831
 8341SOL    HW125707   2.064   5.276   3.981  0.3992  0.1356 -1.0756
 8341SOL    HW225708   2.172   5.367   3.927  0.5230  0.8352  0.3002
 8342SOL     OW25709   3.459   4.025   1.480  0.2335  0.3469  0.2007
 8342SOL    HW125710   3.546   4.035   1.517  0.8515 -0.8447 -0.8823
 8342SOL    HW225711   3.400   4.038   1.555  1.3939 -1.1302  1.4388
 8343SOL     OW25712   4.514   4.790   3.924 -0.2137 -0.3491  0.1968
 8343SOL    HW125713   4.571   4.718   3.955 -0.3606 -0.3617  0.4423
 8343SOL    HW225714   4.566   4.834   3.857 -0.9440 -1.9989 -1.5477
 8344SOL     OW25715   0.087   3.047   0.491  0.4571 -0.2807 -0.3257
 8344SOL    HW125716   0.137   3.089   0.561 -0.5820 -1.4377  1.1850
 8344SOL    HW225717   0.104   2.954   0.501 -0.0533 -0.5069 -1.3616
 8345SOL     OW25718   5.597   5.912   1.116 -1.0505 -0.3623  0.1344
 8345SOL    HW125719   5.647   5.831   1.112  2.4044  1.6265 -0.1267
 8345SOL    HW225720   5.571   5.930   1.026  1.2385  0.4902 -0.4214
 8346SOL     OW25721   5.992   1.216   1.649  0.8055  0.4138 -0.1920
 8346SOL    HW125722   5.932   1.290   1.635  0.6421  0.0364 -1.6400
 8346SOL    HW225723   6.015   1.222   1.742 -1.6292  0.4495  0.4920
 8347SOL     OW25724   3.490   5.438   0.634 -0.0315  0.3416  0.1567
 8347SOL    HW125725   3.417   5.392   0.677  0.8372 -0.0600  1.2346
 8347SOL    HW225726   3.485   5.527   0.670  0.6201  0.0384  1.0385
 8348SOL     OW25727   5.925   2.236   3.995  0.0723 -0.2989 -0.1344
 8348SOL    HW125728   5.995   2.282   4.041 -0.8427  0.5841  0.4316
 8348SOL    HW225729   5.882   2.304   3.943 -0.5692 -0.7498 -0.2075
 8349SOL     OW25730   3.619   0.575   1.605  0.9443  0.0570  0.1327
 8349SOL    HW125731   3.619   0.581   1.700  0.4132  1.8513  0.0577
 8349SOL    HW225732   3.526   0.582   1.580  1.0985 -0.1420 -0.5194
 8350SOL     OW25733   0.649   4.624   4.319  0.0467  0.1493 -0.4010
 8350SOL    HW125734   0.711   4.630   4.392 -1.0065  2.9380  0.4115
 8350SOL    HW225735   0.563   4.637   4.360 -0.7512 -0.1473 -1.9184
 8351SOL     OW25736   3.029   3.898   5.381  0.4761  0.4466  1.0503
 8351SOL    HW125737   3.039   3.852   5.464 -0.5589  0.2105  1.0538
 8351SOL    HW225738   3.015   3.989   5.405  1.5962  0.6289  1.0730
 8352SOL     OW25739   2.786   6.368   5.612 -0.3538 -0.5510 -0.2770
 8352SOL    HW125740   2.717   6.323   5.662  0.7815 -0.2823  1.6464
 8352SOL    HW225741   2.854   6.302   5.602  0.1915 -0.0646  0.1717
 8353SOL     OW25742   4.903   0.651   1.560  0.1602  0.2229 -0.1882
 8353SOL    HW125743   4.862   0.571   1.527  0.2860  0.1357 -0.1331
 8353SOL    HW225744   4.864   0.665   1.646  2.4355 -1.5546  1.2333
 8354SOL     OW25745   3.549   6.734   0.492 -0.2454 -0.3614  0.2587
 8354SOL    HW125746   3.527   6.739   0.399  1.4978  0.2614 -0.1554
 8354SOL    HW225747   3.502   6.808   0.531  1.1324  1.0325 -0.6122
 8355SOL     OW25748   0.558   1.827   3.814 -0.3509 -0.1029  0.2648
 8355SOL    HW125749   0.629   1.889   3.800 -0.2748 -0.0390  0.8803
 8355SOL    HW225750   0.515   1.819   3.729 -0.6365  1.1141  0.2792
 8356SOL     OW25751   3.864   2.138   4.358 -0.3854 -0.4618 -0.1828
 8356SOL    HW125752   3.930   2.192   4.400 -0.2785 -1.9675  1.7184
 8356SOL    HW225753   3.782   2.186   4.368 -0.3324 -0.6975  1.6858
 8357SOL     OW25754   6.873   1.737   3.136  0.6034 -0.3978 -0.0017
 8357SOL    HW125755   6.890   1.757   3.044  0.2014 -1.2596 -0.2761
 8357SOL    HW225756   6.945   1.679   3.162  1.4994  0.9664  0.6465
 8358SOL     OW25757   0.852   2.239   3.907  0.6916 -0.2010 -0.3071
 8358SOL    HW125758   0.946   2.226   3.895  0.8267 -0.6841  1.0862
 8358SOL    HW225759   0.811   2.169   3.856  1.0639  0.0975 -1.0358
 8359SOL     OW25760   5.163   6.853   4.807 -0.3097 -0.0226 -0.0840
 8359SOL    HW125761   5.221   6.836   4.733 -0.9864 -1.2395 -0.3529
 8359SOL    HW225762   5.099   6.782   4.805 -1.6282  1.0929  0.3998
 8360SOL     OW25763   2.406   2.549   0.553  0.2122  0.3598  0.0580
 8360SOL    HW125764   2.466   2.521   0.483 -0.2296  0.5552 -0.4060
 8360SOL    HW225765   2.457   2.613   0.603  1.5897 -1.8666  1.7259
 8361SOL     OW25766   2.801   3.560   1.978 -0.0965  0.1505 -0.0891
 8361SOL    HW125767   2.857   3.518   1.913 -1.2879 -0.2737 -0.8845
 8361SOL    HW225768   2.718   3.513   1.972 -1.1949  2.0210 -0.3658
 8362SOL     OW25769   5.053   3.897   1.313  0.0168 -0.2678 -0.0881
 8362SOL    HW125770   5.023   3.806   1.309 -0.4718 -0.1419  0.6062
 8362SOL    HW225771   5.029   3.933   1.227 -2.0068 -0.1232  0.4888
 8363SOL     OW25772   2.464   5.978   6.496 -0.0300 -0.1973  0.5044
 8363SOL    HW125773   2.410   5.901   6.509  1.6416 -1.5202  0.0107
 8363SOL    HW225774   2.426   6.044   6.554 -1.7653 -1.2353  0.6063
 8364SOL     OW25775   0.831   2.533   2.638 -0.1925  0.3991 -0.1336
 8364SOL    HW125776   0.803   2.442   2.627 -0.4057  0.2235  1.6114
 8364SOL    HW225777   0.753   2.584   2.616 -0.0384  0.1923 -1.2331
 8365SOL     OW25778   1.340   6.484   0.580 -0.4032  0.4850  0.3280
 8365SOL    HW125779   1.286   6.509   0.505  0.6423  0.4294 -0.4699
 8365SOL    HW225780   1.306   6.536   0.652 -2.3677 -0.5139  0.1782
 8366SOL     OW25781   0.885   4.858   2.996 -0.0907 -0.8188 -0.1197
 8366SOL    HW125782   0.806   4.870   2.944  0.6296 -0.1644 -1.0956
 8366SOL    HW225783   0.915   4.947   3.015  0.9040 -1.0525 -0.5424
 8367SOL     OW25784   5.322   1.513   6.538  0.3227 -0.7027 -0.2066
 8367SOL    HW125785   5.407   1.554   6.555  1.1425 -1.8533 -1.3552
 8367SOL    HW225786   5.279   1.511   6.623  1.7858 -0.8333  0.5594
 8368SOL     OW25787   0.121   1.461   2.590  0.1062 -0.5329  0.3634
 8368SOL    HW125788   0.179   1.398   2.548 -0.3670 -1.2593  0.7752
 8368SOL    HW225789   0.154   1.546   2.563 -0.1419 -0.9635 -1.4111
 8369SOL     OW25790   1.306   3.780   4.737 -0.2549  0.2661  0.1487
 8369SOL    HW125791   1.344   3.788   4.650  0.5452 -1.7652  0.2591
 8369SOL    HW225792   1.374   3.811   4.797 -0.3650  0.5695  0.1169
 8370SOL     OW25793   6.591   1.770   0.159  0.0466  0.1207  0.5587
 8370SOL    HW125794   6.565   1.862   0.168  2.1714  0.9669 -1.0508
 8370SOL    HW225795   6.660   1.771   0.092 -0.9935 -2.8989 -0.7130
 8371SOL     OW25796   0.579   1.366   3.368 -0.4451 -0.1770 -0.3645
 8371SOL    HW125797   0.650   1.386   3.429 -1.1991 -0.6725  0.7099
 8371SOL    HW225798   0.602   1.413   3.288  0.2300  1.0611  0.5195
 8372SOL     OW25799   0.141   3.583   1.808  0.2600  0.4507 -0.0172
 8372SOL    HW125800   0.059   3.595   1.856 -0.1965 -0.7616 -0.4466
 8372SOL    HW225801   0.200   3.541   1.871  0.3544  0.7719  0.1097
 8373SOL     OW25802   4.084   2.479   0.501  0.3359  0.8628 -0.0452
 8373SOL    HW125803   4.049   2.548   0.558 -0.5519 -0.7842  1.5164
 8373SOL    HW225804   4.010   2.420   0.488  0.8741  0.5708 -1.9667
 8374SOL     OW25805   2.667   2.762   3.168 -0.0789 -0.2929  0.1825
 8374SOL    HW125806   2.707   2.831   3.114  0.1540 -0.0649  0.6360
 8374SOL    HW225807   2.580   2.750   3.131 -0.3372  0.6530  0.4512
 8375SOL     OW25808   1.871   1.429   4.267 -0.3018 -0.1086  0.2858
 8375SOL    HW125809   1.811   1.503   4.276  0.4608  0.4335  1.1225
 8375SOL    HW225810   1.828   1.358   4.316 -1.2328 -0.3728 -0.8663
 8376SOL     OW25811   1.213   0.620   5.343  0.0835  0.0106  0.5475
 8376SOL    HW125812   1.215   0.602   5.437 -0.1841 -0.8791  0.3896
 8376SOL    HW225813   1.122   0.609   5.318  0.6832 -4.2203 -0.5993
 8377SOL     OW25814   3.022   4.691   4.462  0.1554  0.2272  0.6651
 8377SOL    HW125815   3.027   4.786   4.465 -0.0501  0.2670 -0.1935
 8377SOL    HW225816   3.032   4.664   4.554  2.2422  0.9612  0.7023
 8378SOL     OW25817   2.298   1.711   1.043  0.1127  0.4092  0.1222
 8378SOL    HW125818   2.250   1.778   0.995  0.0996  0.5357  0.3108
 8378SOL    HW225819   2.232   1.665   1.095 -0.3261 -1.5254 -2.0056
 8379SOL     OW25820   4.949   1.378   1.795 -0.5632  0.6413  0.5198
 8379SOL    HW125821   4.889   1.306   1.776  1.0177 -0.5113 -0.3375
 8379SOL    HW225822   4.895   1.442   1.843 -1.7827 -1.5236  2.2362
 8380SOL     OW25823   2.455   1.871   4.020 -0.3005 -0.1207 -0.4211
 8380SOL    HW125824   2.520   1.891   4.087 -1.7263  1.1120  0.6561
 8380SOL    HW225825   2.433   1.779   4.034 -0.7403  0.1792  0.9720
 8381SOL     OW25826   2.071   2.207   5.111 -0.1469 -0.5499  0.1077
 8381SOL    HW125827   2.028   2.252   5.184 -1.3993 -1.6124  0.0806
 8381SOL    HW225828   2.005   2.208   5.041  0.5866 -0.5922 -0.5937
 8382SOL     OW25829   1.785   4.276   5.266 -0.5586  0.0600  0.6341
 8382SOL    HW125830   1.826   4.345   5.215  1.7883 -1.2161  0.6774
 8382SOL    HW225831   1.815   4.290   5.355 -0.5757 -0.6570  0.7573
 8383SOL     OW25832   4.905   6.445   6.811  0.4026 -0.2123  0.0847
 8383SOL    HW125833   4.849   6.397   6.750 -0.3882  4.0091 -2.9378
 8383SOL    HW225834   4.855   6.522   6.835  2.7023  0.7819  2.1301
 8384SOL     OW25835   4.682   2.657   5.982  0.0145 -0.1341 -0.9208
 8384SOL    HW125836   4.652   2.723   6.044 -1.2518 -0.4607 -1.1661
 8384SOL    HW225837   4.777   2.656   5.993 -0.1738 -0.2833  1.1050
 8385SOL     OW25838   2.812   4.263   0.328  0.1665  0.4752  0.3686
 8385SOL    HW125839   2.829   4.174   0.295  0.6165  0.8747 -0.5042
 8385SOL    HW225840   2.866   4.269   0.407 -0.9589 -0.5081  1.2622
 8386SOL     OW25841   5.711   5.887   2.246  0.2970  0.4355 -0.4563
 8386SOL    HW125842   5.780   5.898   2.312 -0.2010  0.6744  0.0310
 8386SOL    HW225843   5.709   5.793   2.230  2.3077  0.6085 -2.1969
 8387SOL     OW25844   4.852   0.285   3.627  0.0663 -0.6523  0.0422
 8387SOL    HW125845   4.763   0.317   3.613 -0.3561 -1.8378 -0.0860
 8387SOL    HW225846   4.884   0.336   3.702  0.7845  2.6503 -2.3214
 8388SOL     OW25847   6.199   6.517   5.183 -0.8534 -0.1437 -0.4892
 8388SOL    HW125848   6.182   6.461   5.260 -0.2832 -0.1689 -0.3715
 8388SOL    HW225849   6.293   6.507   5.168 -0.8614  0.3148 -0.8426
 8389SOL     OW25850   2.250   2.415   4.511 -0.1498 -0.0942  0.2267
 8389SOL    HW125851   2.290   2.501   4.519 -0.1440 -0.1533  0.9465
 8389SOL    HW225852   2.187   2.411   4.583 -1.2924 -0.0920 -0.7483
 8390SOL     OW25853   5.923   6.642   1.491 -0.4974 -0.1594  0.0607
 8390SOL    HW125854   5.940   6.734   1.471 -1.3585 -0.3970 -2.0415
 8390SOL    HW225855   5.830   6.639   1.513 -0.8172 -0.6832 -1.2513
 8391SOL     OW25856   5.031   4.647   4.887  0.4386 -0.0269  0.4446
 8391SOL    HW125857   5.071   4.733   4.878 -0.4148  0.3852  0.5326
 8391SOL    HW225858   4.947   4.663   4.930 -0.4887 -0.6842 -1.0396
 8392SOL     OW25859   3.174   5.490   4.701  0.4170  0.7884  0.3023
 8392SOL    HW125860   3.233   5.417   4.719 -0.6404  0.1833  1.5155
 8392SOL    HW225861   3.150   5.523   4.787 -0.1395  1.7403 -0.2004
 8393SOL     OW25862   0.119   6.668   2.664 -0.2525 -0.0298  0.2334
 8393SOL    HW125863   0.074   6.751   2.645 -1.0290 -0.7635 -1.3596
 8393SOL    HW225864   0.058   6.601   2.633  1.2712 -1.1197 -0.5224
 8394SOL     OW25865   2.790   0.181   3.601  0.3567 -0.0490  0.1192
 8394SOL    HW125866   2.832   0.238   3.667  2.8720 -0.6238 -0.8573
 8394SOL    HW225867   2.820   0.216   3.517 -2.0762  0.1247 -0.7611
 8395SOL     OW25868   2.368   5.248   1.547 -0.0713  0.2423  0.1394
 8395SOL    HW125869   2.440   5.297   1.586  0.7501 -0.9986  0.2339
 8395SOL    HW225870   2.366   5.166   1.595 -2.6324  0.8465  1.2461
 8396SOL     OW25871   3.167   4.514   3.959 -0.2531 -0.0697  0.1003
 8396SOL    HW125872   3.235   4.466   3.913  2.1139  1.7772  1.4277
 8396SOL    HW225873   3.179   4.605   3.933 -0.6205  0.6365  2.1534
 8397SOL     OW25874   0.885   4.103   3.826  0.2437  0.3842 -0.3616
 8397SOL    HW125875   0.980   4.093   3.826  0.1027 -1.2680  0.0234
 8397SOL    HW225876   0.862   4.111   3.919 -0.1866 -1.7699 -0.2455
 8398SOL     OW25877   4.839   6.297   3.629 -0.2313 -0.2638 -0.0289
 8398SOL    HW125878   4.770   6.243   3.668 -1.4736  1.2345 -0.0450
 8398SOL    HW225879   4.838   6.274   3.536  0.4319 -1.4167  0.2302
 8399SOL     OW25880   0.405   1.123   4.387 -0.2924 -0.0858 -0.1929
 8399SOL    HW125881   0.450   1.147   4.469 -1.0634  2.4119 -0.4207
 8399SOL    HW225882   0.314   1.107   4.413 -0.2594 -0.6431 -0.3936
 8400SOL     OW25883   2.622   3.652   4.857  0.1191 -0.4576 -0.1674
 8400SOL    HW125884   2.615   3.572   4.909  0.0892 -1.4395 -1.6557
 8400SOL    HW225885   2.690   3.703   4.901 -0.5076 -0.8627  1.3379
 8401SOL     OW25886   2.641   6.616   5.633  0.6256 -0.1765 -0.7933
 8401SOL    HW125887   2.717   6.649   5.680  0.9405 -1.5477 -0.2978
 8401SOL    HW225888   2.674   6.543   5.581 -0.4978 -1.4576  0.2150
 8402SOL     OW25889   3.649   3.056   4.245 -0.7606  0.1874  0.2029
 8402SOL    HW125890   3.696   3.002   4.308 -0.5085  0.4833  0.2667
 8402SOL    HW225891   3.651   3.005   4.164  0.6386  0.6867 -0.1036
 8403SOL     OW25892   1.359   4.716   4.193  0.3036 -0.1929 -0.2664
 8403SOL    HW125893   1.430   4.781   4.191 -0.4578  0.6849  0.4723
 8403SOL    HW225894   1.288   4.759   4.241 -0.1813 -1.6273  0.3515
 8404SOL     OW25895   1.577   1.208   4.775 -0.2870  0.1921  0.3865
 8404SOL    HW125896   1.518   1.183   4.847 -0.8339 -0.2297 -0.1946
 8404SOL    HW225897   1.545   1.158   4.700 -1.3563  2.5090 -0.8198
 8405SOL     OW25898   1.815   4.344   1.391  0.1539 -0.4699 -0.3055
 8405SOL    HW125899   1.722   4.343   1.413  0.1640 -0.1401 -0.2408
 8405SOL    HW225900   1.856   4.391   1.464  0.2064  0.5200 -0.9511
 8406SOL     OW25901   1.671   4.037   6.117 -0.1497 -0.4890 -0.2268
 8406SOL    HW125902   1.645   3.989   6.195  0.7443  0.4931  0.7060
 8406SOL    HW225903   1.633   3.987   6.044  0.2392 -2.2665  0.7225
 8407SOL     OW25904   2.318   1.805   6.806 -0.1872 -0.3417  0.2493
 8407SOL    HW125905   2.267   1.885   6.818  0.4572 -0.2940  3.5459
 8407SOL    HW225906   2.270   1.739   6.855  0.3526 -1.5369 -0.7730
 8408SOL     OW25907   6.603   4.336   1.302 -0.2782  0.5397 -0.3976
 8408SOL    HW125908   6.654   4.296   1.373 -0.2472 -0.0498 -0.7462
 8408SOL    HW225909   6.572   4.262   1.250 -0.3371  0.9692 -0.9812
 8409SOL     OW25910   2.649   2.817   4.830 -0.3405 -0.0801  0.0420
 8409SOL    HW125911   2.731   2.801   4.877 -2.0552  0.6164  3.6096
 8409SOL    HW225912   2.652   2.911   4.809  0.7606 -0.5407 -2.1250
 8410SOL     OW25913   6.510   0.122   5.319  0.0806  0.0267  0.2560
 8410SOL    HW125914   6.448   0.058   5.284 -1.1859  0.7882  1.0364
 8410SOL    HW225915   6.474   0.206   5.292  0.4611  0.5058  1.2231
 8411SOL     OW25916   5.533   5.631   5.285 -0.2653  0.2383  0.1025
 8411SOL    HW125917   5.616   5.582   5.285 -0.7717 -0.6541 -0.5757
 8411SOL    HW225918   5.519   5.653   5.377  1.0538  0.9861  0.1414
 8412SOL     OW25919   1.585   5.660   6.303 -0.0101 -0.1162  0.5170
 8412SOL    HW125920   1.578   5.643   6.397  1.4772  0.5144  0.7697
 8412SOL    HW225921   1.495   5.655   6.271 -0.6197  0.2407  2.0759
 8413SOL     OW25922   3.759   6.852   6.399 -0.2585  0.5392  0.6240
 8413SOL    HW125923   3.690   6.918   6.392  0.4610  1.4199  1.5224
 8413SOL    HW225924   3.774   6.823   6.309 -1.6461  0.4792  0.4014
 8414SOL     OW25925   3.077   6.414   5.949 -0.1929 -0.3731  0.1175
 8414SOL    HW125926   3.005   6.464   5.987  0.2961 -0.2168  0.8612
 8414SOL    HW225927   3.139   6.403   6.021  0.6681 -0.2447 -0.5855
 8415SOL     OW25928   1.061   6.193   6.092  0.6139 -0.0572  0.5048
 8415SOL    HW125929   1.105   6.126   6.039  0.9423 -0.1306  0.8656
 8415SOL    HW225930   0.978   6.208   6.047  0.7762 -0.3083  0.1149
 8416SOL     OW25931   6.188   0.550   2.100  0.4419 -0.1552 -0.8125
 8416SOL    HW125932   6.279   0.520   2.102 -0.0829 -1.9385 -1.4089
 8416SOL    HW225933   6.171   0.570   2.008  0.9792  2.9208 -0.3703
 8417SOL     OW25934   6.517   0.391   4.816 -0.0322  0.2577  1.2551
 8417SOL    HW125935   6.532   0.310   4.865 -1.1411 -1.1440 -0.6254
 8417SOL    HW225936   6.577   0.454   4.856  2.2627 -1.9748  1.5496
 8418SOL     OW25937   1.715   0.090   6.266 -0.5284  0.1170 -0.4102
 8418SOL    HW125938   1.653   0.111   6.336 -1.6672 -3.3497 -0.1890
 8418SOL    HW225939   1.685   0.005   6.232  2.0692 -0.0162 -2.7131
 8419SOL     OW25940   3.250   1.952   3.627  0.0192  0.0698 -0.0302
 8419SOL    HW125941   3.314   1.954   3.556 -1.0115 -0.1000 -0.9945
 8419SOL    HW225942   3.182   2.013   3.601  0.9507  2.2180  2.1894
 8420SOL     OW25943   2.536   4.952   1.484 -0.4524  0.6080 -0.3877
 8420SOL    HW125944   2.495   4.920   1.565  1.1081 -2.0577 -0.5373
 8420SOL    HW225945   2.480   4.917   1.414  1.1537 -1.8722 -0.5460
 8421SOL     OW25946   0.360   1.319   4.763  0.1438 -0.2802 -0.0033
 8421SOL    HW125947   0.420   1.274   4.822 -2.0001 -1.7841  1.1743
 8421SOL    HW225948   0.388   1.293   4.675  2.1803  0.4138  0.4041
 8422SOL     OW25949   1.647   3.301   4.868 -0.7729 -0.5270  0.0599
 8422SOL    HW125950   1.718   3.247   4.833 -0.0293 -1.1810  2.4407
 8422SOL    HW225951   1.590   3.317   4.792  0.1600 -2.7456 -1.1921
 8423SOL     OW25952   4.802   6.382   2.390  0.5194  0.3073 -0.0043
 8423SOL    HW125953   4.797   6.470   2.427 -0.8413  0.3849 -0.3349
 8423SOL    HW225954   4.894   6.357   2.401  0.8512  1.6220  0.4067
 8424SOL     OW25955   4.648   4.886   1.391  0.3077 -1.1859  0.0575
 8424SOL    HW125956   4.667   4.908   1.300 -1.5510  0.7879  0.0679
 8424SOL    HW225957   4.570   4.832   1.387 -0.1876 -0.5201  0.4829
 8425SOL     OW25958   3.458   1.666   0.652 -0.7849 -0.9406  0.8371
 8425SOL    HW125959   3.542   1.708   0.670 -0.7565 -0.6869  0.1541
 8425SOL    HW225960   3.403   1.687   0.728 -0.5475 -0.2546  0.8270
 8426SOL     OW25961   0.356   5.319   0.145  0.1609  0.7815 -0.3678
 8426SOL    HW125962   0.301   5.359   0.077  0.0359 -0.7679 -1.2374
 8426SOL    HW225963   0.442   5.360   0.134 -0.4186  2.1693  0.0452
 8427SOL     OW25964   2.071   5.334   4.272 -0.0167  0.1105  0.5528
 8427SOL    HW125965   2.159   5.359   4.300 -0.3892  0.0404  1.8371
 8427SOL    HW225966   2.063   5.369   4.183  1.1123  0.5745  0.6194
 8428SOL     OW25967   6.761   1.366   2.598  0.2548  0.6137  0.7190
 8428SOL    HW125968   6.779   1.275   2.576 -0.4303  0.2382  1.6313
 8428SOL    HW225969   6.843   1.412   2.580  0.0102  0.2319 -1.7688
 8429SOL     OW25970   2.191   5.440   2.295  0.3394  0.9166 -0.3538
 8429SOL    HW125971   2.270   5.478   2.255  0.4187  2.3119  1.0634
 8429SOL    HW225972   2.200   5.458   2.388 -0.1134 -1.7812  0.2855
 8430SOL     OW25973   1.334   3.530   4.818  0.2578 -0.5594  0.2455
 8430SOL    HW125974   1.404   3.554   4.878 -0.7883 -1.2529  1.8014
 8430SOL    HW225975   1.303   3.614   4.782  1.5587 -0.2174 -0.1369
 8431SOL     OW25976   3.615   5.402   6.603  0.0247 -0.2651  0.3782
 8431SOL    HW125977   3.549   5.343   6.566 -0.4677  0.6316 -0.2097
 8431SOL    HW225978   3.665   5.347   6.664 -1.6871 -0.8026  1.3542
 8432SOL     OW25979   1.347   0.733   2.060 -0.2102  0.6923  0.0857
 8432SOL    HW125980   1.363   0.639   2.067 -1.9614  0.2005 -1.5722
 8432SOL    HW225981   1.256   0.740   2.030 -0.9582  3.0217  2.5170
 8433SOL     OW25982   1.613   5.974   4.902 -0.5230 -0.1137  0.0862
 8433SOL    HW125983   1.644   6.009   4.818 -1.4173  1.7584  0.4844
 8433SOL    HW225984   1.553   5.903   4.877 -0.7380  0.3872 -0.8743
 8434SOL     OW25985   6.033   1.619   0.861 -0.5848 -0.4431  0.5839
 8434SOL    HW125986   6.107   1.611   0.801 -0.0523 -2.0794  1.4088
 8434SOL    HW225987   5.958   1.634   0.804  0.3539  1.4787 -0.2694
 8435SOL     OW25988   5.624   0.849   0.683 -0.3723  0.1584  0.0492
 8435SOL    HW125989   5.556   0.783   0.694  0.4129 -0.6496  0.2269
 8435SOL    HW225990   5.607   0.912   0.753 -0.8414 -0.1223  0.1961
 8436SOL     OW25991   1.146   5.057   6.864  0.0469 -0.0112 -0.2547
 8436SOL    HW125992   1.110   5.021   6.783 -1.6243  0.6973  0.1141
 8436SOL    HW225993   1.127   4.991   6.930  1.6017 -0.6852 -0.4374
 8437SOL     OW25994   1.629   1.509   2.187  0.5460  0.2619 -0.4561
 8437SOL    HW125995   1.712   1.517   2.234 -0.0247  0.1532  0.5895
 8437SOL    HW225996   1.598   1.599   2.178  0.8555  0.3188 -1.0114
 8438SOL     OW25997   5.417   2.612   4.987  0.0700  0.4039 -0.5507
 8438SOL    HW125998   5.324   2.592   4.993  0.0169  0.1706 -1.8443
 8438SOL    HW225999   5.447   2.563   4.910  1.1951  0.7051 -0.3215
 8439SOL     OW26000   0.809   0.241   6.340 -0.2554  0.0401  0.5931
 8439SOL    HW126001   0.894   0.269   6.372  0.0681 -0.8037  0.4924
 8439SOL    HW226002   0.749   0.257   6.413 -0.2402  1.6626  0.2963
 8440SOL     OW26003   5.587   3.879   6.686 -0.1993  0.1949  0.3445
 8440SOL    HW126004   5.672   3.918   6.708  0.0240  0.3293 -0.7115
 8440SOL    HW226005   5.606   3.820   6.614 -0.9529 -0.0238  0.3211
 8441SOL     OW26006   1.196   6.336   3.644 -0.1531  0.5879  0.5313
 8441SOL    HW126007   1.111   6.374   3.667 -0.4792  0.0875  0.1732
 8441SOL    HW226008   1.251   6.412   3.621 -1.1149  0.7962 -1.2551
 8442SOL     OW26009   0.172   3.340   0.616 -0.4998  0.4459 -0.2142
 8442SOL    HW126010   0.080   3.354   0.592 -0.8218 -0.7812  0.1769
 8442SOL    HW226011   0.184   3.390   0.696 -0.8471  0.5811 -0.2453
 8443SOL     OW26012   5.674   2.691   1.206  0.5031  0.1570  0.4720
 8443SOL    HW126013   5.692   2.627   1.276  0.5179  1.9608  2.1889
 8443SOL    HW226014   5.726   2.659   1.132  0.6054 -1.7420  1.2847
 8444SOL     OW26015   4.417   0.882   4.805 -0.2807 -0.1563  0.2393
 8444SOL    HW126016   4.388   0.911   4.718  1.8635 -1.0805 -0.8617
 8444SOL    HW226017   4.423   0.787   4.797 -1.9154 -0.4660  2.0607
 8445SOL     OW26018   4.364   4.550   1.825 -0.1800 -0.2259  0.6831
 8445SOL    HW126019   4.444   4.498   1.831  0.6893  1.0348  0.4931
 8445SOL    HW226020   4.309   4.520   1.897  1.6429  0.7845  2.5902
 8446SOL     OW26021   3.199   2.003   1.171 -0.2300  0.1739  0.0238
 8446SOL    HW126022   3.154   2.075   1.216  0.8034  1.1410 -0.4460
 8446SOL    HW226023   3.166   2.006   1.082 -0.7490 -0.4336  0.1897
 8447SOL     OW26024   2.719   1.630   6.895 -0.5706  0.4353 -0.5301
 8447SOL    HW126025   2.643   1.618   6.838 -0.6634 -1.1049 -0.1197
 8447SOL    HW226026   2.722   1.551   6.948 -1.1680  2.1954  2.4207
 8448SOL     OW26027   0.910   4.897   3.802  0.0632 -0.1396 -0.8002
 8448SOL    HW126028   0.903   4.851   3.717 -1.1420  0.4695 -1.0536
 8448SOL    HW226029   0.870   4.836   3.864  0.3573 -0.3126 -0.7800
 8449SOL     OW26030   6.102   4.417   6.683 -0.4595  0.1402 -0.1113
 8449SOL    HW126031   6.155   4.356   6.734 -0.0298 -0.6206 -1.4247
 8449SOL    HW226032   6.165   4.478   6.645 -0.6345 -0.0553 -0.7302
 8450SOL     OW26033   4.606   3.377   6.266 -0.3059 -0.2677  0.4636
 8450SOL    HW126034   4.574   3.298   6.311  0.8132 -0.0759  1.6347
 8450SOL    HW226035   4.529   3.410   6.219 -0.8909 -1.8361  0.2528
 8451SOL     OW26036   4.101   1.445   5.474  0.2712  0.5069 -0.2521
 8451SOL    HW126037   4.034   1.458   5.407 -0.2230 -0.7976 -0.0495
 8451SOL    HW226038   4.177   1.412   5.425 -0.0902 -0.4486 -0.1993
 8452SOL     OW26039   3.052   2.735   6.156  0.0998 -0.5194  0.3526
 8452SOL    HW126040   2.989   2.761   6.223  0.3736 -0.4707  0.5901
 8452SOL    HW226041   3.115   2.680   6.202  0.1954 -0.6195  0.1018
 8453SOL     OW26042   3.149   6.001   5.510  0.2058  0.6046 -0.7971
 8453SOL    HW126043   3.138   5.969   5.599 -0.2406 -0.3548 -1.1790
 8453SOL    HW226044   3.095   6.080   5.506  1.7040  1.7277  0.3057
 8454SOL     OW26045   5.869   3.121   0.848  0.2233  0.2137 -0.3373
 8454SOL    HW126046   5.938   3.166   0.898  1.5686 -1.9463 -0.1445
 8454SOL    HW226047   5.821   3.192   0.805  1.7153  1.8773  0.6061
 8455SOL     OW26048   4.736   4.987   2.668 -0.2797 -0.2319 -0.2272
 8455SOL    HW126049   4.725   4.975   2.763  0.6752  1.7798  0.1986
 8455SOL    HW226050   4.762   4.901   2.636 -0.6230 -0.9603  1.3393
 8456SOL     OW26051   4.145   6.608   2.949  0.4487  0.4694  0.4247
 8456SOL    HW126052   4.174   6.608   3.040 -0.5331  1.6715  0.7824
 8456SOL    HW226053   4.096   6.527   2.940  2.3007 -0.6824  0.3320
 8457SOL     OW26054   2.972   2.003   5.790 -0.0629  0.0711 -0.0695
 8457SOL    HW126055   3.017   1.919   5.790  0.4128  0.2894  1.5962
 8457SOL    HW226056   3.014   2.053   5.720  1.5653 -0.1407  0.7034
 8458SOL     OW26057   0.159   1.964   4.652 -0.9533 -0.3751 -0.2609
 8458SOL    HW126058   0.092   1.899   4.673 -2.1370  1.2202  1.2489
 8458SOL    HW226059   0.112   2.034   4.607 -0.0964  0.2940 -0.1446
 8459SOL     OW26060   2.908   0.250   6.180  0.2547 -0.4108  0.0865
 8459SOL    HW126061   2.851   0.216   6.249 -1.6144 -1.5892 -1.8987
 8459SOL    HW226062   2.864   0.330   6.150  0.6072 -0.3642 -0.3124
 8460SOL     OW26063   2.168   2.960   3.484  0.0092  0.0316  0.0125
 8460SOL    HW126064   2.211   3.038   3.520 -1.0633  1.4057 -1.5088
 8460SOL    HW226065   2.226   2.931   3.414 -0.0677  0.0566 -0.0620
 8461SOL     OW26066   4.142   5.410   0.643  0.3477  0.1366 -0.0600
 8461SOL    HW126067   4.058   5.412   0.597  0.1091 -0.1043  0.3611
 8461SOL    HW226068   4.127   5.462   0.722  1.1908  1.8438 -0.9575
 8462SOL     OW26069   0.810   0.166   2.201 -0.2453 -0.0195  0.6152
 8462SOL    HW126070   0.768   0.212   2.129  0.4621  0.1204  0.2813
 8462SOL    HW226071   0.862   0.098   2.159 -0.5308 -0.5077  1.0498
 8463SOL     OW26072   1.289   3.659   5.765  0.3080 -0.0054 -0.2250
 8463SOL    HW126073   1.287   3.708   5.683  2.1490  0.6435  0.0640
 8463SOL    HW226074   1.339   3.580   5.744 -0.0495 -0.2964  0.0330
 8464SOL     OW26075   5.208   3.862   3.257 -0.9649 -0.7162 -0.1830
 8464SOL    HW126076   5.179   3.888   3.170  1.0314 -2.4410 -1.4648
 8464SOL    HW226077   5.203   3.766   3.257 -0.8896 -0.7604  1.5931
 8465SOL     OW26078   1.188   2.588   4.218 -0.2772  0.2479 -0.6238
 8465SOL    HW126079   1.197   2.680   4.194 -0.7505  0.1243 -1.3033
 8465SOL    HW226080   1.132   2.590   4.296  0.7639  0.6064  0.1441
 8466SOL     OW26081   6.366   3.495   2.854 -0.1311  0.5300  0.0628
 8466SOL    HW126082   6.393   3.451   2.773  0.3022  0.6274  0.1529
 8466SOL    HW226083   6.299   3.558   2.825 -1.4636 -0.8277  0.0621
 8467SOL     OW26084   1.671   5.357   2.306 -0.1198  0.4428  0.0806
 8467SOL    HW126085   1.697   5.290   2.243 -0.9494 -1.6068  1.7786
 8467SOL    HW226086   1.751   5.408   2.321 -0.1267  1.6931 -3.2561
 8468SOL     OW26087   1.904   4.316   4.644  0.1921  0.2073  0.2922
 8468SOL    HW126088   1.992   4.283   4.627 -0.4350 -0.6257 -1.5413
 8468SOL    HW226089   1.884   4.285   4.732  1.0285 -1.1975  0.0152
 8469SOL     OW26090   0.472   2.688   2.255  0.1404 -0.0603  0.1753
 8469SOL    HW126091   0.377   2.690   2.260  0.1427  0.4869  0.1286
 8469SOL    HW226092   0.491   2.679   2.162  0.1346 -1.2699  0.2809
 8470SOL     OW26093   1.940   2.941   2.818  0.1432 -0.3622  0.2257
 8470SOL    HW126094   1.876   3.005   2.787 -2.4706 -1.9573  1.8770
 8470SOL    HW226095   1.942   2.874   2.750 -0.0156 -0.3323  0.1912
 8471SOL     OW26096   6.506   6.201   3.246 -0.1693 -0.3378 -0.5211
 8471SOL    HW126097   6.571   6.240   3.187 -0.3074  0.0509 -0.4153
 8471SOL    HW226098   6.539   6.113   3.263  0.4169 -0.0792 -0.3279
 8472SOL     OW26099   1.246   5.469   0.935 -0.1854  0.1998  0.3403
 8472SOL    HW126100   1.227   5.475   0.841 -0.1875  2.8331  0.4419
 8472SOL    HW226101   1.212   5.550   0.972  0.3184 -0.5228  2.5606
 8473SOL     OW26102   5.982   3.501   4.691 -0.2393 -0.2426 -0.0836
 8473SOL    HW126103   6.013   3.587   4.720 -3.6462  0.7591  1.0807
 8473SOL    HW226104   6.024   3.439   4.750 -1.3774  1.1439  2.3580
 8474SOL     OW26105   0.002   0.715   5.265  0.0472 -0.4579  0.6544
 8474SOL    HW126106   0.027   0.630   5.227 -0.0185 -0.7269  1.1994
 8474SOL    HW226107   0.079   0.770   5.252  0.0264 -0.5418  0.1318
 8475SOL     OW26108   3.772   1.794   2.910  0.3953  0.4855 -0.4561
 8475SOL    HW126109   3.775   1.781   2.815  2.2614  0.5575 -0.4502
 8475SOL    HW226110   3.859   1.768   2.940 -1.0191 -2.3180  1.6634
 8476SOL     OW26111   3.546   4.388   5.017  0.3011 -0.1343 -0.0881
 8476SOL    HW126112   3.626   4.365   5.065  0.0798 -0.5622  0.0812
 8476SOL    HW226113   3.475   4.367   5.078  0.0276 -0.4168 -0.4992
 8477SOL     OW26114   5.913   5.036   0.458 -0.6066 -0.4310  0.0065
 8477SOL    HW126115   5.880   5.094   0.527  1.1525 -0.5927  1.0267
 8477SOL    HW226116   5.939   4.956   0.503 -0.1438 -0.8443 -0.9644
 8478SOL     OW26117   5.661   2.279   2.953 -0.3659  0.2823 -0.0746
 8478SOL    HW126118   5.747   2.315   2.973 -0.0818  0.5225 -1.6299
 8478SOL    HW226119   5.600   2.347   2.981 -0.1658 -0.3236  2.0435
 8479SOL     OW26120   0.546   1.797   0.347  0.4102 -0.1025 -0.6206
 8479SOL    HW126121   0.464   1.749   0.355  1.2852 -1.5611  0.0246
 8479SOL    HW226122   0.546   1.829   0.257 -0.7130 -0.3503 -0.7259
 8480SOL     OW26123   5.606   1.087   4.091  0.2862  0.5040 -0.3349
 8480SOL    HW126124   5.640   1.020   4.031 -0.8896 -0.2956 -0.1280
 8480SOL    HW226125   5.646   1.066   4.175  1.3578  1.1887 -0.6432
 8481SOL     OW26126   0.037   0.935   0.655  0.2488  0.1396  0.1068
 8481SOL    HW126127  -0.030   0.976   0.602 -1.3176 -2.2855  0.0457
 8481SOL    HW226128   0.037   0.984   0.737 -0.9754  0.7392 -0.2391
 8482SOL     OW26129   4.486   0.943   3.521 -0.0379 -0.2379  0.6122
 8482SOL    HW126130   4.548   0.963   3.590  1.3921 -2.0959 -0.0423
 8482SOL    HW226131   4.402   0.932   3.565  0.1481  1.8254  1.5787
 8483SOL     OW26132   1.580   5.277   3.230 -0.2460 -0.2264 -0.2093
 8483SOL    HW126133   1.655   5.266   3.171  0.2285  0.1500  0.3188
 8483SOL    HW226134   1.598   5.218   3.303 -0.7316 -0.5349 -0.3323
 8484SOL     OW26135   2.017   5.183   1.087 -0.6118 -1.0562 -0.3584
 8484SOL    HW126136   2.041   5.264   1.133 -1.8480 -1.0838  0.3737
 8484SOL    HW226137   1.985   5.213   1.001 -0.4453 -0.8188 -0.3378
 8485SOL     OW26138   2.591   5.604   3.063 -0.2047 -0.7126 -0.0143
 8485SOL    HW126139   2.656   5.550   3.108 -1.7999 -3.2399 -0.5018
 8485SOL    HW226140   2.602   5.582   2.970 -1.1662 -0.5552 -0.1746
 8486SOL     OW26141   2.863   5.454   4.272  0.9037  0.1613  0.3633
 8486SOL    HW126142   2.887   5.476   4.362  0.3005 -1.1600  0.8717
 8486SOL    HW226143   2.945   5.422   4.233  0.6377 -1.9388  1.3322
 8487SOL     OW26144   6.475   6.723   4.579 -0.2624 -0.2164 -0.4148
 8487SOL    HW126145   6.419   6.793   4.544 -0.6461 -0.7561 -0.9000
 8487SOL    HW226146   6.564   6.749   4.555 -0.5608 -0.8923 -2.4284
 8488SOL     OW26147   1.912   1.398   1.562  0.2752  0.6614 -0.1370
 8488SOL    HW126148   1.882   1.371   1.649  1.9616 -2.2273 -0.3025
 8488SOL    HW226149   2.007   1.402   1.570  0.5156 -0.3751 -1.9955
 8489SOL     OW26150   0.734   1.288   5.772  0.2072 -0.3101 -0.3367
 8489SOL    HW126151   0.686   1.371   5.771 -1.6093 -1.3008 -0.4299
 8489SOL    HW226152   0.746   1.267   5.679 -0.4001 -0.7125 -0.3308
 8490SOL     OW26153   1.294   1.557   5.309 -0.0730  0.2868  0.3448
 8490SOL    HW126154   1.349   1.532   5.384 -0.5479  0.5334  0.7839
 8490SOL    HW226155   1.229   1.617   5.347 -0.6537 -0.0193 -0.1677
 8491SOL     OW26156   5.320   4.790   5.283  0.5769  0.2204  0.7504
 8491SOL    HW126157   5.381   4.718   5.266  0.6508  0.7666 -1.5975
 8491SOL    HW226158   5.241   4.747   5.317  0.4372 -1.0650 -1.0634
 8492SOL     OW26159   0.325   6.238   1.201 -0.4560 -0.1458 -0.3601
 8492SOL    HW126160   0.298   6.153   1.235 -1.1198  0.1022 -0.2386
 8492SOL    HW226161   0.360   6.220   1.114 -0.2426 -0.5887 -0.1812
 8493SOL     OW26162   1.864   1.291   0.791  0.3248 -0.0569  0.2080
 8493SOL    HW126163   1.831   1.202   0.804  1.5302 -0.7927 -1.4817
 8493SOL    HW226164   1.789   1.341   0.760  0.4422 -1.4462 -2.5515
 8494SOL     OW26165   3.254   4.867   1.029  0.1481 -0.1332  0.1797
 8494SOL    HW126166   3.305   4.786   1.036 -1.0097 -1.0143 -1.0905
 8494SOL    HW226167   3.315   4.930   0.989  1.4667  0.0540  2.3552
 8495SOL     OW26168   1.812   0.539   2.487  0.0731  0.2878 -0.1577
 8495SOL    HW126169   1.742   0.603   2.475  0.9980  1.5976  1.1025
 8495SOL    HW226170   1.781   0.460   2.441 -1.9679  0.9896 -0.0709
 8496SOL     OW26171   5.481   0.508   4.074  0.0444  0.1732 -0.4191
 8496SOL    HW126172   5.430   0.439   4.116  0.4516  0.2204  0.1527
 8496SOL    HW226173   5.537   0.543   4.143 -0.8259  1.7387 -0.4456
 8497SOL     OW26174   5.932   6.121   4.334  0.1671 -0.2820  0.5109
 8497SOL    HW126175   5.849   6.157   4.303  0.3326  0.3181  0.7397
 8497SOL    HW226176   5.962   6.184   4.401  0.3260 -1.0004  1.1327
 8498SOL     OW26177   1.793   6.017   2.245 -1.1290  0.3708  0.6088
 8498SOL    HW126178   1.787   6.066   2.163 -0.1123 -0.3953  0.0531
 8498SOL    HW226179   1.709   5.972   2.252 -0.5337 -1.1384 -1.0781
 8499SOL     OW26180   1.362   3.226   3.974  0.5914  0.2513 -0.1719
 8499SOL    HW126181   1.384   3.152   3.917  0.7715 -0.6237  0.9948
 8499SOL    HW226182   1.397   3.302   3.929 -0.1668 -0.2672 -1.7375
 8500SOL     OW26183   4.815   1.952   0.166  0.2115  0.3404 -0.1985
 8500SOL    HW126184   4.782   2.012   0.233  0.2500 -0.7815  0.8647
 8500SOL    HW226185   4.735   1.915   0.127  0.1661 -0.9437  1.0510
 8501SOL     OW26186   4.678   3.249   3.168  0.1855 -0.1407  0.1989
 8501SOL    HW126187   4.583   3.261   3.171  0.0616 -1.0391  0.0042
 8501SOL    HW226188   4.693   3.163   3.207  0.9081 -0.0741  0.0870
 8502SOL     OW26189   6.741   2.943   0.223  0.2097 -0.5780 -0.1432
 8502SOL    HW126190   6.731   3.038   0.215 -0.6756 -0.6792 -0.3291
 8502SOL    HW226191   6.824   2.924   0.180 -0.4851 -0.0998 -1.7762
 8503SOL     OW26192   3.530   0.404   1.193 -0.3794 -0.5255 -0.3570
 8503SOL    HW126193   3.594   0.430   1.259  1.2310  0.8369 -2.3530
 8503SOL    HW226194   3.540   0.309   1.186  0.9085 -0.4208 -0.1175
 8504SOL     OW26195   4.488   3.862   0.289 -0.4245 -0.2608  0.2715
 8504SOL    HW126196   4.491   3.821   0.203  0.1982 -1.4388  0.8182
 8504SOL    HW226197   4.535   3.944   0.279  0.0518 -0.6111 -0.4033
 8505SOL     OW26198   3.847   5.370   3.393  0.2005 -0.3877  0.2440
 8505SOL    HW126199   3.893   5.316   3.329 -2.0907  0.9155 -2.7562
 8505SOL    HW226200   3.916   5.410   3.445  2.2997 -0.6765 -2.1523
 8506SOL     OW26201   2.718   4.872   1.257 -0.1435  0.5085  0.4978
 8506SOL    HW126202   2.623   4.879   1.264 -0.0618  1.3457  0.8467
 8506SOL    HW226203   2.751   4.901   1.342  0.4176 -0.0401  0.4757
 8507SOL     OW26204   1.612   6.382   1.340  0.2339  0.3143 -0.0596
 8507SOL    HW126205   1.604   6.400   1.246  0.1249 -0.7083 -0.2598
 8507SOL    HW226206   1.524   6.356   1.367  0.4873 -0.3858  0.1019
 8508SOL     OW26207   3.104   3.510   3.605 -0.4359  0.0785  0.1465
 8508SOL    HW126208   3.045   3.441   3.576  1.8326 -1.1923 -1.9073
 8508SOL    HW226209   3.147   3.540   3.524  1.9423  0.6236  1.5130
 8509SOL     OW26210   0.268   1.451   5.116 -0.1168  0.0595  0.4551
 8509SOL    HW126211   0.198   1.391   5.091 -0.3568 -0.8286  3.0322
 8509SOL    HW226212   0.307   1.412   5.194  1.2986  2.0727  0.8267
 8510SOL     OW26213   1.031   3.500   6.312  0.5127 -0.4123 -0.7151
 8510SOL    HW126214   1.074   3.415   6.301  0.8537 -0.4321  0.6109
 8510SOL    HW226215   1.101   3.564   6.301  0.3858 -0.3281 -1.0448
 8511SOL     OW26216   5.927   5.792   5.678  0.4890 -0.0916  0.0864
 8511SOL    HW126217   5.922   5.739   5.598  1.4864  0.4397 -0.3459
 8511SOL    HW226218   5.895   5.734   5.747 -0.9490 -0.3814 -0.7633
 8512SOL     OW26219   0.077   4.999   4.667 -0.2231 -0.0160  0.1398
 8512SOL    HW126220   0.146   4.940   4.698 -0.1739  0.5169  1.0613
 8512SOL    HW226221   0.122   5.082   4.651 -0.2929 -0.2004 -1.1501
 8513SOL     OW26222   6.585   2.111   6.020 -0.0863  0.8579 -0.2133
 8513SOL    HW126223   6.543   2.035   5.979 -0.9917  0.4135  1.4159
 8513SOL    HW226224   6.636   2.152   5.950  1.6484 -2.0745 -0.8606
 8514SOL     OW26225   4.649   2.974   4.923 -0.5505  0.1762 -0.3489
 8514SOL    HW126226   4.682   2.923   4.850  1.6192  1.6474 -0.4854
 8514SOL    HW226227   4.620   3.057   4.884  1.0650  1.1592  0.4663
 8515SOL     OW26228   2.659   5.702   6.209 -0.0574 -1.0136 -0.4993
 8515SOL    HW126229   2.698   5.629   6.160 -1.0401 -0.0505 -2.8548
 8515SOL    HW226230   2.574   5.716   6.167 -0.4923  0.5737  0.8394
 8516SOL     OW26231   0.521   5.224   0.521 -0.4277  0.2240 -0.8282
 8516SOL    HW126232   0.553   5.315   0.525 -1.6350  0.7144 -1.7758
 8516SOL    HW226233   0.554   5.191   0.438  1.0039 -0.6346  0.0362
 8517SOL     OW26234   4.473   2.840   1.095 -0.0264 -0.0591  0.1017
 8517SOL    HW126235   4.515   2.898   1.159 -0.0913  0.2978 -0.1774
 8517SOL    HW226236   4.510   2.754   1.113  1.8569  0.4527 -0.9757
 8518SOL     OW26237   2.646   5.128   5.282  0.2155  0.0025  0.5076
 8518SOL    HW126238   2.551   5.121   5.286  0.2666 -0.6946  0.5696
 8518SOL    HW226239   2.664   5.221   5.296 -0.5284  0.3624 -0.7205
 8519SOL     OW26240   5.589   2.726   2.853  0.3185  0.0502 -0.0714
 8519SOL    HW126241   5.655   2.676   2.902  3.1787  1.4263 -2.2683
 8519SOL    HW226242   5.579   2.807   2.903 -1.5590 -1.0420  1.4851
 8520SOL     OW26243   3.840   1.447   5.929  0.4312 -0.3618 -0.4687
 8520SOL    HW126244   3.839   1.439   5.834 -1.2530 -0.3529 -0.4795
 8520SOL    HW226245   3.771   1.388   5.958  1.9735 -1.6036  0.8789
 8521SOL     OW26246   2.349   6.279   4.378 -0.1935 -0.3281  0.1566
 8521SOL    HW126247   2.339   6.283   4.474 -2.5593  0.3624 -0.0761
 8521SOL    HW226248   2.309   6.196   4.354  0.2677 -0.4302 -0.2608
 8522SOL     OW26249   5.412   3.322   0.230 -0.1828 -0.4603  0.8453
 8522SOL    HW126250   5.333   3.289   0.272  0.9723 -0.4017  3.2580
 8522SOL    HW226251   5.456   3.245   0.196 -1.8784 -0.3742 -1.8675
 8523SOL     OW26252   6.033   0.914   1.654 -0.6844  0.3761  0.2458
 8523SOL    HW126253   5.972   0.853   1.612 -1.2239  0.3788  1.0059
 8523SOL    HW226254   5.997   1.001   1.634  0.3689  0.5030 -1.2791
 8524SOL     OW26255   2.322   4.674   1.056  0.2381 -0.4495 -0.1980
 8524SOL    HW126256   2.228   4.684   1.072  0.2781 -0.3792  0.0054
 8524SOL    HW226257   2.337   4.580   1.066  0.3625 -0.3369  0.7923
 8525SOL     OW26258   4.005   5.852   4.612 -0.1106  0.0558 -0.4327
 8525SOL    HW126259   3.978   5.933   4.569 -0.3854  0.0335 -0.3081
 8525SOL    HW226260   4.069   5.813   4.553 -0.1508  0.2493 -0.6041
 8526SOL     OW26261   1.110   1.488   2.689 -0.3390 -0.6997 -0.4369
 8526SOL    HW126262   1.036   1.490   2.628 -0.0633  2.6561 -0.8742
 8526SOL    HW226263   1.072   1.507   2.774 -0.1076  0.2715 -0.5385
 8527SOL     OW26264   0.043   3.505   1.319 -0.4469  0.0578  0.0879
 8527SOL    HW126265  -0.010   3.479   1.243  0.0216 -0.4107 -0.0849
 8527SOL    HW226266   0.114   3.441   1.321 -0.2451  0.3003  0.6984
 8528SOL     OW26267   1.798   6.422   5.358 -0.0370 -0.0314  0.3967
 8528SOL    HW126268   1.823   6.330   5.352 -1.4866 -0.5340  1.5233
 8528SOL    HW226269   1.852   6.457   5.429  0.0315 -0.1866  0.4227
 8529SOL     OW26270   0.916   2.141   1.307 -0.1120 -0.2236 -0.0026
 8529SOL    HW126271   0.931   2.226   1.349  0.7863 -0.1055 -0.5392
 8529SOL    HW226272   0.850   2.159   1.240 -1.9554 -0.5151  1.6262
 8530SOL     OW26273   6.884   2.678   6.811  0.1873  0.1153 -0.0264
 8530SOL    HW126274   6.887   2.603   6.752 -0.6824  0.4792 -0.5505
 8530SOL    HW226275   6.877   2.640   6.898 -2.9542 -0.4717 -0.4191
 8531SOL     OW26276   0.332   2.669   0.803 -0.1431  0.1828  0.0090
 8531SOL    HW126277   0.383   2.742   0.839  0.2298  0.0072 -0.1667
 8531SOL    HW226278   0.242   2.703   0.799 -0.2771  0.0562  1.5145
 8532SOL     OW26279   0.282   3.399   4.897 -0.1149 -0.6489  0.3925
 8532SOL    HW126280   0.191   3.387   4.922  0.0678 -0.5409  1.1398
 8532SOL    HW226281   0.287   3.489   4.863 -0.4049 -0.8648 -0.2402
 8533SOL     OW26282   3.742   5.031   0.981 -0.7412  0.6164  0.3031
 8533SOL    HW126283   3.745   4.958   0.919 -4.3809  0.4066  0.1459
 8533SOL    HW226284   3.796   5.099   0.941  2.0431 -1.5636  0.0272
 8534SOL     OW26285   6.287   0.427   3.143 -0.2576 -0.2469  0.2972
 8534SOL    HW126286   6.243   0.510   3.122  1.4565  0.2896 -1.5636
 8534SOL    HW226287   6.221   0.376   3.189 -1.8221  1.6307  0.2832
 8535SOL     OW26288   1.522   0.219   0.672  0.3995 -0.1126  0.1826
 8535SOL    HW126289   1.436   0.257   0.655 -0.3129 -2.2333 -1.4262
 8535SOL    HW226290   1.575   0.292   0.703 -1.7637  1.4064  0.4972
 8536SOL     OW26291   3.180   1.038   2.790 -0.3057  0.0855  0.4753
 8536SOL    HW126292   3.186   1.132   2.807 -1.0882  0.5065 -1.3504
 8536SOL    HW226293   3.103   1.028   2.735  0.5893 -1.4210 -0.5944
 8537SOL     OW26294   5.353   1.082   0.289  0.2407 -0.1504  0.3170
 8537SOL    HW126295   5.279   1.141   0.304 -0.2821 -0.4631 -0.9292
 8537SOL    HW226296   5.336   1.043   0.203  2.3125  0.4769 -0.4537
 8538SOL     OW26297   2.510   5.880   3.012  0.3375 -0.3193  0.7708
 8538SOL    HW126298   2.570   5.812   3.041  1.2482  1.0028  2.1175
 8538SOL    HW226299   2.547   5.961   3.045 -0.4220  0.9281 -1.2483
 8539SOL     OW26300   2.426   1.185   0.948  0.2081 -0.1232  0.1627
 8539SOL    HW126301   2.337   1.214   0.966 -0.2746 -1.8392  0.8095
 8539SOL    HW226302   2.469   1.261   0.910 -0.9535  1.3641  1.6400
 8540SOL     OW26303   2.291   6.781   6.410  0.0830  0.1114 -0.4890
 8540SOL    HW126304   2.282   6.724   6.333  1.3549 -1.4044  0.4252
 8540SOL    HW226305   2.271   6.868   6.377 -3.3246 -0.9427 -1.6890
 8541SOL     OW26306   3.251   6.568   0.790  0.3994 -1.2360 -0.0764
 8541SOL    HW126307   3.164   6.594   0.820 -0.3939 -1.8014 -1.7905
 8541SOL    HW226308   3.311   6.614   0.849 -0.9243  2.4673 -1.3525
 8542SOL     OW26309   4.911   6.450   1.818  0.4877  0.5302 -0.2828
 8542SOL    HW126310   4.884   6.443   1.726  1.2711 -0.8779 -0.4243
 8542SOL    HW226311   4.897   6.543   1.839 -1.1771  0.5680 -1.3435
 8543SOL     OW26312   3.796   4.970   2.769 -0.0103  0.3677 -0.4894
 8543SOL    HW126313   3.754   4.950   2.685  0.4971 -1.0293 -0.4429
 8543SOL    HW226314   3.883   4.929   2.762 -0.5643 -1.2404  1.3072
 8544SOL     OW26315   6.221   4.720   0.634 -0.4259  0.4740  0.0930
 8544SOL    HW126316   6.290   4.732   0.700  1.0529  0.2377 -1.3370
 8544SOL    HW226317   6.159   4.790   0.652 -0.8379 -0.4328  2.6027
 8545SOL     OW26318   2.257   0.376   2.194  0.0864 -0.2802 -0.0864
 8545SOL    HW126319   2.266   0.319   2.270 -0.9115  1.2397  1.2086
 8545SOL    HW226320   2.219   0.457   2.228  0.8971  0.9606 -1.9668
 8546SOL     OW26321   5.492   6.233   5.365  0.4721  0.1271 -0.2664
 8546SOL    HW126322   5.483   6.274   5.279 -0.3172  1.0021  0.2284
 8546SOL    HW226323   5.584   6.247   5.389  0.9584 -0.9537 -1.3601
 8547SOL     OW26324   2.875   6.130   5.198  0.5642 -0.0425 -0.1647
 8547SOL    HW126325   2.824   6.099   5.273  1.0506  1.2156  0.7213
 8547SOL    HW226326   2.901   6.051   5.152 -1.3459 -0.7511 -0.0762
 8548SOL     OW26327   1.822   0.426   0.039 -0.3041  0.1376  0.8082
 8548SOL    HW126328   1.855   0.480  -0.033 -0.0908  0.4013  1.1015
 8548SOL    HW226329   1.728   0.445   0.042 -0.6461 -1.1586 -0.4967
 8549SOL     OW26330   2.698   0.338   3.954 -0.1156 -0.2644  0.2690
 8549SOL    HW126331   2.710   0.247   3.980  1.0048 -0.0216  0.6673
 8549SOL    HW226332   2.605   0.345   3.931  0.2774 -2.1145 -2.2449
 8550SOL     OW26333   3.136   2.252   3.289 -0.3105 -0.5713 -0.0972
 8550SOL    HW126334   3.052   2.227   3.252 -0.8916 -0.2268  0.9509
 8550SOL    HW226335   3.140   2.347   3.280 -0.3739 -0.5045  0.5408
 8551SOL     OW26336   4.516   3.101   5.137 -0.2728 -0.6926 -0.0726
 8551SOL    HW126337   4.519   3.190   5.100  2.4332  0.0970  1.7727
 8551SOL    HW226338   4.578   3.051   5.083  0.1314 -0.7618  0.4448
 8552SOL     OW26339   2.083   3.338   1.345  0.1813 -0.0546 -0.4430
 8552SOL    HW126340   2.105   3.424   1.309 -0.3877 -0.6901 -2.4603
 8552SOL    HW226341   1.994   3.349   1.380 -0.0017  0.1294 -0.9478
 8553SOL     OW26342   1.325   1.643   2.631 -0.1197 -0.1455  0.2854
 8553SOL    HW126343   1.255   1.578   2.632 -0.4670  0.2034 -0.4511
 8553SOL    HW226344   1.279   1.727   2.633  0.3089  0.0829  0.7400
 8554SOL     OW26345   2.036   5.633   2.127  0.1105  0.6315  0.0117
 8554SOL    HW126346   2.124   5.664   2.150  0.9087 -0.1286 -1.8356
 8554SOL    HW226347   2.031   5.546   2.166  1.0405 -0.2025 -1.6210
 8555SOL     OW26348   0.976   1.798   5.207  0.1027 -0.7375  0.5417
 8555SOL    HW126349   0.897   1.804   5.261 -0.0961 -0.2299  0.2033
 8555SOL    HW226350   1.039   1.857   5.249  0.2017 -0.9089  0.6369
 8556SOL     OW26351   4.005   3.854   3.859 -0.3180  0.3584 -0.1910
 8556SOL    HW126352   4.021   3.894   3.944 -0.3125  0.9244 -0.4520
 8556SOL    HW226353   3.917   3.816   3.866 -0.2073  0.1693  0.1547
 8557SOL     OW26354   4.744   4.471   2.500 -0.0840  0.4749 -0.1436
 8557SOL    HW126355   4.738   4.462   2.405 -1.6126  1.0692 -0.1375
 8557SOL    HW226356   4.836   4.491   2.516  0.1050  0.8679 -1.5408
 8558SOL     OW26357   3.484   1.304   2.049  0.2654  0.1638 -0.0539
 8558SOL    HW126358   3.551   1.259   2.101  0.1005 -1.1930 -0.9755
 8558SOL    HW226359   3.512   1.292   1.958 -0.8861  0.1587 -0.4183
 8559SOL     OW26360   4.225   4.900   0.592  0.2974 -0.1504 -0.0024
 8559SOL    HW126361   4.297   4.846   0.624  1.0086  0.7615  0.0012
 8559SOL    HW226362   4.241   4.986   0.630  0.3833  0.6077 -1.6291
 8560SOL     OW26363   4.762   1.502   5.950 -0.2451  0.1944  0.2410
 8560SOL    HW126364   4.679   1.550   5.953 -0.1777  0.2784  1.3430
 8560SOL    HW226365   4.748   1.435   5.883 -1.6694 -0.5764  1.2517
 8561SOL     OW26366   1.341   4.023   5.705  0.0045  0.4678  0.2201
 8561SOL    HW126367   1.323   3.998   5.796  3.4051 -1.8709  0.4249
 8561SOL    HW226368   1.299   3.955   5.653 -1.7051  1.6582 -0.0492
 8562SOL     OW26369   6.868   4.818   0.814  0.1084 -0.0692 -0.3300
 8562SOL    HW126370   6.825   4.834   0.729 -0.2940 -1.5415 -0.4423
 8562SOL    HW226371   6.927   4.892   0.826  0.4586 -0.0170 -2.0891
 8563SOL     OW26372   2.861   2.745   4.158  0.1536 -0.7420  0.0346
 8563SOL    HW126373   2.924   2.687   4.200 -0.8627 -1.5662  0.4589
 8563SOL    HW226374   2.905   2.774   4.078  1.3905 -0.6180  0.7268
 8564SOL     OW26375   1.463   0.200   4.412 -0.3684 -0.5503 -0.1594
 8564SOL    HW126376   1.456   0.106   4.426 -2.2899 -0.6257 -1.3664
 8564SOL    HW226377   1.373   0.229   4.398 -0.0399  1.7825  1.9237
 8565SOL     OW26378   1.892   4.097   6.410 -0.4233 -0.2124 -0.5159
 8565SOL    HW126379   1.818   4.083   6.469  0.6316  2.1269  1.5383
 8565SOL    HW226380   1.857   4.155   6.342 -1.2398 -1.6775 -1.3982
 8566SOL     OW26381   0.756   3.281   3.339 -0.2784 -0.2621  0.5966
 8566SOL    HW126382   0.794   3.194   3.328  1.3027  0.4042  0.5566
 8566SOL    HW226383   0.753   3.294   3.434  0.3943  0.0008  0.5899
 8567SOL     OW26384   4.021   5.403   4.551  0.0725 -0.1719  0.3754
 8567SOL    HW126385   4.011   5.435   4.641 -3.0190 -0.4396  0.2466
 8567SOL    HW226386   3.939   5.358   4.533  0.8334 -0.6236 -2.4201
 8568SOL     OW26387   4.674   6.342   2.964 -0.2246 -0.1581  0.3029
 8568SOL    HW126388   4.615   6.287   2.913 -0.9222 -1.9077  2.8067
 8568SOL    HW226389   4.679   6.424   2.915 -0.2599 -1.9143 -2.8545
 8569SOL     OW26390   3.044   4.583   4.704 -0.2318  0.0321 -0.1941
 8569SOL    HW126391   3.059   4.490   4.687  1.2669  0.2145  0.0340
 8569SOL    HW226392   3.047   4.590   4.800 -0.9608  0.2317 -0.1787
 8570SOL     OW26393   4.140   2.414   3.827  0.2328 -0.1590 -0.2201
 8570SOL    HW126394   4.201   2.392   3.897 -0.1925 -1.9867 -0.3714
 8570SOL    HW226395   4.134   2.334   3.774 -0.4601  0.7530 -1.5794
 8571SOL     OW26396   4.980   5.712   1.187 -0.2214 -0.5860  0.1691
 8571SOL    HW126397   4.962   5.632   1.138  1.1224 -1.6010  1.2416
 8571SOL    HW226398   5.075   5.716   1.193 -0.3156 -0.1506  2.0661
 8572SOL     OW26399   1.766   0.750   3.648 -0.2701  0.2388  0.1896
 8572SOL    HW126400   1.761   0.756   3.553 -1.4057 -0.6135  0.1756
 8572SOL    HW226401   1.677   0.767   3.678 -0.1657 -0.6163  1.0267
 8573SOL     OW26402   0.934   2.383   4.168  0.1862  0.2815  0.1462
 8573SOL    HW126403   0.988   2.361   4.244  2.3499  1.0736 -1.0556
 8573SOL    HW226404   0.979   2.342   4.094 -1.8652 -0.4882 -0.7596
 8574SOL     OW26405   2.800   4.136   4.297  0.5753  1.0301 -0.4439
 8574SOL    HW126406   2.804   4.102   4.208 -0.9399  0.0463 -0.1607
 8574SOL    HW226407   2.778   4.229   4.286  2.2889  1.3900 -1.1277
 8575SOL     OW26408   6.396   0.570   4.640 -0.0558  0.2441 -0.4609
 8575SOL    HW126409   6.460   0.534   4.701  0.0251  0.6134 -0.3284
 8575SOL    HW226410   6.408   0.519   4.559 -0.8753 -0.9746  0.1436
 8576SOL     OW26411   2.799   0.872   3.353 -0.5097  0.4328 -0.7957
 8576SOL    HW126412   2.830   0.890   3.442 -2.2005 -2.2439  0.4748
 8576SOL    HW226413   2.713   0.831   3.365 -0.5071 -0.6282 -3.6166
 8577SOL     OW26414   5.425   1.769   3.054 -0.4293 -0.6540 -0.2373
 8577SOL    HW126415   5.383   1.728   2.978  0.7510 -0.3359 -1.0871
 8577SOL    HW226416   5.386   1.725   3.129 -3.1185  0.3510 -0.8988
 8578SOL     OW26417   2.318   5.067   3.830  0.5183  0.1637 -0.0946
 8578SOL    HW126418   2.259   5.051   3.903 -1.0261  1.3997 -1.0155
 8578SOL    HW226419   2.348   4.980   3.803 -3.0856 -0.8571 -1.3537
 8579SOL     OW26420   1.303   2.943   4.530  0.6059 -0.2650 -0.0320
 8579SOL    HW126421   1.300   3.038   4.523 -0.7073 -0.3476 -1.0332
 8579SOL    HW226422   1.384   2.918   4.486  1.3368  0.4094  0.8725
 8580SOL     OW26423   4.160   6.390   2.555 -0.7218  0.3073 -0.2873
 8580SOL    HW126424   4.181   6.431   2.471  0.1779  0.3469 -0.0527
 8580SOL    HW226425   4.099   6.451   2.597 -0.5300  0.6905 -0.5608
 8581SOL     OW26426   4.308   1.449   0.790 -0.2799 -0.0965  0.1287
 8581SOL    HW126427   4.216   1.424   0.801 -0.3336  0.3362  0.6722
 8581SOL    HW226428   4.355   1.366   0.793 -0.7518 -0.4471 -1.3679
 8582SOL     OW26429   5.219   1.082   1.985 -0.5328  0.5663 -0.2731
 8582SOL    HW126430   5.228   1.146   1.915 -0.4363  0.0733 -0.7213
 8582SOL    HW226431   5.183   1.131   2.059  0.9096  1.4482 -0.1326
 8583SOL     OW26432   0.513   6.518   2.814  0.2179  0.3479  0.0261
 8583SOL    HW126433   0.452   6.555   2.877  0.6537  3.0371 -0.9950
 8583SOL    HW226434   0.600   6.538   2.849  0.4745  0.0955 -0.4508
 8584SOL     OW26435   4.073   2.810   4.739  0.3653  0.2129  0.2460
 8584SOL    HW126436   4.165   2.826   4.760  0.2883  3.2134 -1.1265
 8584SOL    HW226437   4.029   2.806   4.825  1.8917 -3.4487  1.0547
 8585SOL     OW26438   4.358   1.810   2.232 -0.1308  0.0220  0.9677
 8585SOL    HW126439   4.439   1.831   2.279  1.0333 -3.3939  0.7739
 8585SOL    HW226440   4.290   1.812   2.299  0.4464  0.9520  1.5482
 8586SOL     OW26441   6.667   4.996   5.969 -0.8396 -0.0363 -0.5904
 8586SOL    HW126442   6.634   5.080   5.940 -0.8156 -0.3499 -1.5487
 8586SOL    HW226443   6.692   4.950   5.889 -1.6654 -1.3005 -0.1549
 8587SOL     OW26444   4.587   2.810   3.442  0.4224  0.3541 -0.0959
 8587SOL    HW126445   4.546   2.727   3.415  0.5645  0.8375 -1.9027
 8587SOL    HW226446   4.660   2.783   3.497  1.2797 -0.8403 -1.7131
 8588SOL     OW26447   2.716   6.039   4.829 -0.1824 -0.4630 -0.0541
 8588SOL    HW126448   2.725   6.133   4.813  0.4460 -0.2690  1.2902
 8588SOL    HW226449   2.662   6.033   4.907  0.3170 -1.1921  0.2483
 8589SOL     OW26450   1.056   3.740   2.942  0.0001 -0.1793 -0.2376
 8589SOL    HW126451   1.131   3.682   2.953 -0.9660 -1.2542  1.0745
 8589SOL    HW226452   1.031   3.729   2.850  0.6751 -0.8024 -0.3549
 8590SOL     OW26453   6.796   3.595   1.917 -0.7652  0.3438  0.0862
 8590SOL    HW126454   6.731   3.526   1.905 -1.5456  0.9884  0.4662
 8590SOL    HW226455   6.758   3.653   1.983  2.3697 -1.8760  4.2704
 8591SOL     OW26456   6.577   3.012   4.092 -0.2101 -0.6976 -0.2037
 8591SOL    HW126457   6.574   2.956   4.170 -1.3643 -2.5263 -1.4817
 8591SOL    HW226458   6.667   3.042   4.087 -0.1766 -0.2912  1.9923
 8592SOL     OW26459   2.456   4.442   3.906 -0.3080  0.3644  0.8721
 8592SOL    HW126460   2.535   4.390   3.920  0.7708  1.0654 -1.8904
 8592SOL    HW226461   2.477   4.529   3.939  1.5826  1.5494 -2.8769
 8593SOL     OW26462   5.600   0.450   1.549  0.1279  0.3232 -0.1302
 8593SOL    HW126463   5.505   0.438   1.540  0.4045 -1.2334 -1.5285
 8593SOL    HW226464   5.633   0.362   1.567  1.4555  0.5160 -1.4098
 8594SOL     OW26465   4.615   5.758   1.379 -0.2020  0.1056 -0.2903
 8594SOL    HW126466   4.597   5.814   1.304  0.0721  1.4617  0.6136
 8594SOL    HW226467   4.710   5.764   1.391 -0.1376 -0.7573 -0.3327
 8595SOL     OW26468   5.087   0.616   4.373  0.0680  0.1592  0.0241
 8595SOL    HW126469   5.032   0.604   4.451 -0.9295 -2.7832 -1.0146
 8595SOL    HW226470   5.166   0.565   4.390  1.4480  2.2982  0.4362
 8596SOL     OW26471   1.372   1.552   5.964  0.6170 -0.1706  0.0794
 8596SOL    HW126472   1.381   1.639   5.925  2.8781 -0.2533  0.2805
 8596SOL    HW226473   1.296   1.560   6.022 -0.1210  1.2210 -1.0290
 8597SOL     OW26474   3.539   6.827   2.692 -0.1665  0.4972 -0.5152
 8597SOL    HW126475   3.479   6.853   2.762  0.5636 -1.3944  0.9030
 8597SOL    HW226476   3.494   6.755   2.647 -0.0727  0.8396 -1.1679
 8598SOL     OW26477   2.821   0.015   3.164 -0.1873 -0.2027  0.2498
 8598SOL    HW126478   2.732   0.047   3.175 -0.3420  0.2721 -1.8553
 8598SOL    HW226479   2.868   0.046   3.241 -1.7049  0.0092  1.1211
 8599SOL     OW26480   2.115   0.137   3.081 -0.5906 -0.1563 -1.0654
 8599SOL    HW126481   2.023   0.119   3.061 -0.5935 -0.9167 -0.4018
 8599SOL    HW226482   2.161   0.111   3.001 -0.7438 -1.8907 -0.6259
 8600SOL     OW26483   2.973   4.947   2.256 -0.0809 -0.0014 -0.1764
 8600SOL    HW126484   3.005   4.915   2.172  0.7415 -1.9472  0.8152
 8600SOL    HW226485   2.913   4.878   2.286 -2.2683  1.7736 -0.2154
 8601SOL     OW26486   2.005   2.251   2.279 -0.3817  0.6357 -0.1839
 8601SOL    HW126487   1.929   2.289   2.323 -1.9029 -1.0420 -1.2365
 8601SOL    HW226488   2.000   2.158   2.297 -0.5737 -0.0108 -3.0199
 8602SOL     OW26489   2.722   2.575   5.739  0.7823  0.1483 -0.3578
 8602SOL    HW126490   2.756   2.610   5.821  1.2899  0.0481 -0.5262
 8602SOL    HW226491   2.759   2.487   5.733  2.4794  0.9127 -1.7439
 8603SOL     OW26492   2.891   3.841   3.040  0.4417  0.8055 -0.2861
 8603SOL    HW126493   2.960   3.856   3.105  2.1058  1.6461 -2.1557
 8603SOL    HW226494   2.912   3.757   3.001 -0.9175  0.0036  0.6384
 8604SOL     OW26495   4.947   5.301   2.942  0.2353  0.1568 -0.4804
 8604SOL    HW126496   4.906   5.244   2.877 -3.5760  0.5855  1.2628
 8604SOL    HW226497   4.969   5.243   3.014  0.4348  0.2895 -0.4341
 8605SOL     OW26498   3.884   1.898   1.995 -0.0884 -0.0360 -1.0458
 8605SOL    HW126499   3.805   1.850   2.020 -1.3412  1.6138 -1.6439
 8605SOL    HW226500   3.943   1.887   2.069 -0.5076 -2.0318 -0.9499
 8606SOL     OW26501   1.310   2.478   1.263 -0.2569  0.2935 -0.0822
 8606SOL    HW126502   1.268   2.560   1.290 -1.4038  0.6079 -2.5234
 8606SOL    HW226503   1.373   2.505   1.195  1.2678 -0.6062  0.9189
 8607SOL     OW26504   5.732   3.937   3.240 -0.1874  0.3849  0.0441
 8607SOL    HW126505   5.638   3.948   3.247 -0.0377  2.4496 -0.2595
 8607SOL    HW226506   5.750   3.944   3.146  0.2730  0.1248  0.1078
 8608SOL     OW26507   1.898   6.126   1.558  0.3307 -0.8260  0.1403
 8608SOL    HW126508   1.946   6.066   1.502  0.4884 -0.2812 -0.3191
 8608SOL    HW226509   1.934   6.113   1.645  1.2102 -0.5385 -0.1716
 8609SOL     OW26510   6.020   2.764   3.741 -0.2787 -0.2663  0.0821
 8609SOL    HW126511   6.102   2.719   3.724 -0.3306  0.1390 -1.3407
 8609SOL    HW226512   6.038   2.856   3.722 -0.6987  0.0376  1.0748
 8610SOL     OW26513   3.968   5.038   5.774  0.0067  0.1863  0.2191
 8610SOL    HW126514   4.013   5.079   5.700  0.2087 -0.1591  0.1435
 8610SOL    HW226515   3.891   4.997   5.736 -1.0809  1.8677  0.5481
 8611SOL     OW26516   4.155   2.040   2.083 -0.4352 -0.0027  0.5089
 8611SOL    HW126517   4.179   2.005   1.997 -1.6585 -0.6193  0.4005
 8611SOL    HW226518   4.207   2.120   2.092 -0.8381  0.4756 -1.1316
 8612SOL     OW26519   0.074   6.688   5.834  0.3352 -0.1320  0.5461
 8612SOL    HW126520   0.025   6.663   5.755  1.2739  0.5255 -0.2763
 8612SOL    HW226521   0.114   6.607   5.864  3.1739  0.1217 -1.9618
 8613SOL     OW26522   5.095   0.884   5.550 -0.0809 -0.3019  0.0998
 8613SOL    HW126523   5.005   0.873   5.579  0.4715 -0.2081  1.9619
 8613SOL    HW226524   5.102   0.978   5.529 -0.7359 -0.5424 -1.3318
 8614SOL     OW26525   5.922   4.059   6.806 -0.1649  0.0723  0.1626
 8614SOL    HW126526   5.980   3.983   6.809  0.9430  0.8555 -0.7484
 8614SOL    HW226527   5.872   4.054   6.888 -0.8189 -2.1451 -0.3044
 8615SOL     OW26528   1.833   1.055   4.111  0.0762 -0.1403 -0.0616
 8615SOL    HW126529   1.912   1.058   4.166  0.3763  2.5277 -0.5186
 8615SOL    HW226530   1.849   0.982   4.051  1.6307 -0.4698  0.6895
 8616SOL     OW26531   4.397   4.227   5.615  0.0522  0.4246  0.0842
 8616SOL    HW126532   4.484   4.234   5.655 -0.2235  2.2951  0.4490
 8616SOL    HW226533   4.338   4.211   5.689 -0.2631  2.2896  0.2800
 8617SOL     OW26534   6.274   5.324   0.440  0.3760  0.0033 -0.3866
 8617SOL    HW126535   6.217   5.292   0.370 -0.4543 -1.2225  0.7875
 8617SOL    HW226536   6.277   5.419   0.427 -0.2076 -0.1360 -1.7388
 8618SOL     OW26537   1.142   0.073   5.717  0.4592  0.1205 -0.6737
 8618SOL    HW126538   1.167   0.011   5.785 -2.6582 -0.9174 -0.2994
 8618SOL    HW226539   1.156   0.159   5.757  0.9444 -0.4225  0.3742
 8619SOL     OW26540   2.370   2.012   5.638 -0.3093  0.1076 -0.5312
 8619SOL    HW126541   2.288   1.970   5.665 -1.0892  1.1285 -1.2587
 8619SOL    HW226542   2.402   2.056   5.717 -1.2689  0.9778 -0.6071
 8620SOL     OW26543   3.691   5.460   3.203 -0.2715  0.4439 -0.1346
 8620SOL    HW126544   3.643   5.379   3.192 -2.1889  1.3708  0.9345
 8620SOL    HW226545   3.758   5.440   3.269  0.6703 -0.7746 -1.4124
 8621SOL     OW26546   3.320   5.556   0.119  0.0887  0.1944  0.3832
 8621SOL    HW126547   3.361   5.626   0.170  0.4743 -0.0738  0.4527
 8621SOL    HW226548   3.346   5.574   0.028  0.2596  0.1000  0.4112
 8622SOL     OW26549   5.139   4.588   2.255 -0.4318  0.4003  0.1355
 8622SOL    HW126550   5.067   4.536   2.292  0.0814  0.0654  0.6830
 8622SOL    HW226551   5.156   4.548   2.170 -1.8591  1.3950 -0.6723
 8623SOL     OW26552   0.048   6.781   4.859  0.3966  0.1672 -0.7836
 8623SOL    HW126553   0.000   6.722   4.917  0.8986 -0.0489 -0.5878
 8623SOL    HW226554   0.094   6.840   4.918  0.0928  0.6048 -0.9765
 8624SOL     OW26555   6.025   6.610   0.511 -0.1068 -0.4096 -0.2632
 8624SOL    HW126556   6.113   6.607   0.474 -0.0287  0.6429 -0.2000
 8624SOL    HW226557   6.037   6.591   0.604  0.0371 -0.4086 -0.2819
 8625SOL     OW26558   3.854   5.133   3.216 -0.3206  0.1938  0.4538
 8625SOL    HW126559   3.838   5.072   3.144  0.3000 -0.6017  0.9701
 8625SOL    HW226560   3.886   5.213   3.174 -1.1979  0.1985 -0.2335
 8626SOL     OW26561   5.212   2.352   0.745  0.0467  0.4100  0.0988
 8626SOL    HW126562   5.198   2.369   0.838  0.7450  1.5178  0.0245
 8626SOL    HW226563   5.203   2.438   0.703 -1.2999 -0.2349 -1.0093
 8627SOL     OW26564   4.632   3.220   3.547 -0.0631  0.2723  0.1275
 8627SOL    HW126565   4.605   3.252   3.633 -2.2036 -0.4948 -0.2045
 8627SOL    HW226566   4.635   3.299   3.492 -0.2557  0.5519  0.5166
 8628SOL     OW26567   5.979   4.089   6.273 -0.4233  0.3310  0.0924
 8628SOL    HW126568   5.909   4.153   6.259  0.4174  1.0402 -0.9752
 8628SOL    HW226569   6.048   4.138   6.318  1.2411  0.9231 -2.8721
 8629SOL     OW26570   3.389   4.244   6.895 -0.4035  0.1541 -0.3003
 8629SOL    HW126571   3.428   4.322   6.933  0.2869  0.0120 -0.7001
 8629SOL    HW226572   3.297   4.247   6.923 -0.1027  0.4571  0.7086
 8630SOL     OW26573   3.748   1.532   3.829 -0.5260 -0.1787  0.1442
 8630SOL    HW126574   3.713   1.620   3.845  0.2485 -0.3233  3.1112
 8630SOL    HW226575   3.803   1.543   3.751  0.3262  2.2383  0.9752
 8631SOL     OW26576   4.822   4.945   3.169 -0.7004  0.5413  0.6221
 8631SOL    HW126577   4.766   4.959   3.093 -0.4237 -0.7909  0.1455
 8631SOL    HW226578   4.837   4.850   3.171 -0.3918  0.6006  2.1185
 8632SOL     OW26579   6.666   1.639   1.143  0.1668  0.3482 -0.0333
 8632SOL    HW126580   6.722   1.711   1.173 -0.5792  1.0084 -0.1864
 8632SOL    HW226581   6.633   1.599   1.224  1.4887 -0.5820  0.0805
 8633SOL     OW26582   1.419   4.141   0.199 -0.0523  0.6320 -0.1158
 8633SOL    HW126583   1.332   4.145   0.239  0.8458 -2.3654  2.5753
 8633SOL    HW226584   1.478   4.175   0.267  1.1144  0.1231 -0.8531
 8634SOL     OW26585   0.235   6.114   5.112  0.3328 -0.4932 -0.3837
 8634SOL    HW126586   0.317   6.109   5.162 -0.6904 -0.6160  1.3799
 8634SOL    HW226587   0.226   6.028   5.071  0.3278 -1.0299  0.7095
 8635SOL     OW26588   6.183   2.844   6.699 -0.0107 -0.2782 -0.0042
 8635SOL    HW126589   6.136   2.902   6.758 -1.4130 -1.6110  0.2777
 8635SOL    HW226590   6.162   2.876   6.611 -0.4574 -0.1214  0.1592
 8636SOL     OW26591   4.854   1.945   5.517 -0.1321 -0.6956  0.0623
 8636SOL    HW126592   4.823   1.886   5.448 -0.3581  1.9451 -2.2960
 8636SOL    HW226593   4.791   2.017   5.518  2.3152  1.6494 -0.3610
 8637SOL     OW26594   0.973   0.588   0.829 -0.1141 -0.0634  0.1774
 8637SOL    HW126595   0.976   0.560   0.738 -1.1511  0.8836 -0.1590
 8637SOL    HW226596   0.921   0.521   0.873  0.8888 -0.8451  0.2213
 8638SOL     OW26597   3.667   1.770   3.353 -0.3744 -0.3663  0.1308
 8638SOL    HW126598   3.756   1.747   3.326  0.1276  1.4121  0.1144
 8638SOL    HW226599   3.654   1.726   3.437  1.0181  0.3882  0.7638
 8639SOL     OW26600   2.438   4.866   1.249  0.0328  0.9380  0.4563
 8639SOL    HW126601   2.386   4.941   1.220 -1.0635 -0.1433 -0.4733
 8639SOL    HW226602   2.417   4.796   1.187 -0.4897 -0.7432  2.4012
 8640SOL     OW26603   0.571   4.144   4.084 -0.1173  0.0407  0.6939
 8640SOL    HW126604   0.560   4.049   4.077  1.5794 -0.1009 -1.0207
 8640SOL    HW226605   0.665   4.156   4.095 -0.0492  1.5669 -1.0184
 8641SOL     OW26606   5.719   4.488   1.944  0.4267 -0.4102  0.0885
 8641SOL    HW126607   5.747   4.396   1.940  0.4138 -0.4287  0.4121
 8641SOL    HW226608   5.711   4.514   1.852  0.6610 -0.6619 -0.0058
 8642SOL     OW26609   5.295   2.187   6.140 -0.6585 -0.0756 -0.6242
 8642SOL    HW126610   5.283   2.103   6.096 -1.0751 -0.1917 -0.2885
 8642SOL    HW226611   5.206   2.220   6.153 -0.5705 -0.3056  0.6479
 8643SOL     OW26612   3.490   3.577   5.596 -0.4489  0.4056 -0.5460
 8643SOL    HW126613   3.469   3.550   5.686  1.1206 -0.5513 -0.4292
 8643SOL    HW226614   3.579   3.545   5.581  1.1723  4.4183 -0.8718
 8644SOL     OW26615   3.467   0.807   3.933 -0.6703 -0.3600 -0.6411
 8644SOL    HW126616   3.522   0.739   3.971  0.1585  0.2091 -0.7844
 8644SOL    HW226617   3.520   0.845   3.863 -0.1425  1.9590  0.8852
 8645SOL     OW26618   2.775   2.759   0.445  0.0735 -0.2640  0.1812
 8645SOL    HW126619   2.762   2.853   0.432  1.0071 -0.1132  0.2601
 8645SOL    HW226620   2.724   2.738   0.524 -0.8200 -0.0067 -0.3124
 8646SOL     OW26621   3.957   5.193   4.251  0.5731 -0.5578  0.1332
 8646SOL    HW126622   4.035   5.234   4.215 -0.5458  0.6543 -1.0259
 8646SOL    HW226623   3.887   5.257   4.237 -0.3375 -0.8708  2.6905
 8647SOL     OW26624   0.436   6.133   3.546 -0.5168 -0.2211  0.7198
 8647SOL    HW126625   0.495   6.068   3.506  0.9251 -0.0316  2.4198
 8647SOL    HW226626   0.363   6.140   3.485  0.8655 -1.0370 -1.1278
 8648SOL     OW26627   3.494   4.769   6.341 -0.1087 -1.0347 -0.4329
 8648SOL    HW126628   3.454   4.685   6.361  0.3878 -1.0444  0.5482
 8648SOL    HW226629   3.542   4.793   6.420 -1.6365  0.9885 -0.0142
 8649SOL     OW26630   1.658   3.564   6.697  0.3250  0.7547 -0.5702
 8649SOL    HW126631   1.628   3.593   6.611 -1.7114  3.0348  0.7616
 8649SOL    HW226632   1.631   3.473   6.703 -0.6609  0.9350 -1.8629
 8650SOL     OW26633   6.025   1.330   6.408  0.2006  0.6580  0.7793
 8650SOL    HW126634   6.040   1.394   6.339 -0.3250  0.6472  0.6522
 8650SOL    HW226635   6.107   1.280   6.413 -0.4526 -0.7067 -1.2373
 8651SOL     OW26636   0.553   0.937   5.333  0.5031 -0.3062  0.4077
 8651SOL    HW126637   0.581   0.882   5.407 -0.9407 -1.2314  0.3155
 8651SOL    HW226638   0.520   1.016   5.374  0.1840 -0.6037  0.7376
 8652SOL     OW26639   3.415   6.632   1.421 -0.3362  0.2435  0.2731
 8652SOL    HW126640   3.400   6.669   1.334 -1.1412 -0.6447  0.0186
 8652SOL    HW226641   3.483   6.688   1.459  0.5966  0.1781 -1.2175
 8653SOL     OW26642   0.377   5.205   6.179 -0.1368  0.2094  0.4054
 8653SOL    HW126643   0.379   5.301   6.178 -1.6643  0.2741  0.7748
 8653SOL    HW226644   0.291   5.184   6.216 -0.0245 -1.3010 -0.1506
 8654SOL     OW26645   4.323   4.833   4.490 -0.1728  0.0980  0.2894
 8654SOL    HW126646   4.389   4.805   4.426 -1.6595 -0.7284 -0.9396
 8654SOL    HW226647   4.273   4.901   4.444 -1.5073 -0.7762  0.3891
 8655SOL     OW26648   0.717   4.005   3.599  0.0536  0.1813  0.2166
 8655SOL    HW126649   0.744   4.030   3.687  2.2236 -0.3593 -0.2483
 8655SOL    HW226650   0.685   4.087   3.559 -0.1936  0.5841  1.2188
 8656SOL     OW26651   0.362   4.187   0.615 -0.1547  0.1327 -0.1925
 8656SOL    HW126652   0.359   4.091   0.614 -0.5282  0.1208  0.9623
 8656SOL    HW226653   0.370   4.210   0.708  2.7184  1.1621 -0.5921
 8657SOL     OW26654   0.101   6.454   1.577 -0.3245 -0.2631  0.5898
 8657SOL    HW126655   0.155   6.453   1.498  0.5458 -1.0116  1.1653
 8657SOL    HW226656   0.153   6.504   1.641 -0.3366 -0.9148  1.1227
 8658SOL     OW26657   5.685   1.001   2.439 -0.4539  0.1010  0.1212
 8658SOL    HW126658   5.591   0.982   2.444 -0.5708  0.5286 -0.3814
 8658SOL    HW226659   5.722   0.925   2.394 -0.6508  0.2077 -0.2275
 8659SOL     OW26660   4.504   5.789   5.079 -0.3073 -0.2541 -0.0078
 8659SOL    HW126661   4.597   5.783   5.057 -0.0459 -2.6963  1.3379
 8659SOL    HW226662   4.502   5.840   5.160 -0.2026  0.2690 -0.3340
 8660SOL     OW26663   3.979   6.055   4.842 -0.0717  0.1672  0.3245
 8660SOL    HW126664   4.016   6.026   4.925  1.9874  1.4850 -0.0431
 8660SOL    HW226665   4.014   5.994   4.777  1.4420  1.3288 -0.0060
 8661SOL     OW26666   2.165   3.433   5.588  0.2515 -0.0597 -0.1702
 8661SOL    HW126667   2.181   3.342   5.616  1.7880  0.4550  0.7552
 8661SOL    HW226668   2.110   3.424   5.510  0.5521 -1.8010 -0.2435
 8662SOL     OW26669   5.026   4.562   0.456 -0.0388  0.1206  0.2652
 8662SOL    HW126670   4.980   4.641   0.484 -2.0345 -0.5889 -0.7545
 8662SOL    HW226671   4.975   4.490   0.494  1.3388 -0.7178  0.6138
 8663SOL     OW26672   0.342   4.066   1.781  0.2545  0.1715 -0.1476
 8663SOL    HW126673   0.403   3.997   1.809 -0.4185 -0.3523  0.0706
 8663SOL    HW226674   0.255   4.026   1.790 -0.1272  0.9255 -0.3866
 8664SOL     OW26675   1.021   6.737   5.632  0.4825 -0.0888  0.4543
 8664SOL    HW126676   1.072   6.817   5.642 -0.3445  0.2467  2.4177
 8664SOL    HW226677   0.930   6.766   5.633  0.1456 -1.0980  2.0889
 8665SOL     OW26678   0.955   6.175   1.669 -0.4037 -0.4171 -0.3482
 8665SOL    HW126679   0.990   6.219   1.592  1.5818 -1.1673  0.0580
 8665SOL    HW226680   0.870   6.215   1.683  0.3967  1.7727 -1.2539
 8666SOL     OW26681   2.416   3.493   5.595 -0.2928 -0.0101  0.2436
 8666SOL    HW126682   2.460   3.426   5.647 -0.4361  0.0921  0.5025
 8666SOL    HW226683   2.323   3.474   5.606 -0.3079 -0.7314 -0.9775
 8667SOL     OW26684   5.133   1.720   0.993 -0.3527 -0.2049 -0.2458
 8667SOL    HW126685   5.219   1.681   0.977 -0.4801 -0.6892  0.2156
 8667SOL    HW226686   5.096   1.733   0.906  0.0127 -0.3917 -0.4329
 8668SOL     OW26687   2.023   3.209   5.887 -0.1588 -0.6157 -0.3329
 8668SOL    HW126688   2.056   3.298   5.901  1.3394 -0.9639 -1.3928
 8668SOL    HW226689   1.937   3.220   5.848 -0.1182  0.3637 -0.1641
 8669SOL     OW26690   0.881   1.559   6.573  1.1253 -0.0809 -0.1072
 8669SOL    HW126691   0.910   1.551   6.664  2.0689 -1.2511 -0.4880
 8669SOL    HW226692   0.962   1.559   6.522  0.6599  1.4954 -0.9163
 8670SOL     OW26693   2.126   1.917   0.968 -0.2389  0.9474  0.0002
 8670SOL    HW126694   2.056   1.969   1.007 -0.9554  1.0980 -1.4245
 8670SOL    HW226695   2.104   1.914   0.875  0.1473 -1.3505 -0.0603
 8671SOL     OW26696   6.699   0.371   0.430  0.0090  0.1993 -0.0416
 8671SOL    HW126697   6.777   0.317   0.440 -0.9839 -1.5065 -1.0241
 8671SOL    HW226698   6.683   0.374   0.336 -1.3531  0.1466  0.1593
 8672SOL     OW26699   0.087   6.469   6.702  0.3101  0.0500  0.2439
 8672SOL    HW126700   0.163   6.444   6.754  0.8145  0.0012 -0.5114
 8672SOL    HW226701   0.121   6.485   6.614 -0.1935  2.1065  0.3662
 8673SOL     OW26702   1.151   2.359   6.164 -0.6635 -0.3103  0.3844
 8673SOL    HW126703   1.071   2.308   6.179 -1.2708  0.5327  0.0462
 8673SOL    HW226704   1.193   2.316   6.089 -0.7625 -0.7947  0.6025
 8674SOL     OW26705   2.612   5.343   1.687  0.3696 -0.0876 -0.0207
 8674SOL    HW126706   2.649   5.335   1.775  0.2372 -0.4131  0.0062
 8674SOL    HW226707   2.637   5.431   1.658  0.8221 -0.1564  0.1541
 8675SOL     OW26708   3.681   4.548   1.573 -0.0645  0.2280 -0.3183
 8675SOL    HW126709   3.750   4.508   1.520  0.2564 -1.8687  1.5560
 8675SOL    HW226710   3.600   4.528   1.526  0.2527 -1.1399 -0.3193
 8676SOL     OW26711   3.456   4.337   2.945 -0.0315  0.2343 -0.2751
 8676SOL    HW126712   3.477   4.254   2.902  0.6460  0.4797 -0.4385
 8676SOL    HW226713   3.542   4.372   2.971 -0.3406  0.7013  0.1318
 8677SOL     OW26714   3.618   0.245   3.167 -0.6040  0.2485 -0.5763
 8677SOL    HW126715   3.605   0.153   3.192  0.9762  0.4825  1.3662
 8677SOL    HW226716   3.710   0.250   3.143 -0.2201  1.6606  1.0534
 8678SOL     OW26717   5.310   3.209   0.824  0.4005 -0.0180 -0.4042
 8678SOL    HW126718   5.326   3.201   0.918 -1.5337 -1.1053 -0.1303
 8678SOL    HW226719   5.392   3.179   0.784  0.1814 -2.6768  0.9177
 8679SOL     OW26720   3.530   0.087   6.612 -0.1570  0.2330 -0.1476
 8679SOL    HW126721   3.524   0.115   6.521 -1.7036  2.3496  0.5167
 8679SOL    HW226722   3.439   0.089   6.643  0.5045  1.3862  1.9033
 8680SOL     OW26723   3.880   6.304   6.002  0.6298 -0.2143  0.5195
 8680SOL    HW126724   3.837   6.218   5.993 -0.6448  0.4185  0.2512
 8680SOL    HW226725   3.866   6.328   6.093  0.4873 -0.0466  0.4539
 8681SOL     OW26726   4.088   6.336   1.385  0.6032 -0.4655 -0.3545
 8681SOL    HW126727   4.071   6.369   1.473  0.4651 -0.3771 -0.4138
 8681SOL    HW226728   4.117   6.246   1.398 -3.6494 -2.0406 -0.4395
 8682SOL     OW26729   1.780   1.944   3.157 -0.3993  1.0694  0.3268
 8682SOL    HW126730   1.871   1.973   3.153  0.2135 -0.5599  1.2315
 8682SOL    HW226731   1.746   1.980   3.238 -0.2784  0.9665  0.4237
 8683SOL     OW26732   4.524   0.383   1.424  0.5341 -0.6125  0.1364
 8683SOL    HW126733   4.492   0.468   1.452  1.2205 -0.2991 -0.0186
 8683SOL    HW226734   4.474   0.362   1.345  0.8935 -0.0205 -0.2448
 8684SOL     OW26735   3.680   3.172   1.554 -0.2017 -0.2610 -0.2202
 8684SOL    HW126736   3.610   3.227   1.519  1.0095  1.2519 -0.3797
 8684SOL    HW226737   3.635   3.104   1.605 -1.8459 -0.4214 -1.7878
 8685SOL     OW26738   2.541   6.206   6.126  1.1445 -0.0244 -0.3673
 8685SOL    HW126739   2.481   6.186   6.054 -1.8437  0.3476  1.8250
 8685SOL    HW226740   2.579   6.121   6.149  0.7408 -0.4438 -1.1928
 8686SOL     OW26741   2.802   5.421   3.129  0.7391 -0.1639 -0.3535
 8686SOL    HW126742   2.866   5.489   3.110  2.0593 -1.3497 -0.3323
 8686SOL    HW226743   2.854   5.342   3.144 -0.5936 -0.7571  1.6611
 8687SOL     OW26744   5.086   3.274   3.139  0.0137  0.4149  0.4059
 8687SOL    HW126745   5.174   3.305   3.117 -0.9344  1.5079 -2.1932
 8687SOL    HW226746   5.072   3.306   3.229  1.5886  1.7841  0.2247
 8688SOL     OW26747   5.710   1.647   2.505  0.3084  0.1412  0.1513
 8688SOL    HW126748   5.625   1.664   2.546  0.3749 -1.3640  1.0178
 8688SOL    HW226749   5.709   1.552   2.489  1.5416  0.2250 -0.4877
 8689SOL     OW26750   2.926   4.698   0.604 -0.4121 -0.3665  0.5181
 8689SOL    HW126751   2.955   4.610   0.628  1.0196  0.2029  1.0004
 8689SOL    HW226752   2.943   4.751   0.682  0.0170  0.5971 -0.2105
 8690SOL     OW26753   6.031   6.178   2.003 -0.1280  0.0889 -0.6053
 8690SOL    HW126754   6.039   6.272   2.016  1.6342 -0.0678 -0.4011
 8690SOL    HW226755   5.947   6.155   2.043 -0.2420  1.4580 -0.0256
 8691SOL     OW26756   5.523   6.506   2.357 -0.3142  0.0312  0.0217
 8691SOL    HW126757   5.580   6.459   2.296  0.7264  1.2292  0.0251
 8691SOL    HW226758   5.543   6.468   2.442 -0.9890 -0.9090 -0.2238
 8692SOL     OW26759   4.391   4.548   1.561  0.2077 -0.6127 -0.0654
 8692SOL    HW126760   4.433   4.463   1.543  2.1300 -0.1728  1.9606
 8692SOL    HW226761   4.366   4.543   1.653  0.7396  1.1718  0.2020
 8693SOL     OW26762   3.633   6.740   2.245  0.4259 -0.1775  0.4625
 8693SOL    HW126763   3.565   6.683   2.282  1.4626 -2.0646 -0.3966
 8693SOL    HW226764   3.714   6.710   2.287  1.0668  0.3612 -0.3705
 8694SOL     OW26765   1.571   5.651   5.555 -0.2680  0.1160  0.5760
 8694SOL    HW126766   1.552   5.652   5.461  0.3604  0.3788  0.4467
 8694SOL    HW226767   1.611   5.566   5.570  1.9307  1.0084  0.1159
 8695SOL     OW26768   3.025   6.295   4.835  0.1623 -0.1548  0.3927
 8695SOL    HW126769   2.930   6.295   4.849  0.3132  0.6295  1.4480
 8695SOL    HW226770   3.044   6.382   4.802 -0.0266 -1.5230 -4.1363
 8696SOL     OW26771   6.537   1.828   3.929  0.6153 -0.0943 -0.5856
 8696SOL    HW126772   6.521   1.736   3.950 -0.4042 -0.0201 -0.9899
 8696SOL    HW226773   6.617   1.849   3.976  1.0311 -1.2696 -0.7348
 8697SOL     OW26774   6.274   3.949   0.795  0.0682  0.0893 -0.1436
 8697SOL    HW126775   6.312   4.028   0.756  0.3824 -0.0411 -0.1037
 8697SOL    HW226776   6.188   3.978   0.827 -0.0992  0.2513 -0.7240
 8698SOL     OW26777   3.003   4.070   6.659  0.3681 -0.5465 -0.2658
 8698SOL    HW126778   3.012   4.125   6.581 -1.2357 -0.5696 -0.4960
 8698SOL    HW226779   2.970   4.130   6.727  0.1981 -0.8738 -0.0568
 8699SOL     OW26780   4.186   2.843   1.261  0.1212 -0.3487  0.2453
 8699SOL    HW126781   4.253   2.817   1.325  1.0270  2.0205  0.3731
 8699SOL    HW226782   4.234   2.853   1.179 -0.2725  0.2843  0.0826
 8700SOL     OW26783   0.692   0.975   3.235 -0.2273 -0.3775  0.0640
 8700SOL    HW126784   0.753   1.044   3.209 -1.0068  0.5410  0.6132
 8700SOL    HW226785   0.741   0.893   3.223  0.4934  0.2103 -1.2311
 8701SOL     OW26786   5.186   1.000   4.043  0.6838  0.0952  0.3689
 8701SOL    HW126787   5.275   0.992   4.009  0.6592  1.5799 -0.1193
 8701SOL    HW226788   5.148   0.913   4.032  1.0005  0.2297 -2.5404
 8702SOL     OW26789   3.260   4.466   2.147 -0.3439 -0.6993 -0.0411
 8702SOL    HW126790   3.263   4.470   2.243  0.9848 -0.9754 -0.0625
 8702SOL    HW226791   3.351   4.478   2.120 -0.5669 -1.6466 -1.2372
 8703SOL     OW26792   6.889   1.942   3.338  0.4955 -0.3362 -0.3708
 8703SOL    HW126793   6.949   1.969   3.408  0.1634  0.1274 -0.2593
 8703SOL    HW226794   6.911   1.850   3.322  0.2422 -0.5980  0.6925
 8704SOL     OW26795   2.149   5.621   4.478 -0.1915  0.0864  0.1382
 8704SOL    HW126796   2.136   5.552   4.414  0.4094  0.3599 -0.2928
 8704SOL    HW226797   2.239   5.650   4.463 -0.5233  1.1434  0.1212
 8705SOL     OW26798   2.810   2.161   2.747 -0.7347 -0.5776  0.4596
 8705SOL    HW126799   2.745   2.091   2.755 -1.0974 -0.2472  0.4470
 8705SOL    HW226800   2.758   2.241   2.746 -0.2778 -0.2557  1.3428
 8706SOL     OW26801   6.537   0.307   3.300 -0.4120  0.0082 -0.3866
 8706SOL    HW126802   6.539   0.347   3.387  2.1580 -0.4701 -0.1551
 8706SOL    HW226803   6.527   0.381   3.240 -1.6792  0.3908  0.2612
 8707SOL     OW26804   4.021   3.222   6.091  0.7336  0.0349 -0.5316
 8707SOL    HW126805   4.051   3.136   6.121 -1.2428 -0.4457  0.2443
 8707SOL    HW226806   4.061   3.233   6.005  1.1808 -1.5733 -0.5556
 8708SOL     OW26807   2.495   6.551   6.525  0.1577  0.4312 -0.4228
 8708SOL    HW126808   2.537   6.468   6.547  1.2880  0.9301 -0.6332
 8708SOL    HW226809   2.496   6.554   6.429  0.4246  0.8335 -0.4101
 8709SOL     OW26810   0.494   3.903   0.139  0.2678 -0.0210 -0.2958
 8709SOL    HW126811   0.507   3.856   0.221 -2.0250  1.2099  0.8558
 8709SOL    HW226812   0.437   3.846   0.087 -1.5078  0.8476  0.6116
 8710SOL     OW26813   5.904   1.812   6.578  0.5943 -0.7388 -0.3903
 8710SOL    HW126814   5.996   1.794   6.557  0.8770 -0.5382  0.6425
 8710SOL    HW226815   5.907   1.861   6.660 -0.4016 -0.0049 -0.7768
 8711SOL     OW26816   4.820   1.937   2.424  0.1665 -0.5982 -0.2525
 8711SOL    HW126817   4.856   1.968   2.507  0.5878 -1.0822 -0.2468
 8711SOL    HW226818   4.781   2.014   2.384 -1.0445 -0.5711  0.9047
 8712SOL     OW26819   4.272   1.810   2.794 -0.5504  0.0662  0.3345
 8712SOL    HW126820   4.184   1.840   2.770 -0.5803  1.4844  2.0313
 8712SOL    HW226821   4.331   1.876   2.759 -0.2981  0.0473  0.7172
 8713SOL     OW26822   1.034   4.521   0.676  0.4525  0.2105  0.0209
 8713SOL    HW126823   1.044   4.428   0.655 -0.0495 -0.2025  1.4899
 8713SOL    HW226824   0.940   4.537   0.668  0.1766 -0.0618  2.1745
 8714SOL     OW26825   3.250   3.936   3.543  0.0148  0.2833 -0.1447
 8714SOL    HW126826   3.195   3.972   3.473  0.2689 -0.5387 -0.7780
 8714SOL    HW226827   3.271   3.848   3.514  0.0115 -0.1248  1.0389
 8715SOL     OW26828   4.438   0.021   5.593  0.3047  0.3532 -0.6714
 8715SOL    HW126829   4.403   0.093   5.645 -1.3942  0.1039 -1.3806
 8715SOL    HW226830   4.513  -0.012   5.643 -1.9866 -0.7434  2.3377
 8716SOL     OW26831   3.270   5.519   4.458  0.4511  0.0953 -0.1333
 8716SOL    HW126832   3.220   5.520   4.539  0.3751  0.9182 -0.1800
 8716SOL    HW226833   3.310   5.432   4.455 -0.7340 -0.4618  0.0396
 8717SOL     OW26834   5.956   3.458   2.260 -0.0782  0.1978 -0.2648
 8717SOL    HW126835   5.882   3.405   2.291  0.2327 -0.1646 -0.1389
 8717SOL    HW226836   6.033   3.411   2.290  0.2733 -0.5698 -2.2329
 8718SOL     OW26837   3.845   5.281   2.795  0.0878  0.0284 -0.6528
 8718SOL    HW126838   3.830   5.189   2.774 -1.9731  0.1262  0.0934
 8718SOL    HW226839   3.872   5.281   2.886 -1.9867  0.2208  0.0211
 8719SOL     OW26840   2.063   3.134   2.622 -0.2007  0.0523  0.0496
 8719SOL    HW126841   2.099   3.068   2.680 -0.7418 -1.3354 -1.1258
 8719SOL    HW226842   2.085   3.104   2.534  0.9962  2.3189 -0.5094
 8720SOL     OW26843   1.393   3.222   1.913  0.9271  0.0185 -0.3052
 8720SOL    HW126844   1.441   3.244   1.993 -0.8972 -0.8224  1.0789
 8720SOL    HW226845   1.309   3.266   1.921 -0.4192 -2.3354 -0.3453
 8721SOL     OW26846   4.738   3.770   4.572 -0.2641  0.2880 -0.0833
 8721SOL    HW126847   4.713   3.691   4.525 -1.2910  0.7461 -0.3370
 8721SOL    HW226848   4.694   3.764   4.656 -0.6542  0.7639 -0.2492
 8722SOL     OW26849   4.512   1.563   1.314  0.7690 -0.1854  0.0849
 8722SOL    HW126850   4.430   1.534   1.273  1.7122 -2.8332 -0.1439
 8722SOL    HW226851   4.569   1.585   1.240  0.4233  1.2520  0.2308
 8723SOL     OW26852   3.215   2.644   6.806 -0.5045  0.1521  0.2636
 8723SOL    HW126853   3.225   2.699   6.728 -0.4518  1.3148  1.0602
 8723SOL    HW226854   3.273   2.570   6.791 -0.3678  0.4456 -0.7251
 8724SOL     OW26855   2.736   4.598   6.567 -0.0130 -0.6817  0.3442
 8724SOL    HW126856   2.726   4.505   6.545 -0.6493 -0.1212 -1.9476
 8724SOL    HW226857   2.667   4.615   6.631  0.2116 -1.8125  0.9160
 8725SOL     OW26858   6.854   0.113   6.071  0.2459 -0.1728  0.1714
 8725SOL    HW126859   6.868   0.138   6.162 -0.8006  1.5724 -0.1058
 8725SOL    HW226860   6.940   0.122   6.030  0.4631  0.2419  0.7147
 8726SOL     OW26861   4.484   5.464   6.709  0.0163  0.0477  0.0310
 8726SOL    HW126862   4.518   5.525   6.644 -0.1219 -0.7336 -0.7902
 8726SOL    HW226863   4.562   5.426   6.750  0.1194  1.5163  1.3041
 8727SOL     OW26864   4.450   2.267   3.054  0.0405 -0.2217  0.0589
 8727SOL    HW126865   4.479   2.259   3.145  0.6634 -0.2897 -0.1457
 8727SOL    HW226866   4.466   2.180   3.016 -1.3847 -0.5756  0.2159
 8728SOL     OW26867   4.334   2.384   4.075 -0.6311 -0.2954 -0.1633
 8728SOL    HW126868   4.398   2.455   4.074 -0.9679  0.0934  2.1327
 8728SOL    HW226869   4.324   2.361   4.167 -0.6824 -3.2298 -0.8053
 8729SOL     OW26870   2.401   3.470   6.310 -0.2283  0.3540 -1.0060
 8729SOL    HW126871   2.476   3.521   6.340 -1.9459  1.7822  1.1744
 8729SOL    HW226872   2.416   3.383   6.346  0.7405  0.3869 -1.2848
 8730SOL     OW26873   2.267   2.498   1.610  0.0523  0.3751 -0.1408
 8730SOL    HW126874   2.183   2.474   1.649 -0.5999  0.7064 -1.2938
 8730SOL    HW226875   2.314   2.415   1.603 -0.6133  0.0127 -0.4644
 8731SOL     OW26876   1.818   5.427   1.939  0.0074 -0.2500  0.0378
 8731SOL    HW126877   1.834   5.424   1.845 -0.3863 -1.3971 -0.0116
 8731SOL    HW226878   1.902   5.400   1.978  0.0370 -0.2230 -0.0069
 8732SOL     OW26879   3.086   0.505   6.143 -0.4100 -0.3457  0.0067
 8732SOL    HW126880   3.052   0.571   6.083  0.4000  1.0403  1.0106
 8732SOL    HW226881   3.053   0.422   6.109 -0.3395  0.4326 -2.0710
 8733SOL     OW26882   0.803   2.280   2.587  0.1133 -0.2814 -0.0424
 8733SOL    HW126883   0.895   2.287   2.612 -0.4948  1.4679  1.9771
 8733SOL    HW226884   0.773   2.199   2.630  0.4912 -0.4085 -0.0140
 8734SOL     OW26885   0.994   6.539   0.989  0.4701 -0.0058  0.5217
 8734SOL    HW126886   1.044   6.558   1.068 -1.3604  0.5195  1.6286
 8734SOL    HW226887   0.934   6.612   0.981 -0.5892 -0.9320 -0.3318
 8735SOL     OW26888   0.218   3.239   1.896 -0.5956 -0.0137 -0.1864
 8735SOL    HW126889   0.147   3.272   1.841 -0.6817  0.5120  0.2296
 8735SOL    HW226890   0.174   3.187   1.963 -0.8550  2.0579  1.3864
 8736SOL     OW26891   2.752   1.361   3.801  0.1027  0.3090 -0.1169
 8736SOL    HW126892   2.756   1.443   3.751 -1.1358 -0.3569 -1.4155
 8736SOL    HW226893   2.690   1.380   3.872 -0.5722  0.3859 -0.7043
 8737SOL     OW26894   4.598   5.883   3.234 -1.0502 -0.2282 -0.5574
 8737SOL    HW126895   4.551   5.906   3.154 -0.6891 -0.8721 -0.9657
 8737SOL    HW226896   4.605   5.788   3.231  0.1658 -0.1601 -0.4525
 8738SOL     OW26897   2.491   1.352   0.414  0.5336 -0.1372  0.3825
 8738SOL    HW126898   2.443   1.361   0.496  0.1392 -0.3676  0.1761
 8738SOL    HW226899   2.530   1.264   0.419 -3.7919 -2.5003 -1.9149
 8739SOL     OW26900   1.275   2.398   3.554  0.9567 -0.1745 -0.2377
 8739SOL    HW126901   1.324   2.319   3.577  2.2142  0.2111 -1.4337
 8739SOL    HW226902   1.184   2.377   3.574  1.2304 -2.0406 -0.7770
 8740SOL     OW26903   1.645   5.182   4.153  0.2694  0.3780  0.1265
 8740SOL    HW126904   1.715   5.179   4.218  1.7941 -0.3466 -1.4766
 8740SOL    HW226905   1.661   5.262   4.103 -0.2478  0.3649 -0.0742
 8741SOL     OW26906   0.674   2.605   4.171 -0.0966  0.3643 -0.1259
 8741SOL    HW126907   0.675   2.512   4.193 -0.0944  0.5862  0.8941
 8741SOL    HW226908   0.642   2.647   4.251  1.4575  1.3677  0.0048
 8742SOL     OW26909   5.297   1.504   3.998 -0.3250  0.0457  0.0666
 8742SOL    HW126910   5.356   1.516   3.924  0.3192 -1.2968  0.3393
 8742SOL    HW226911   5.351   1.519   4.075 -0.3703 -0.9746  0.3128
 8743SOL     OW26912   1.766   5.723   2.238 -0.2565 -0.4003  0.0452
 8743SOL    HW126913   1.810   5.808   2.227 -1.7175  0.0670 -4.1058
 8743SOL    HW226914   1.831   5.668   2.283  2.1022  1.9552 -0.1926
 8744SOL     OW26915   6.874   0.550   3.443 -0.6704  0.5970 -0.2427
 8744SOL    HW126916   6.912   0.515   3.362 -2.9906 -2.1468 -0.2858
 8744SOL    HW226917   6.807   0.612   3.413 -0.1615  1.1167 -0.3263
 8745SOL     OW26918   0.150   1.537   4.196 -0.2303 -0.3483  0.0931
 8745SOL    HW126919   0.188   1.453   4.222  0.3557  0.0878  0.6611
 8745SOL    HW226920   0.209   1.571   4.129  1.5727  1.2309  2.3052
 8746SOL     OW26921   4.228   5.924   5.510 -0.1151  0.3119 -0.4562
 8746SOL    HW126922   4.197   6.011   5.534  0.8421  0.4803  0.2546
 8746SOL    HW226923   4.314   5.917   5.553 -0.6889 -1.4404  0.4822
 8747SOL     OW26924   5.736   4.836   4.009  0.2804 -0.4358  0.0458
 8747SOL    HW126925   5.782   4.872   3.933 -0.2562 -0.6227 -0.3736
 8747SOL    HW226926   5.806   4.814   4.071  0.6412  1.3366  0.3299
 8748SOL     OW26927   3.065   4.477   4.325 -0.1709 -0.1433  0.2870
 8748SOL    HW126928   3.043   4.557   4.371 -3.1952 -0.1548 -0.9358
 8748SOL    HW226929   3.085   4.414   4.395 -1.0689  0.7721  1.4074
 8749SOL     OW26930   4.071   5.402   6.543  0.0726  0.3653  0.5914
 8749SOL    HW126931   4.094   5.420   6.634  1.0966 -1.5687  0.7860
 8749SOL    HW226932   4.102   5.478   6.494  2.8481 -0.0860  1.4462
 8750SOL     OW26933   2.647   2.054   4.927  0.2598 -0.2920 -0.1531
 8750SOL    HW126934   2.569   2.110   4.922 -1.5725 -2.7678 -1.0163
 8750SOL    HW226935   2.676   2.061   5.018 -0.9708  0.6371  0.1942
 8751SOL     OW26936   5.536   3.799   1.747  0.0827  0.5242 -0.0818
 8751SOL    HW126937   5.557   3.708   1.768  1.8530  0.3606 -2.1878
 8751SOL    HW226938   5.550   3.846   1.829 -0.8474 -1.0479  1.0521
 8752SOL     OW26939   2.945   3.350   2.593  0.3840 -0.0876 -0.1899
 8752SOL    HW126940   2.888   3.375   2.666 -0.4819 -0.7660 -0.6126
 8752SOL    HW226941   2.992   3.431   2.571  1.2066 -0.0461  1.5644
 8753SOL     OW26942   4.015   2.797   0.564  0.8109  0.2314 -0.0196
 8753SOL    HW126943   3.954   2.807   0.636  1.6619  1.9095  0.5207
 8753SOL    HW226944   4.099   2.777   0.605  1.0462 -0.0370 -0.6121
 8754SOL     OW26945   0.293   6.865   6.535  0.4551  0.5586 -0.2154
 8754SOL    HW126946   0.219   6.914   6.571  1.2656  1.0230  0.8437
 8754SOL    HW226947   0.252   6.791   6.490 -0.6346  0.5106  0.8107
 8755SOL     OW26948   4.843   3.598   3.428  0.0694 -0.3338 -0.7149
 8755SOL    HW126949   4.897   3.626   3.354 -0.0309  2.1675  0.0625
 8755SOL    HW226950   4.901   3.600   3.503 -0.6358  0.7600 -0.1561
 8756SOL     OW26951   4.223   0.360   1.320 -0.5201 -0.3679 -0.1866
 8756SOL    HW126952   4.190   0.284   1.273  0.2805 -0.8319 -0.0159
 8756SOL    HW226953   4.167   0.366   1.398 -0.4099 -0.9540 -0.0564
 8757SOL     OW26954   0.542   6.368   3.977  0.4191 -0.2470 -0.2143
 8757SOL    HW126955   0.631   6.379   4.009  0.4658  0.5003 -0.5791
 8757SOL    HW226956   0.544   6.400   3.887 -0.3496  0.3385 -0.0346
 8758SOL     OW26957   2.368   3.438   0.566 -0.3654 -0.0228 -0.1085
 8758SOL    HW126958   2.427   3.457   0.493  2.1015 -0.2050  1.7184
 8758SOL    HW226959   2.299   3.503   0.558  0.2910  0.5035 -2.0920
 8759SOL     OW26960   3.301   0.263   4.087 -0.4548 -0.6287  0.0291
 8759SOL    HW126961   3.276   0.172   4.104  0.5610 -0.5459  2.4881
 8759SOL    HW226962   3.386   0.273   4.131 -0.3845  1.4190 -0.4638
 8760SOL     OW26963   4.022   3.625   2.060  0.6018  0.0793 -0.2196
 8760SOL    HW126964   4.009   3.623   1.965  3.0266  0.4931 -0.6055
 8760SOL    HW226965   4.008   3.534   2.088  2.6115 -0.6568 -1.4260
 8761SOL     OW26966   3.720   6.779   6.845  0.2379 -0.2179 -0.2525
 8761SOL    HW126967   3.799   6.780   6.899  0.2281 -0.7187 -0.2190
 8761SOL    HW226968   3.702   6.871   6.826  0.5338 -0.0701  0.1711
 8762SOL     OW26969   2.598   2.180   0.943 -0.7104 -0.0602  0.1226
 8762SOL    HW126970   2.528   2.128   0.981  0.7271 -1.5801  0.8249
 8762SOL    HW226971   2.566   2.205   0.857 -1.7370 -1.5316  0.0489
 8763SOL     OW26972   1.805   3.208   5.157  0.0456 -0.1958  0.0114
 8763SOL    HW126973   1.748   3.240   5.227  0.7098  0.1554  0.3917
 8763SOL    HW226974   1.857   3.284   5.131  1.0258 -0.7415  0.3353
 8764SOL     OW26975   3.978   0.129   6.100 -0.2073  0.3924  0.0515
 8764SOL    HW126976   3.984   0.034   6.094 -0.3898  0.4641 -1.9860
 8764SOL    HW226977   4.027   0.161   6.024  0.4122  1.9687  1.0607
 8765SOL     OW26978   3.552   5.997   1.999  0.0318  0.4100  0.4509
 8765SOL    HW126979   3.536   5.904   2.019 -0.7382  0.0141 -1.6915
 8765SOL    HW226980   3.534   6.043   2.081  0.0210 -1.2860  1.4465
 8766SOL     OW26981   6.595   4.255   3.763 -0.1317 -0.6503 -0.1438
 8766SOL    HW126982   6.547   4.174   3.744 -1.4243  0.0609  0.0099
 8766SOL    HW226983   6.564   4.281   3.850 -0.2473  0.3629 -0.4750
 8767SOL     OW26984   2.890   1.449   3.490  0.1706 -0.0670  0.3511
 8767SOL    HW126985   2.819   1.386   3.503  0.5351 -0.6551 -0.3911
 8767SOL    HW226986   2.846   1.530   3.464 -0.4047  0.4392  2.6762
 8768SOL     OW26987   1.216   3.366   5.890  0.6984  0.2303 -0.3925
 8768SOL    HW126988   1.136   3.346   5.938  0.4813 -0.6532 -1.0898
 8768SOL    HW226989   1.206   3.458   5.864  0.9416  0.7987  1.4183
 8769SOL     OW26990   4.273   1.477   0.323  0.1164 -0.2613 -0.1318
 8769SOL    HW126991   4.249   1.505   0.234 -0.3898 -0.6420 -0.1159
 8769SOL    HW226992   4.260   1.383   0.323 -1.7954 -0.0431  0.9153
 8770SOL     OW26993   2.938   3.011   5.704 -0.3896  0.7267  0.1569
 8770SOL    HW126994   3.010   3.013   5.641 -0.8539 -0.9820 -0.4916
 8770SOL    HW226995   2.979   2.984   5.787 -0.4540 -1.8481 -0.5737
 8771SOL     OW26996   3.253   0.024   0.763  0.4055 -0.4610  0.3080
 8771SOL    HW126997   3.237  -0.004   0.672 -0.7797 -2.2100  0.9985
 8771SOL    HW226998   3.321   0.091   0.756 -0.0112 -0.2023 -1.9159
 8772SOL     OW26999   2.466   2.652   3.680 -0.3504  0.1857  0.1111
 8772SOL    HW127000   2.466   2.747   3.670  1.6225  0.3823  1.3184
 8772SOL    HW227001   2.375   2.630   3.697 -1.0704  1.6737 -1.5193
 8773SOL     OW27002   0.385   6.519   5.632  0.1732  0.5418  0.2944
 8773SOL    HW127003   0.389   6.612   5.612 -1.3658  0.7883  0.9730
 8773SOL    HW227004   0.386   6.476   5.547 -0.9044  1.2910 -0.1213
 8774SOL     OW27005   5.632   4.864   2.783 -0.0651  0.1220 -0.3621
 8774SOL    HW127006   5.564   4.815   2.828  1.4175 -1.9926 -0.2487
 8774SOL    HW227007   5.688   4.897   2.854 -0.1324  0.5726 -0.5132
 8775SOL     OW27008   3.438   2.655   5.220 -0.1138  0.3416  0.2238
 8775SOL    HW127009   3.344   2.677   5.217 -0.4047 -0.8760 -0.2797
 8775SOL    HW227010   3.448   2.588   5.152  0.9206 -0.3211  1.0214
 8776SOL     OW27011   4.383   5.170   4.699  0.2016  0.3372 -0.5034
 8776SOL    HW127012   4.397   5.232   4.771  0.3045 -0.2462 -0.0043
 8776SOL    HW227013   4.350   5.223   4.627  2.3688  1.3366 -0.8273
 8777SOL     OW27014   0.258   5.281   2.979 -0.7167  0.3295 -0.5272
 8777SOL    HW127015   0.268   5.364   3.027 -0.6042 -0.1400  0.2727
 8777SOL    HW227016   0.179   5.294   2.926  0.3804  1.6704 -1.9381
 8778SOL     OW27017   5.421   3.793   6.879 -0.0655  0.0886 -0.2509
 8778SOL    HW127018   5.471   3.820   6.955  0.8564 -1.1341 -0.3943
 8778SOL    HW227019   5.474   3.819   6.804 -1.2274  1.7910 -0.5232
 8779SOL     OW27020   2.543   6.720   2.177 -0.1134  0.0153 -0.1013
 8779SOL    HW127021   2.467   6.752   2.128 -0.9272  1.1288  1.7369
 8779SOL    HW227022   2.520   6.631   2.201  0.2451 -0.4972 -1.5865
 8780SOL     OW27023   0.138   4.448   5.410 -0.1337 -0.3103 -0.2801
 8780SOL    HW127024   0.208   4.501   5.374 -0.1204 -0.5088 -0.5458
 8780SOL    HW227025   0.117   4.385   5.341 -1.0011  0.1440 -0.4523
 8781SOL     OW27026   1.289   6.764   0.965  0.5803 -0.3041  0.0271
 8781SOL    HW127027   1.223   6.784   1.031 -0.3684 -1.0608 -0.6633
 8781SOL    HW227028   1.341   6.693   1.003  0.1246 -0.6424  0.0283
 8782SOL     OW27029   5.076   4.884   4.105  0.2994  0.1843 -0.0848
 8782SOL    HW127030   4.982   4.879   4.124  0.4829 -1.0901  0.6229
 8782SOL    HW227031   5.116   4.820   4.164  1.7716  1.6315  0.5730
 8783SOL     OW27032   0.047   2.505   2.809  0.1524 -0.4540 -0.0698
 8783SOL    HW127033   0.080   2.423   2.847 -0.2694  0.0563  1.4681
 8783SOL    HW227034   0.059   2.570   2.878 -3.6564 -0.1290  0.5018
 8784SOL     OW27035   2.714   5.504   2.415  0.3804  0.2615  0.6097
 8784SOL    HW127036   2.623   5.473   2.421  0.4039 -0.5820 -1.9689
 8784SOL    HW227037   2.708   5.599   2.424 -0.3998  0.0409  2.9941
 8785SOL     OW27038   0.396   5.937   2.647 -0.0041  0.7383 -0.1222
 8785SOL    HW127039   0.385   5.983   2.730  2.0023  2.2754 -0.6237
 8785SOL    HW227040   0.468   5.982   2.604  2.2238 -2.9244 -0.6613
 8786SOL     OW27041   1.987   2.704   2.343 -0.1686  0.2100  0.5172
 8786SOL    HW127042   1.931   2.742   2.276  1.8489  1.7826 -0.3946
 8786SOL    HW227043   2.075   2.707   2.305  0.8735  0.0251  2.7628
 8787SOL     OW27044   5.247   1.307   2.627  0.0920  0.6402 -0.7687
 8787SOL    HW127045   5.187   1.328   2.698  0.9097 -1.0450  0.4841
 8787SOL    HW227046   5.317   1.372   2.635  1.1697 -0.6478  1.2797
 8788SOL     OW27047   4.038   3.178   2.440 -0.0335 -0.6082 -0.0805
 8788SOL    HW127048   4.111   3.117   2.430  0.3713 -0.4420  1.6680
 8788SOL    HW227049   3.992   3.149   2.518 -0.9803  0.1846 -0.3160
 8789SOL     OW27050   0.565   6.367   2.579 -0.1447  0.1430  0.0412
 8789SOL    HW127051   0.581   6.457   2.551  0.7815  0.3039  1.0207
 8789SOL    HW227052   0.536   6.375   2.670 -2.0764 -0.4330 -0.4758
 8790SOL     OW27053   5.092   5.003   6.209 -0.1508  0.3961  0.1962
 8790SOL    HW127054   5.028   4.999   6.280 -0.2001  1.8248  0.2536
 8790SOL    HW227055   5.148   5.077   6.231  0.5839  0.1118 -0.6465
 8791SOL     OW27056   6.748   6.159   2.604  0.4739  0.3169  0.3168
 8791SOL    HW127057   6.748   6.240   2.655  1.3215  1.1684 -0.9740
 8791SOL    HW227058   6.680   6.171   2.538  1.4400  0.5484 -0.6821
 8792SOL     OW27059   5.707   2.364   1.212 -0.3097  0.1029 -0.0483
 8792SOL    HW127060   5.800   2.342   1.199 -0.4976 -0.3904 -0.6256
 8792SOL    HW227061   5.664   2.280   1.226 -0.3305  0.4948  2.7036
 8793SOL     OW27062   4.311   3.569   0.182  0.8852  0.4798  0.2557
 8793SOL    HW127063   4.234   3.531   0.226  1.2152 -0.1168  0.3293
 8793SOL    HW227064   4.351   3.625   0.248  0.7722  0.4279  0.3685
 8794SOL     OW27065   1.247   1.854   4.808  0.4528 -0.4770  0.0873
 8794SOL    HW127066   1.229   1.879   4.717 -0.6020  0.8296  0.6242
 8794SOL    HW227067   1.293   1.770   4.801  0.3876 -0.4051 -1.6464
 8795SOL     OW27068   5.913   6.897   1.398 -0.0556 -0.0514 -0.2462
 8795SOL    HW127069   5.834   6.937   1.363  1.1095  1.1449 -1.6236
 8795SOL    HW227070   5.964   6.971   1.434  0.7900 -0.6842 -0.1016
 8796SOL     OW27071   2.202   1.549   4.900  0.2066  0.2896 -0.4761
 8796SOL    HW127072   2.161   1.467   4.872 -0.0576  0.5274 -0.7941
 8796SOL    HW227073   2.130   1.602   4.933  0.3821  0.3850 -0.2466
 8797SOL     OW27074   1.416   0.714   6.818  0.4810  0.5232 -0.2773
 8797SOL    HW127075   1.334   0.756   6.791  0.2227  0.8210  0.8961
 8797SOL    HW227076   1.471   0.786   6.850  0.8393  0.2176 -0.1997
 8798SOL     OW27077   3.500   3.850   3.926  0.1513 -0.0337 -0.1678
 8798SOL    HW127078   3.467   3.813   4.008  1.9124 -1.9147 -0.2223
 8798SOL    HW227079   3.423   3.888   3.884 -0.8397  0.7875  2.2316
 8799SOL     OW27080   1.278   1.089   4.403  0.2403  0.0310  0.2283
 8799SOL    HW127081   1.223   1.095   4.325  0.2617  1.3359  0.2837
 8799SOL    HW227082   1.286   1.179   4.433  1.3640 -0.2848  0.9515
 8800SOL     OW27083   2.224   0.884   6.063  0.4545  0.1753 -0.1555
 8800SOL    HW127084   2.316   0.856   6.066  1.1255  2.1191  3.0545
 8800SOL    HW227085   2.219   0.954   6.129 -3.0372  1.1587 -1.2805
 8801SOL     OW27086   0.330   2.107   1.843  0.8144  0.0346  0.5673
 8801SOL    HW127087   0.358   2.159   1.918 -0.1782 -0.2065  1.1276
 8801SOL    HW227088   0.261   2.050   1.878  0.2315  0.0254 -0.5611
 8802SOL     OW27089   5.666   2.164   1.590  0.7643  0.4048  0.2452
 8802SOL    HW127090   5.688   2.257   1.599  1.6984  0.0759  1.6453
 8802SOL    HW227091   5.578   2.157   1.627  0.0109  0.9713 -1.3311
 8803SOL     OW27092   5.734   0.794   1.092 -0.1015  0.3781 -0.1248
 8803SOL    HW127093   5.779   0.877   1.078  2.3949 -1.0730 -1.4923
 8803SOL    HW227094   5.692   0.803   1.177  0.1461  2.9900 -0.2003
 8804SOL     OW27095   5.442   3.515   4.349  0.1171 -0.1827  0.1321
 8804SOL    HW127096   5.396   3.467   4.418 -0.3528 -1.5263 -1.0788
 8804SOL    HW227097   5.434   3.460   4.271 -0.1312  1.7028 -1.2409
 8805SOL     OW27098   3.338   3.035   3.077 -0.0333  0.6040  0.2322
 8805SOL    HW127099   3.363   2.958   3.026 -0.7714 -0.2260  1.0866
 8805SOL    HW227100   3.324   3.104   3.011 -1.7652 -0.6535 -0.7920
 8806SOL     OW27101   4.234   3.925   0.831  0.0982 -0.2921 -0.2361
 8806SOL    HW127102   4.213   3.936   0.924  0.7396  0.6046 -0.1817
 8806SOL    HW227103   4.255   3.832   0.822  2.2019 -0.0263  1.0108
 8807SOL     OW27104   3.230   0.566   3.534 -0.2813  0.1200  0.1548
 8807SOL    HW127105   3.138   0.559   3.559 -0.2447 -0.0830  0.2302
 8807SOL    HW227106   3.227   0.591   3.441 -0.4251 -2.2102 -0.5337
 8808SOL     OW27107   1.809   0.771   6.003 -0.4034  0.3463 -0.8758
 8808SOL    HW127108   1.727   0.820   6.013 -1.0772 -1.2189  2.6780
 8808SOL    HW227109   1.781   0.681   5.989  0.7720  0.0653 -1.5317
 8809SOL     OW27110   6.190   1.822   2.679  0.2733  1.0862 -0.2368
 8809SOL    HW127111   6.282   1.807   2.656  0.7575  2.9815  0.3353
 8809SOL    HW227112   6.161   1.888   2.617 -0.6597  0.6658 -0.2593
 8810SOL     OW27113   0.940   0.034   3.804 -0.4540 -0.0826 -0.3942
 8810SOL    HW127114   1.027  -0.002   3.788  0.1338  1.4805 -0.8998
 8810SOL    HW227115   0.886  -0.042   3.826  1.2356 -0.9803  0.8800
 8811SOL     OW27116   3.956   1.448   0.593  0.5005  0.1627 -0.0580
 8811SOL    HW127117   3.969   1.412   0.505 -0.2673  2.3560 -1.1535
 8811SOL    HW227118   4.018   1.522   0.598  0.2813  0.2864  1.1069
 8812SOL     OW27119   5.897   3.845   2.020  0.1913 -0.0863 -0.6680
 8812SOL    HW127120   5.830   3.792   2.063 -1.2020  1.7345 -0.4171
 8812SOL    HW227121   5.968   3.850   2.083  0.1165 -1.1867 -0.4844
 8813SOL     OW27122   4.240   0.009   2.485 -0.1736  0.1915  0.6974
 8813SOL    HW127123   4.309   0.068   2.514 -0.0756 -0.5498  2.0504
 8813SOL    HW227124   4.286  -0.068   2.452 -0.3303  0.4252 -0.0990
 8814SOL     OW27125   0.589   2.083   2.596  0.7883 -0.1385  0.1780
 8814SOL    HW127126   0.626   2.059   2.511 -0.3238 -0.5700 -0.2013
 8814SOL    HW227127   0.582   2.001   2.644 -0.0380 -0.1365  0.0842
 8815SOL     OW27128   0.669   1.434   6.466 -0.2566 -0.2867  0.0242
 8815SOL    HW127129   0.731   1.491   6.513 -1.2790 -1.2631  2.7219
 8815SOL    HW227130   0.688   1.346   6.499 -1.3777 -0.9478 -1.0389
 8816SOL     OW27131   4.646   2.207   4.330  0.2482 -0.3742  0.6745
 8816SOL    HW127132   4.678   2.180   4.416  0.1567 -2.0408  0.2134
 8816SOL    HW227133   4.662   2.132   4.273 -0.2648  0.4666 -0.6392
 8817SOL     OW27134   1.360   4.926   6.358  0.0596  0.0618  0.1384
 8817SOL    HW127135   1.285   4.976   6.326 -1.4969 -2.1360  0.1266
 8817SOL    HW227136   1.390   4.877   6.281  0.6887 -0.0714  0.4614
 8818SOL     OW27137   1.530   0.274   0.185 -0.3377 -0.2500  0.5136
 8818SOL    HW127138   1.621   0.296   0.204  0.4170 -2.6166 -0.0587
 8818SOL    HW227139   1.481   0.354   0.204  2.1044  1.8010 -1.1952
 8819SOL     OW27140   2.782   3.455   2.776  0.6430 -0.1183  0.3169
 8819SOL    HW127141   2.766   3.398   2.851 -1.0753  0.0635  0.1151
 8819SOL    HW227142   2.700   3.456   2.727  1.8093 -0.5423 -1.8197
 8820SOL     OW27143   1.230   5.779   1.342  0.4017 -0.1004 -0.4193
 8820SOL    HW127144   1.186   5.864   1.343 -0.1226 -0.3730 -0.2920
 8820SOL    HW227145   1.242   5.757   1.434  0.6911 -0.0911 -0.4522
 8821SOL     OW27146   3.669   5.280   2.535  0.6181  0.3431 -0.1735
 8821SOL    HW127147   3.636   5.251   2.620  0.9716 -1.1705 -0.5381
 8821SOL    HW227148   3.759   5.306   2.552  0.9456 -0.7205 -0.2201
 8822SOL     OW27149   3.497   4.303   6.364  0.1754  0.1712  0.2849
 8822SOL    HW127150   3.570   4.271   6.417  3.1485 -0.7392 -3.8995
 8822SOL    HW227151   3.440   4.227   6.351  0.9349 -0.3386 -0.0927
 8823SOL     OW27152   4.283   5.495   2.827  0.2221  0.2894 -0.9369
 8823SOL    HW127153   4.324   5.534   2.750 -1.7499  2.1887 -1.1116
 8823SOL    HW227154   4.193   5.476   2.799 -0.9328  2.1758  1.1436
 8824SOL     OW27155   1.479   2.732   5.627 -0.4887 -0.0973  0.4282
 8824SOL    HW127156   1.423   2.726   5.704 -0.1090 -1.9575  0.6055
 8824SOL    HW227157   1.517   2.820   5.632  1.3153 -0.8891  3.6992
 8825SOL     OW27158   1.440   0.491   4.635 -0.1243 -0.2403  0.1346
 8825SOL    HW127159   1.434   0.398   4.660  2.4935 -0.4542  0.1786
 8825SOL    HW227160   1.485   0.491   4.551 -2.4535  0.9261 -1.2385
 8826SOL     OW27161   3.175   5.328   0.078 -0.2016  0.6855  0.2798
 8826SOL    HW127162   3.218   5.413   0.084 -2.5164  2.0381 -0.8894
 8826SOL    HW227163   3.143   5.323  -0.012  0.1244 -1.5936  0.2271
 8827SOL     OW27164   3.788   2.379   1.352  0.0847  0.3702 -0.4010
 8827SOL    HW127165   3.834   2.450   1.307  0.8995 -0.1785 -0.4510
 8827SOL    HW227166   3.695   2.403   1.346  0.3153  1.2124 -0.7864
 8828SOL     OW27167   1.654   4.345   3.092  0.6409 -0.2501 -0.0141
 8828SOL    HW127168   1.567   4.322   3.060  0.6377  0.9165 -0.8724
 8828SOL    HW227169   1.712   4.332   3.017  0.7976  1.4795 -0.2262
 8829SOL     OW27170   0.387   2.673   0.555 -0.1367 -0.2473 -0.4695
 8829SOL    HW127171   0.442   2.598   0.535 -0.0968 -0.1110 -0.8807
 8829SOL    HW227172   0.378   2.672   0.650  3.6352  1.8239  0.1178
 8830SOL     OW27173   4.489   5.359   5.963 -0.0289  0.1670 -0.4816
 8830SOL    HW127174   4.467   5.389   6.051  1.6170  2.7879 -0.8573
 8830SOL    HW227175   4.407   5.366   5.914 -1.1772 -2.1210  0.9223
 8831SOL     OW27176   5.630   4.998   1.519 -0.2391 -0.3922  0.3423
 8831SOL    HW127177   5.582   4.916   1.510  1.8967 -1.5774 -1.2264
 8831SOL    HW227178   5.683   4.986   1.598  1.8918 -1.6587 -1.1563
 8832SOL     OW27179   1.713   0.909   2.888  0.0778 -0.0740 -0.0216
 8832SOL    HW127180   1.629   0.938   2.851 -0.0259 -1.7355 -1.1831
 8832SOL    HW227181   1.744   0.985   2.938 -2.4737  0.3247  1.1223
 8833SOL     OW27182   4.750   4.293   5.615  0.2783 -0.3517 -0.0919
 8833SOL    HW127183   4.809   4.340   5.555 -0.8273  0.3524 -0.6604
 8833SOL    HW227184   4.807   4.229   5.658  1.7970  1.2978  0.5123
 8834SOL     OW27185   2.349   2.906   2.078 -0.3918  0.2934 -0.0306
 8834SOL    HW127186   2.271   2.960   2.094 -0.6584 -0.5654  1.7715
 8834SOL    HW227187   2.402   2.958   2.017 -2.0673  1.1682 -0.8062
 8835SOL     OW27188   1.548   1.645   0.270 -0.1408 -0.0160 -0.1783
 8835SOL    HW127189   1.534   1.736   0.244  1.0718 -0.0422 -1.0356
 8835SOL    HW227190   1.629   1.620   0.226  0.6352 -0.8986  1.6281
 8836SOL     OW27191   4.385   6.075   3.560  0.6353 -0.3952 -0.2605
 8836SOL    HW127192   4.325   6.016   3.514  1.3898 -2.0274  0.7707
 8836SOL    HW227193   4.362   6.162   3.528 -2.8253 -0.8290  0.6797
 8837SOL     OW27194   0.204   6.558   4.131  0.5458  0.3606 -0.1259
 8837SOL    HW127195   0.191   6.602   4.047  1.3112  0.6453 -0.0999
 8837SOL    HW227196   0.164   6.616   4.195 -1.0300 -0.3730 -0.3835
 8838SOL     OW27197   0.755   2.306   6.345  0.6917 -0.7815 -0.0623
 8838SOL    HW127198   0.678   2.251   6.326  0.5237 -0.4299 -0.4184
 8838SOL    HW227199   0.818   2.283   6.277  1.0781 -1.3998  0.5001
 8839SOL     OW27200   2.167   1.281   1.027  0.4361  0.1596 -0.1761
 8839SOL    HW127201   2.143   1.224   1.100 -1.1816  0.1364 -0.7015
 8839SOL    HW227202   2.175   1.368   1.066 -0.7837  0.2151 -0.0141
 8840SOL     OW27203   2.694   3.236   0.386 -0.0965 -0.6256  0.3565
 8840SOL    HW127204   2.617   3.252   0.332 -0.3933 -1.2725  0.5826
 8840SOL    HW227205   2.750   3.180   0.332 -1.6900 -3.8225  1.7361
 8841SOL     OW27206   5.560   1.284   0.281  0.3572  0.2836 -0.0755
 8841SOL    HW127207   5.571   1.306   0.373 -1.1803  3.3109 -0.5078
 8841SOL    HW227208   5.511   1.201   0.282 -0.8000  0.9340  1.8369
 8842SOL     OW27209   6.763   5.337   1.641  0.5874  0.1993  0.4089
 8842SOL    HW127210   6.836   5.276   1.628  1.6665  1.2686  1.2107
 8842SOL    HW227211   6.691   5.282   1.671  0.2338 -1.2636 -2.6550
 8843SOL     OW27212   0.491   2.530   5.990  0.3252  0.0926  0.0287
 8843SOL    HW127213   0.517   2.563   5.904 -0.1947 -3.2322 -1.5364
 8843SOL    HW227214   0.546   2.453   6.005 -1.9915 -1.5164  0.9707
 8844SOL     OW27215   2.552   6.216   5.740  0.0313 -0.5509 -0.1820
 8844SOL    HW127216   2.543   6.249   5.829 -1.4628 -1.7330  0.1441
 8844SOL    HW227217   2.463   6.217   5.705  0.2763 -2.0406 -0.9313
 8845SOL     OW27218   1.266   3.493   3.128  0.4200 -0.4705  0.8484
 8845SOL    HW127219   1.196   3.445   3.171 -0.4963  0.4860  0.4530
 8845SOL    HW227220   1.297   3.555   3.194 -0.8312  0.8394  0.2483
 8846SOL     OW27221   2.284   0.212   4.690  0.4396 -0.3839  0.1379
 8846SOL    HW127222   2.292   0.117   4.694  0.5005 -0.3798  0.1041
 8846SOL    HW227223   2.254   0.230   4.601  0.7384 -0.3474  0.0445
 8847SOL     OW27224   2.822   5.666   1.462  0.2155  0.1946 -0.2924
 8847SOL    HW127225   2.840   5.573   1.447 -0.3970 -0.1598  0.9931
 8847SOL    HW227226   2.803   5.671   1.556  0.7167  1.7005 -0.2521
 8848SOL     OW27227   3.005   6.491   1.779 -0.1623  0.0221  0.1712
 8848SOL    HW127228   3.096   6.502   1.750 -0.7806  0.4472 -1.7688
 8848SOL    HW227229   2.963   6.575   1.759 -1.2849 -0.6046 -0.1803
 8849SOL     OW27230   6.391   3.152   3.108  0.7245  0.1722  0.2395
 8849SOL    HW127231   6.329   3.206   3.059 -0.0294 -0.8702  0.0119
 8849SOL    HW227232   6.357   3.151   3.198  0.5221 -0.2199  0.1624
 8850SOL     OW27233   0.517   0.189   1.017  0.3524  1.0640 -0.0898
 8850SOL    HW127234   0.471   0.158   0.939  0.8478 -0.0019  0.0261
 8850SOL    HW227235   0.491   0.281   1.025 -0.6706  0.8557 -0.8049
 8851SOL     OW27236   5.873   6.173   0.777  0.0085 -0.1668  0.1494
 8851SOL    HW127237   5.848   6.112   0.708  0.6831 -0.1813 -0.0854
 8851SOL    HW227238   5.931   6.123   0.834  0.2680  0.1441  0.1601
 8852SOL     OW27239   5.174   1.786   5.968  0.1280 -0.6071 -1.0944
 8852SOL    HW127240   5.155   1.694   5.950 -2.1367  0.0152 -2.2276
 8852SOL    HW227241   5.126   1.834   5.901  1.6520  1.4209 -0.8445
 8853SOL     OW27242   2.459   2.733   4.417 -0.2119  0.3896 -0.2136
 8853SOL    HW127243   2.464   2.828   4.423 -1.1366  0.6196 -2.1558
 8853SOL    HW227244   2.507   2.712   4.336  0.3723 -0.8593  0.4253
 8854SOL     OW27245   4.570   6.588   5.540  0.1247 -0.4131 -0.8126
 8854SOL    HW127246   4.551   6.501   5.575 -0.7054  0.0588 -0.0301
 8854SOL    HW227247   4.563   6.646   5.616  0.8921  0.3054 -1.2818
 8855SOL     OW27248   1.866   1.074   1.158 -0.8272  0.8766 -0.0755
 8855SOL    HW127249   1.951   1.063   1.203 -1.4283  1.2619  1.2144
 8855SOL    HW227250   1.830   1.154   1.195 -3.0932 -0.8182  1.7006
 8856SOL     OW27251   0.183   6.658   3.862  0.1547 -0.2465 -0.3098
 8856SOL    HW127252   0.231   6.740   3.877  1.5433 -1.0969  0.0366
 8856SOL    HW227253   0.113   6.683   3.801  0.0818  1.3427  0.3673
 8857SOL     OW27254   3.907   3.712   6.748 -0.2452  0.5574 -0.4079
 8857SOL    HW127255   3.993   3.715   6.789 -0.4349 -1.1361  0.1869
 8857SOL    HW227256   3.877   3.803   6.749  0.9092  0.9539  0.7148
 8858SOL     OW27257   6.213   4.043   1.150  0.1516  0.0845  0.0863
 8858SOL    HW127258   6.270   3.987   1.097  0.1048  0.5068 -0.4232
 8858SOL    HW227259   6.250   4.039   1.238  0.9239  0.2873 -0.2202
 8859SOL     OW27260   3.973   1.816   6.484 -0.2594 -0.5888  0.3264
 8859SOL    HW127261   3.960   1.751   6.554 -0.9737 -1.1454 -0.3173
 8859SOL    HW227262   3.886   1.830   6.447  0.1947 -0.7257 -0.8334
 8860SOL     OW27263   5.691   6.437   1.839  0.1214 -0.2908  0.6182
 8860SOL    HW127264   5.783   6.413   1.824 -0.4146 -2.0408 -0.1037
 8860SOL    HW227265   5.661   6.377   1.907 -0.7742 -0.4646  0.0862
 8861SOL     OW27266   5.572   6.811   4.998  0.7889  0.1498 -0.1748
 8861SOL    HW127267   5.490   6.769   4.971  1.2121 -1.0951  0.3547
 8861SOL    HW227268   5.550   6.858   5.078  0.2624  1.1337 -0.8761
 8862SOL     OW27269   0.416   1.845   4.751 -0.3667 -0.1783 -0.4272
 8862SOL    HW127270   0.393   1.903   4.679 -1.8723 -0.2129 -0.0058
 8862SOL    HW227271   0.397   1.895   4.830 -1.9463 -1.2936 -0.0554
 8863SOL     OW27272   2.195   3.812   0.087  0.3313  0.2207  0.4191
 8863SOL    HW127273   2.224   3.899   0.115 -0.4394  0.2895  1.0672
 8863SOL    HW227274   2.171   3.823  -0.005  1.0006  0.4964  0.2765
 8864SOL     OW27275   3.533   2.362   5.717  0.2072  0.0593 -0.2627
 8864SOL    HW127276   3.509   2.415   5.641  0.3141  0.3857 -0.0659
 8864SOL    HW227277   3.494   2.276   5.698 -0.2292  0.2898 -0.4384
 8865SOL     OW27278   4.083   4.814   2.115  0.1928 -0.2093  0.3190
 8865SOL    HW127279   4.014   4.852   2.170  0.7229  2.0993 -0.5110
 8865SOL    HW227280   4.040   4.795   2.032  0.5056  1.2291 -0.1983
 8866SOL     OW27281   1.752   0.772   4.601 -0.1035 -0.3103  0.1327
 8866SOL    HW127282   1.726   0.690   4.560 -2.3699  0.3519  0.0931
 8866SOL    HW227283   1.703   0.839   4.554 -0.2986  0.7988  1.8303
 8867SOL     OW27284   5.156   6.317   1.594 -0.1896 -0.4617  0.2093
 8867SOL    HW127285   5.171   6.403   1.555 -1.1063 -0.0672  0.6777
 8867SOL    HW227286   5.121   6.264   1.523  1.8293 -0.9330 -0.4806
 8868SOL     OW27287   6.062   5.307   4.854 -0.1349 -0.3253 -0.1053
 8868SOL    HW127288   6.049   5.245   4.782 -0.5150 -0.1920 -0.1508
 8868SOL    HW227289   6.138   5.358   4.827  0.4710 -1.0658  0.1396
 8869SOL     OW27290   2.463   0.764   6.461  0.6970 -0.2593 -0.0210
 8869SOL    HW127291   2.514   0.832   6.505  0.4411  0.5134 -0.8718
 8869SOL    HW227292   2.528   0.702   6.428  0.9689 -0.1490  0.2980
 8870SOL     OW27293   6.812   2.105   2.797  0.0735  0.2373 -0.0347
 8870SOL    HW127294   6.738   2.146   2.841  0.7668 -0.5375  1.9511
 8870SOL    HW227295   6.885   2.165   2.814  0.7716 -0.9977  1.6456
 8871SOL     OW27296   1.044   0.515   6.726 -0.0820 -0.0965 -0.0558
 8871SOL    HW127297   1.002   0.601   6.722 -0.2993 -0.1340  1.2480
 8871SOL    HW227298   1.091   0.515   6.809  3.1572  0.2130 -1.7257
 8872SOL     OW27299   5.708   0.896   5.225  0.4192  0.1934  0.1694
 8872SOL    HW127300   5.682   0.988   5.228 -1.3115 -0.1478 -1.8480
 8872SOL    HW227301   5.680   0.860   5.310 -0.1661  1.2095  0.4204
 8873SOL     OW27302   2.815   6.452   6.089  0.1846 -0.3052 -0.0460
 8873SOL    HW127303   2.757   6.447   6.013  1.1553  0.5502 -0.8549
 8873SOL    HW227304   2.774   6.394   6.154 -1.1524 -0.3218 -0.8749
 8874SOL     OW27305   1.936   4.009   5.821 -0.1437 -0.2547  0.0272
 8874SOL    HW127306   1.914   4.068   5.894 -2.4799 -0.4338 -0.4670
 8874SOL    HW227307   1.881   4.038   5.749 -0.6934 -2.4720 -0.5118
 8875SOL     OW27308   4.002   4.051   6.581  0.0342  0.0784  0.8809
 8875SOL    HW127309   3.929   4.022   6.635 -0.9574 -2.2790 -1.5485
 8875SOL    HW227310   4.068   3.983   6.590  0.1043 -0.0369 -0.3700
 8876SOL     OW27311   1.718   5.510   3.746 -0.2704 -0.1078  0.1688
 8876SOL    HW127312   1.695   5.581   3.686  2.9768  1.9344  1.1340
 8876SOL    HW227313   1.792   5.466   3.704 -2.2130 -3.1642 -0.4384
 8877SOL     OW27314   0.633   5.154   5.822 -0.3461  0.1113  0.5851
 8877SOL    HW127315   0.639   5.223   5.888  0.2105  0.4379  0.2101
 8877SOL    HW227316   0.596   5.079   5.868 -3.8649  1.5098  0.3179
 8878SOL     OW27317   1.555   0.590   5.892  0.1765  0.2996  0.3026
 8878SOL    HW127318   1.565   0.672   5.843  1.1812  0.5600  0.9024
 8878SOL    HW227319   1.510   0.616   5.973  0.4082  0.2589  0.4485
 8879SOL     OW27320   3.373   0.527   1.859 -0.2677 -0.0920 -0.5949
 8879SOL    HW127321   3.444   0.522   1.923  0.2585  1.3034 -1.0310
 8879SOL    HW227322   3.297   0.490   1.904  0.6284 -1.2680  0.0094
 8880SOL     OW27323   4.017   4.553   6.822 -0.2418  0.4006  0.0394
 8880SOL    HW127324   4.093   4.600   6.856 -0.5925 -0.0688  1.5598
 8880SOL    HW227325   4.053   4.479   6.774  0.3312  2.2496 -2.5467
 8881SOL     OW27326   1.568   1.352   6.251 -0.3569 -0.2931  0.7275
 8881SOL    HW127327   1.583   1.443   6.226  0.7003 -0.6924 -0.1639
 8881SOL    HW227328   1.583   1.350   6.346  1.0627  0.1929  0.5298
 8882SOL     OW27329   3.191   0.489   1.084  0.3210 -0.1173  0.2815
 8882SOL    HW127330   3.260   0.550   1.059 -1.6125  1.5449 -1.3568
 8882SOL    HW227331   3.179   0.504   1.178  1.6795  0.0454  0.4499
 8883SOL     OW27332   0.861   5.950   3.540  0.5700  0.4889 -0.1214
 8883SOL    HW127333   0.805   6.026   3.553  0.7622  0.3577  1.7847
 8883SOL    HW227334   0.926   5.957   3.610  1.0132 -1.0524 -0.3531
 8884SOL     OW27335   5.720   3.181   4.470 -0.1544 -0.0082  0.1960
 8884SOL    HW127336   5.776   3.140   4.536  1.1756  1.4485  0.0124
 8884SOL    HW227337   5.733   3.275   4.481 -2.6254  0.4208  0.1572
 8885SOL     OW27338   5.587   0.576   2.285  0.3234  0.6926 -0.2761
 8885SOL    HW127339   5.598   0.522   2.363  1.3292  0.5879 -0.4729
 8885SOL    HW227340   5.493   0.575   2.267  0.2385 -0.3383  0.1838
 8886SOL     OW27341   2.528   3.683   1.311 -0.0594 -0.3765  0.2819
 8886SOL    HW127342   2.516   3.689   1.406  1.0102  1.5697  0.3389
 8886SOL    HW227343   2.505   3.770   1.278  2.1282 -0.1788 -0.9184
 8887SOL     OW27344   6.489   0.748   2.055  0.3189  0.5088 -0.1691
 8887SOL    HW127345   6.423   0.794   2.106 -2.0877 -2.5777 -0.1798
 8887SOL    HW227346   6.554   0.719   2.119  1.0848  2.5164  0.0241
 8888SOL     OW27347   5.631   4.553   3.939  0.2909 -1.1583 -0.1618
 8888SOL    HW127348   5.634   4.639   3.981  2.6699 -1.9905  1.5424
 8888SOL    HW227349   5.566   4.504   3.991 -1.0078 -0.4890 -1.0854
 8889SOL     OW27350   1.523   2.935   4.378  0.5498  0.3783 -0.5587
 8889SOL    HW127351   1.566   3.018   4.354  1.8742  0.0003  0.3594
 8889SOL    HW227352   1.591   2.869   4.364 -0.2291 -0.4561 -0.4805
 8890SOL     OW27353   1.149   4.344   1.415  0.3878 -0.0062 -0.2937
 8890SOL    HW127354   1.150   4.252   1.387  0.0449 -0.4306  1.0259
 8890SOL    HW227355   1.149   4.340   1.511  2.5028  1.3910 -0.1625
 8891SOL     OW27356   1.308   5.304   4.004 -0.2797 -0.3584 -0.2233
 8891SOL    HW127357   1.320   5.235   4.069  0.8730 -0.2076 -0.2595
 8891SOL    HW227358   1.227   5.280   3.958 -0.0040 -1.5781 -0.1069
 8892SOL     OW27359   1.081   6.779   1.559 -0.2180 -0.3227  0.4230
 8892SOL    HW127360   1.115   6.797   1.471 -0.4474  0.9309  0.5658
 8892SOL    HW227361   1.158   6.785   1.616  0.1903 -2.5059  0.1865
 8893SOL     OW27362   2.800   0.110   6.416 -0.1934 -0.6278  0.4125
 8893SOL    HW127363   2.783   0.137   6.506 -0.7878 -2.2811  0.8328
 8893SOL    HW227364   2.713   0.108   6.375  0.0792  0.1846 -0.2430
 8894SOL     OW27365   0.491   5.249   5.054 -0.2085  0.1909  0.1718
 8894SOL    HW127366   0.496   5.153   5.045 -1.9013 -0.0433  1.2501
 8894SOL    HW227367   0.526   5.267   5.141 -0.9681  0.4266  0.4310
 8895SOL     OW27368   5.221   1.556   1.260  0.2800  0.1960 -0.7108
 8895SOL    HW127369   5.233   1.493   1.330 -3.4727  0.5642  0.4947
 8895SOL    HW227370   5.194   1.504   1.184 -0.6198  0.1320 -0.3604
 8896SOL     OW27371   0.998   3.181   4.963 -0.2496  0.2047 -0.2883
 8896SOL    HW127372   0.904   3.163   4.955 -0.0129 -1.2098 -0.2167
 8896SOL    HW227373   1.021   3.229   4.884 -1.0721  0.7424 -0.2062
 8897SOL     OW27374   1.229   3.176   6.786 -0.0250  0.1056  0.4392
 8897SOL    HW127375   1.176   3.237   6.733 -0.1483  0.5211  1.0306
 8897SOL    HW227376   1.311   3.168   6.738 -0.0621  0.6318  0.2797
 8898SOL     OW27377   5.440   4.599   2.997 -0.0087  0.9303 -0.5110
 8898SOL    HW127378   5.529   4.575   3.022  0.1176  0.4484 -1.3640
 8898SOL    HW227379   5.384   4.566   3.067  0.4153  0.5743 -0.3426
 8899SOL     OW27380   2.555   5.252   2.720  0.6217  0.3264 -0.0370
 8899SOL    HW127381   2.528   5.167   2.687  1.1762  1.1863 -2.9944
 8899SOL    HW227382   2.597   5.233   2.804  0.5270 -2.2743 -0.5020
 8900SOL     OW27383   5.736   4.327   0.321 -0.3281 -0.1672 -0.0642
 8900SOL    HW127384   5.739   4.330   0.226  0.9456  1.1613 -0.0197
 8900SOL    HW227385   5.671   4.392   0.345 -0.4020 -0.2574 -0.0187
 8901SOL     OW27386   1.681   0.905   4.369  0.4784 -0.6129 -0.1137
 8901SOL    HW127387   1.691   0.994   4.335  0.9379  0.4079  2.4994
 8901SOL    HW227388   1.763   0.861   4.345  0.4817 -0.1786 -0.9366
 8902SOL     OW27389   2.912   1.754   4.705 -0.0816  0.2902 -0.1921
 8902SOL    HW127390   2.848   1.768   4.635 -1.1558 -0.2638  0.6613
 8902SOL    HW227391   2.877   1.682   4.756  0.6969  0.6686  0.9194
 8903SOL     OW27392   5.027   1.502   5.809  0.4323 -0.2375 -0.2297
 8903SOL    HW127393   4.965   1.505   5.736  0.4490  0.2243 -0.2271
 8903SOL    HW227394   4.973   1.521   5.886  0.4222 -0.6834 -0.1212
 8904SOL     OW27395   6.026   1.932   0.105 -0.1178  0.1917  0.3165
 8904SOL    HW127396   6.109   1.918   0.152 -0.3801 -0.3304  0.6366
 8904SOL    HW227397   5.994   2.016   0.138 -0.2598 -0.1300  1.0271
 8905SOL     OW27398   3.252   3.766   0.196  0.3044 -0.2643 -0.4073
 8905SOL    HW127399   3.283   3.748   0.285  0.0240  1.3943  0.0676
 8905SOL    HW227400   3.183   3.702   0.181  1.1858 -1.3552  0.0905
 8906SOL     OW27401   6.714   2.192   4.176 -0.0488 -0.4426  0.3558
 8906SOL    HW127402   6.650   2.126   4.206 -1.2808 -0.0494 -1.3066
 8906SOL    HW227403   6.721   2.177   4.082 -0.1407  1.6012 -0.0137
 8907SOL     OW27404   6.667   6.262   5.803  0.5660 -0.0050 -0.0235
 8907SOL    HW127405   6.639   6.278   5.713  0.5034 -0.3458 -0.0680
 8907SOL    HW227406   6.602   6.200   5.837  1.6825 -1.4591 -0.3940
 8908SOL     OW27407   6.581   2.905   0.979 -0.1657 -0.3774 -0.0802
 8908SOL    HW127408   6.603   2.910   0.886 -1.2835 -0.3468 -0.3637
 8908SOL    HW227409   6.660   2.871   1.021  0.7518  0.6932 -0.8684
 8909SOL     OW27410   4.991   4.704   3.519  0.0370 -0.5128  0.1441
 8909SOL    HW127411   4.897   4.722   3.524  0.0021 -0.8097  0.6139
 8909SOL    HW227412   5.033   4.787   3.543 -0.1092 -0.5142  0.4070
 8910SOL     OW27413   1.631   5.940   6.550 -0.0258 -0.4215 -0.5173
 8910SOL    HW127414   1.699   5.998   6.583 -0.8376  0.2342  0.0433
 8910SOL    HW227415   1.651   5.854   6.588 -0.7081  0.2233  1.4017
 8911SOL     OW27416   2.180   4.654   2.423  0.5358 -0.1128  0.5241
 8911SOL    HW127417   2.121   4.665   2.498  1.2629  0.7964  0.9854
 8911SOL    HW227418   2.166   4.563   2.395 -0.6305 -0.1009  0.9934
 8912SOL     OW27419   1.947   5.947   6.449  0.2152  0.0992 -0.0895
 8912SOL    HW127420   1.958   5.855   6.424  3.0681  0.1743  0.6630
 8912SOL    HW227421   2.010   5.962   6.519 -3.1175  1.5731  2.9503
 8913SOL     OW27422   2.644   5.227   5.818  0.8289  0.7189 -0.7557
 8913SOL    HW127423   2.592   5.303   5.845  1.5688  1.5724 -1.6848
 8913SOL    HW227424   2.694   5.204   5.896 -0.7329  0.0183  0.0945
 8914SOL     OW27425   5.758   0.486   2.075  0.2801 -0.0806 -0.5811
 8914SOL    HW127426   5.682   0.439   2.040  0.6462 -1.2219  0.1162
 8914SOL    HW227427   5.729   0.519   2.160  0.3567  0.0403 -0.6025
 8915SOL     OW27428   1.668   1.394   4.601 -0.1415  0.2802  0.1866
 8915SOL    HW127429   1.750   1.425   4.640  0.1743  0.6538 -0.7580
 8915SOL    HW227430   1.630   1.338   4.668  1.0344 -0.1428  0.5218
 8916SOL     OW27431   5.035   1.645   1.519  0.3503 -0.0687 -0.4434
 8916SOL    HW127432   4.987   1.568   1.486 -0.1155 -0.1423  0.3903
 8916SOL    HW227433   5.087   1.674   1.444 -0.9846  0.0036 -1.3804
 8917SOL     OW27434   0.060   2.430   0.426  0.1351 -0.2462 -0.0483
 8917SOL    HW127435   0.085   2.501   0.366 -0.1566  2.1439  2.4680
 8917SOL    HW227436  -0.035   2.438   0.434  0.0484 -1.2097 -0.0315
 8918SOL     OW27437   5.561   1.213   2.169  0.1491 -0.0701 -0.4194
 8918SOL    HW127438   5.559   1.130   2.122 -0.8658 -0.0671 -0.4177
 8918SOL    HW227439   5.584   1.278   2.103 -1.1458 -0.0820 -0.9185
 8919SOL     OW27440   3.152   0.369   4.490  0.4903  0.3644 -0.2831
 8919SOL    HW127441   3.194   0.416   4.418 -0.1657  1.4378  0.0017
 8919SOL    HW227442   3.103   0.299   4.449  1.9699 -0.4688 -0.6778
 8920SOL     OW27443   5.150   3.055   2.932  0.2581  0.6258  0.0816
 8920SOL    HW127444   5.192   3.107   2.862  0.6914  0.8330  0.4885
 8920SOL    HW227445   5.127   3.120   2.998 -1.5035  0.6309 -0.4988
 8921SOL     OW27446   0.868   3.370   3.835  0.2593 -0.0762  0.9490
 8921SOL    HW127447   0.893   3.343   3.923  1.5207  0.1605  0.6874
 8921SOL    HW227448   0.945   3.350   3.781 -0.8683 -1.1920 -0.3058
 8922SOL     OW27449   2.669   0.705   1.559 -0.1387  0.2853 -0.4203
 8922SOL    HW127450   2.757   0.741   1.561 -0.2568  0.5855 -0.5267
 8922SOL    HW227451   2.614   0.773   1.597 -0.1755 -0.3444  0.6964
 8923SOL     OW27452   3.100   5.463   3.341 -0.3215 -0.2420  0.4863
 8923SOL    HW127453   3.055   5.461   3.425 -0.7303 -0.9627  0.2580
 8923SOL    HW227454   3.117   5.371   3.321  1.1016 -0.0057  0.4815
 8924SOL     OW27455   1.234   2.604   3.730 -0.1882 -0.3622  0.4833
 8924SOL    HW127456   1.276   2.568   3.808  1.7548 -0.5632 -0.6129
 8924SOL    HW227457   1.253   2.541   3.661 -0.2885  0.7365 -0.5724
 8925SOL     OW27458   3.547   2.761   3.775 -0.2091 -0.0026 -0.3964
 8925SOL    HW127459   3.532   2.754   3.680 -3.1932  1.9450 -0.2026
 8925SOL    HW227460   3.471   2.808   3.808  1.8231  1.4915  2.6796
 8926SOL     OW27461   4.496   5.486   0.938  0.4418 -0.0340  0.0197
 8926SOL    HW127462   4.561   5.477   1.008 -0.7883  1.3289  1.4086
 8926SOL    HW227463   4.434   5.415   0.953 -0.2402  0.7015  0.8462
 8927SOL     OW27464   0.770   2.471   0.771  0.7415  0.1908 -0.1027
 8927SOL    HW127465   0.730   2.385   0.758  0.6760  0.3459 -0.9887
 8927SOL    HW227466   0.860   2.453   0.797  0.6151 -0.1477  0.1011
 8928SOL     OW27467   1.238   3.679   6.036 -0.0622  0.4036 -0.7295
 8928SOL    HW127468   1.183   3.754   6.058  1.1872  1.5545 -1.3902
 8928SOL    HW227469   1.247   3.682   5.940 -0.0175 -0.6149 -0.7747
 8929SOL     OW27470   5.212   4.728   6.375 -0.3783 -0.0379 -0.1958
 8929SOL    HW127471   5.266   4.712   6.297  3.0935  0.7033  1.8282
 8929SOL    HW227472   5.225   4.651   6.430 -0.0084  0.8335  0.9981
 8930SOL     OW27473   6.629   2.691   3.446  0.6330 -0.2034  0.3817
 8930SOL    HW127474   6.705   2.727   3.491  0.1785  0.3107  0.7551
 8930SOL    HW227475   6.662   2.664   3.360  1.3401 -0.4681  0.7327
 8931SOL     OW27476   0.572   4.435   0.836  0.5046  0.2610  0.2865
 8931SOL    HW127477   0.663   4.463   0.851  0.5796 -0.4410  1.2732
 8931SOL    HW227478   0.526   4.515   0.811  1.4638  0.5650 -0.5883
 8932SOL     OW27479   2.797   5.959   4.358 -0.0352 -0.0522  0.2548
 8932SOL    HW127480   2.779   5.875   4.315  0.3401  1.1497 -2.4709
 8932SOL    HW227481   2.879   5.944   4.405  0.8420 -0.8668 -1.4158
 8933SOL     OW27482   0.689   6.833   6.715  0.8499 -0.0470  0.3524
 8933SOL    HW127483   0.749   6.818   6.642 -0.8409 -0.0066 -1.1068
 8933SOL    HW227484   0.622   6.891   6.680 -0.3409 -0.4970  1.7598
 8934SOL     OW27485   4.803   5.037   1.074 -0.2154 -0.2240 -0.3449
 8934SOL    HW127486   4.817   5.098   1.001  1.9516 -0.3179 -0.0617
 8934SOL    HW227487   4.779   5.093   1.148  0.6882  0.1926 -0.3596
 8935SOL     OW27488   4.200   4.179   3.671  0.2860 -0.0691 -0.2673
 8935SOL    HW127489   4.122   4.130   3.646  1.1962 -1.2306 -0.9643
 8935SOL    HW227490   4.167   4.261   3.708 -1.2831 -1.1972  0.9071
 8936SOL     OW27491   3.414   5.845   1.776 -0.2498  0.2877  0.0008
 8936SOL    HW127492   3.476   5.882   1.839 -1.3356  1.2791  0.5103
 8936SOL    HW227493   3.467   5.823   1.700  1.0565 -0.7011  1.1390
 8937SOL     OW27494   5.793   4.547   3.365  0.8186 -0.9473 -0.2289
 8937SOL    HW127495   5.758   4.558   3.453  0.3835  1.3307 -0.6194
 8937SOL    HW227496   5.720   4.565   3.307  1.8687  1.0748 -1.0377
 8938SOL     OW27497   1.933   4.429   6.534 -0.1527  0.2134 -0.2776
 8938SOL    HW127498   1.953   4.495   6.469 -0.1681  0.9639  0.4683
 8938SOL    HW227499   1.945   4.345   6.488 -0.3914  0.7287 -1.2951
 8939SOL     OW27500   5.489   6.335   4.047 -0.0217 -0.0005  0.2628
 8939SOL    HW127501   5.499   6.241   4.035 -1.1390  0.1104 -2.1541
 8939SOL    HW227502   5.569   6.373   4.010 -0.1043  0.0367  0.1201
 8940SOL     OW27503   0.605   2.313   1.554 -0.3654  0.6751  0.4983
 8940SOL    HW127504   0.522   2.265   1.565 -0.5937  1.2367  1.3205
 8940SOL    HW227505   0.601   2.346   1.464 -1.2131  1.0250  0.6585
 8941SOL     OW27506   3.335   1.728   2.984  0.2468 -0.0456  0.1113
 8941SOL    HW127507   3.298   1.805   3.029  1.3063  0.4104  0.2317
 8941SOL    HW227508   3.270   1.706   2.918  0.6121  1.9541 -0.9969
 8942SOL     OW27509   0.120   3.636   4.792  0.0251  0.3226 -0.1337
 8942SOL    HW127510   0.151   3.705   4.733 -2.1316  0.7456 -0.8659
 8942SOL    HW227511   0.168   3.652   4.873  2.0763  0.5590 -1.3042
 8943SOL     OW27512   6.451   3.464   5.588 -0.0383 -0.0496 -0.5734
 8943SOL    HW127513   6.358   3.457   5.607  0.1742  1.2783  1.2134
 8943SOL    HW227514   6.489   3.382   5.620 -0.5860 -0.6403 -1.4096
 8944SOL     OW27515   4.625   6.307   1.613 -0.7788 -0.1225  0.2304
 8944SOL    HW127516   4.647   6.383   1.559 -1.0486  0.8461  1.4389
 8944SOL    HW227517   4.540   6.279   1.580 -0.5540 -0.0758 -0.4060
 8945SOL     OW27518   3.517   0.808   0.451 -0.2946  0.2794  0.5103
 8945SOL    HW127519   3.425   0.795   0.432  0.1053 -2.2847  0.0217
 8945SOL    HW227520   3.518   0.876   0.519 -2.3623  1.8719 -0.9508
 8946SOL     OW27521   3.085   0.344   5.855  0.1129  0.4290  0.7170
 8946SOL    HW127522   3.143   0.418   5.835  0.3451  0.3535  1.1064
 8946SOL    HW227523   3.144   0.273   5.880 -0.0015 -0.4270 -1.2626
 8947SOL     OW27524   1.391   2.040   2.287  0.4158  0.9377  0.0818
 8947SOL    HW127525   1.303   2.065   2.315  1.8654  3.0496  3.3931
 8947SOL    HW227526   1.427   2.119   2.246  1.1732  0.5184 -0.0853
 8948SOL     OW27527   0.824   4.768   6.804 -0.3532 -0.4937 -0.4063
 8948SOL    HW127528   0.894   4.718   6.762 -0.4190 -1.5831  0.7283
 8948SOL    HW227529   0.760   4.782   6.733  1.3470  1.2961 -1.6860
 8949SOL     OW27530   4.162   2.719   6.790 -0.9456 -0.1529  0.2793
 8949SOL    HW127531   4.243   2.717   6.840 -1.6399  2.3559  1.7059
 8949SOL    HW227532   4.177   2.786   6.723 -1.3724 -0.6651 -0.3374
 8950SOL     OW27533   4.196   5.376   1.645  0.2102  0.2438 -0.4099
 8950SOL    HW127534   4.195   5.415   1.732  0.0534 -0.0506 -0.2773
 8950SOL    HW227535   4.127   5.309   1.648  0.4353 -0.0002 -0.6532
 8951SOL     OW27536   4.272   5.639   6.474  0.1816  0.4413 -0.1111
 8951SOL    HW127537   4.366   5.651   6.456  0.2421  0.3522  0.1455
 8951SOL    HW227538   4.237   5.600   6.394  0.5051 -0.2237  0.0656
 8952SOL     OW27539   0.724   0.935   2.004  0.4107 -0.5102  0.1224
 8952SOL    HW127540   0.772   1.001   2.054  0.5098 -0.4325 -0.0749
 8952SOL    HW227541   0.740   0.853   2.050 -0.0687 -0.3336  0.6230
 8953SOL     OW27542   0.971   6.792   0.666  0.4616  0.0512  0.2778
 8953SOL    HW127543   0.966   6.827   0.755 -0.1674 -2.1492  1.1674
 8953SOL    HW227544   1.035   6.722   0.671  0.1923 -0.2999 -0.9389
 8954SOL     OW27545   5.197   2.861   6.611 -0.4791 -0.2888 -0.4534
 8954SOL    HW127546   5.273   2.804   6.618 -0.3085 -0.2103 -1.4610
 8954SOL    HW227547   5.211   2.928   6.678 -0.8934 -1.6304  1.0232
 8955SOL     OW27548   4.185   0.902   0.194  0.0507 -0.0831 -0.5804
 8955SOL    HW127549   4.155   0.813   0.174 -1.2403 -0.1002  1.2071
 8955SOL    HW227550   4.273   0.907   0.155  0.4223 -2.3655 -0.1590
 8956SOL     OW27551   5.977   1.544   1.324 -0.1674 -0.3688 -0.1977
 8956SOL    HW127552   5.935   1.559   1.239  0.2222 -0.4115 -0.3958
 8956SOL    HW227553   6.008   1.453   1.319 -0.0849 -0.3490 -0.0337
 8957SOL     OW27554   3.559   6.663   4.123 -0.4781 -1.2673 -0.4587
 8957SOL    HW127555   3.578   6.593   4.061  0.5597 -0.5650 -0.9568
 8957SOL    HW227556   3.557   6.743   4.070 -0.0235 -0.7160  0.3294
 8958SOL     OW27557   1.418   2.875   1.375 -0.0227 -0.2991 -0.0039
 8958SOL    HW127558   1.494   2.867   1.317  1.0401 -1.5638  1.4741
 8958SOL    HW227559   1.356   2.810   1.342 -0.1817  0.2438 -0.7947
 8959SOL     OW27560   0.759   1.322   1.067 -0.4497 -0.4335  0.8037
 8959SOL    HW127561   0.851   1.305   1.046 -0.1830  1.5773  0.1438
 8959SOL    HW227562   0.745   1.276   1.150  1.5639  0.3511  1.6559
 8960SOL     OW27563   1.675   5.652   1.988 -0.0606 -0.3521  0.2849
 8960SOL    HW127564   1.706   5.699   2.064 -1.7276  0.2339  0.6524
 8960SOL    HW227565   1.736   5.579   1.977  0.4980 -0.1449  1.8663
 8961SOL     OW27566   0.924   4.304   5.612 -0.1839  0.5489  0.2332
 8961SOL    HW127567   1.017   4.317   5.628  0.0803  1.2466 -1.5947
 8961SOL    HW227568   0.893   4.253   5.687  1.9928 -1.0680  0.1294
 8962SOL     OW27569   6.874   0.790   5.553  0.0454 -0.1980 -0.1804
 8962SOL    HW127570   6.795   0.840   5.573  0.8442  0.4382  1.5729
 8962SOL    HW227571   6.864   0.767   5.460 -1.5305  1.0367 -0.3755
 8963SOL     OW27572   6.308   0.513   6.382 -0.6543  0.4688 -0.0503
 8963SOL    HW127573   6.341   0.446   6.322  1.0357  1.7321 -0.5916
 8963SOL    HW227574   6.227   0.544   6.341 -0.4391  0.0883 -0.7793
 8964SOL     OW27575   0.363   2.518   0.077  0.0735  0.2756  0.0265
 8964SOL    HW127576   0.452   2.546   0.058  1.0383 -1.6396  1.4446
 8964SOL    HW227577   0.335   2.470  -0.000  0.2840  0.7977 -0.3829
 8965SOL     OW27578   5.057   5.143   3.119  0.3917 -0.5543  0.2497
 8965SOL    HW127579   5.118   5.174   3.186  1.2848  0.0718 -0.8168
 8965SOL    HW227580   4.998   5.084   3.166  0.4058  0.5754  1.7720
 8966SOL     OW27581   2.400   2.393   5.697  0.1815 -0.1850  0.2537
 8966SOL    HW127582   2.334   2.355   5.639  0.5741 -0.9716  0.3085
 8966SOL    HW227583   2.451   2.318   5.727  0.3195  0.2724  1.1965
 8967SOL     OW27584   0.525   3.671   1.355 -0.7341 -0.4747 -0.1448
 8967SOL    HW127585   0.496   3.630   1.274 -0.7206  0.2499 -0.5285
 8967SOL    HW227586   0.511   3.605   1.422  0.2541 -1.4892 -0.8932
 8968SOL     OW27587   5.637   1.167   0.556 -0.5186  0.7478  0.2317
 8968SOL    HW127588   5.719   1.166   0.605 -0.0001 -2.6051 -0.4584
 8968SOL    HW227589   5.570   1.145   0.621 -0.5118  1.0351  0.3359
 8969SOL     OW27590   0.418   6.787   0.422  0.9156 -0.0944 -0.3682
 8969SOL    HW127591   0.496   6.765   0.371  1.3260 -0.4936  0.4090
 8969SOL    HW227592   0.364   6.837   0.362  0.8781 -1.5008 -1.5640
 8970SOL     OW27593   1.410   1.563   6.891  0.4763 -0.5039  0.5953
 8970SOL    HW127594   1.434   1.471   6.902 -1.1637 -1.1172 -0.6036
 8970SOL    HW227595   1.392   1.594   6.980  2.0102 -1.0411  1.1111
 8971SOL     OW27596   5.844   4.396   4.636  0.2312  0.1314  0.6520
 8971SOL    HW127597   5.803   4.337   4.574  0.2971  1.0253 -0.2619
 8971SOL    HW227598   5.893   4.458   4.582  0.9083  0.4705  1.6237
 8972SOL     OW27599   0.201   3.385   2.574  0.1545 -0.5134 -0.0722
 8972SOL    HW127600   0.172   3.443   2.504 -2.6096 -0.6455  0.8508
 8972SOL    HW227601   0.213   3.300   2.532 -0.6832 -0.4068 -0.5359
 8973SOL     OW27602   1.926   6.358   4.598 -0.5553  0.1563 -0.0746
 8973SOL    HW127603   1.990   6.424   4.572 -0.1357 -0.5036 -0.7611
 8973SOL    HW227604   1.888   6.328   4.516  0.7522 -1.9300  0.0036
 8974SOL     OW27605   2.399   3.182   6.376 -0.1570 -0.0802 -0.0899
 8974SOL    HW127606   2.424   3.130   6.300 -1.8623 -1.3553  0.1479
 8974SOL    HW227607   2.312   3.150   6.399 -0.2471  1.2150  1.5834
 8975SOL     OW27608   3.904   2.007   1.125 -0.1967 -0.0373  0.1219
 8975SOL    HW127609   3.978   1.992   1.183 -2.2664 -2.1404  2.4802
 8975SOL    HW227610   3.834   2.038   1.183 -1.6183  0.4725 -1.7513
 8976SOL     OW27611   6.197   2.726   3.430  0.0838 -0.3098  0.1080
 8976SOL    HW127612   6.161   2.669   3.361  2.3249 -0.2034 -1.2447
 8976SOL    HW227613   6.206   2.669   3.506  1.0424 -1.4794 -0.8371
 8977SOL     OW27614   2.554   0.132   2.407  0.1672 -0.1468  0.2915
 8977SOL    HW127615   2.463   0.152   2.386  0.5947 -0.1414 -1.7194
 8977SOL    HW227616   2.595   0.115   2.323  1.9556 -0.5297  1.1936
 8978SOL     OW27617   5.093   5.913   5.849 -0.4115 -0.2958 -0.0885
 8978SOL    HW127618   5.064   5.828   5.816  1.6265 -1.6808  1.4281
 8978SOL    HW227619   5.127   5.958   5.772 -1.4463 -0.8657 -0.9095
 8979SOL     OW27620   2.501   6.790   3.304  0.2499  0.7034 -0.0090
 8979SOL    HW127621   2.538   6.704   3.324 -0.6924  0.4023  0.4784
 8979SOL    HW227622   2.419   6.772   3.259  0.6044  1.3722 -0.9610
 8980SOL     OW27623   6.403   4.873   2.168 -0.5129 -0.3795 -0.0279
 8980SOL    HW127624   6.388   4.789   2.212 -0.9059  0.3590  1.2986
 8980SOL    HW227625   6.425   4.933   2.238  2.2865  0.1150 -1.2196
 8981SOL     OW27626   4.635   1.995   5.316  0.9428 -0.2805  0.2563
 8981SOL    HW127627   4.638   2.050   5.395  0.0922  1.2681 -0.7425
 8981SOL    HW227628   4.561   2.029   5.266  1.7090 -0.9633 -1.4126
 8982SOL     OW27629   0.724   4.897   2.248  0.5930 -0.1003 -0.2396
 8982SOL    HW127630   0.677   4.980   2.242  0.1703 -0.2629  0.7464
 8982SOL    HW227631   0.687   4.852   2.324 -0.3444 -1.9230 -1.6866
 8983SOL     OW27632   2.950   5.935   1.396 -0.6842 -0.1399 -0.1549
 8983SOL    HW127633   2.881   5.975   1.449  0.7512  1.5056  0.5630
 8983SOL    HW227634   2.982   6.005   1.340 -0.1232 -1.0748 -1.0442
 8984SOL     OW27635   2.478   1.702   5.062  0.3912  0.7560  0.1951
 8984SOL    HW127636   2.496   1.781   5.113  0.9274  1.0940 -0.4965
 8984SOL    HW227637   2.540   1.706   4.990  1.0783 -0.7889  0.6684
 8985SOL     OW27638   4.991   2.053   3.282  0.1952  0.4629 -0.1093
 8985SOL    HW127639   4.980   1.958   3.292  0.2403  0.5917  1.4404
 8985SOL    HW227640   5.060   2.063   3.216 -0.0773 -0.5647 -0.5672
 8986SOL     OW27641   4.663   1.872   4.712  0.4578  0.4445  0.7037
 8986SOL    HW127642   4.582   1.906   4.674  1.1220  0.4764 -0.7433
 8986SOL    HW227643   4.724   1.865   4.638  2.1182  1.3787  1.8907
 8987SOL     OW27644   0.158   3.878   6.653  0.5294 -0.1988 -0.5192
 8987SOL    HW127645   0.086   3.942   6.654  0.1370 -0.6401  0.0061
 8987SOL    HW227646   0.138   3.818   6.725  1.4001 -0.3657 -0.4072
 8988SOL     OW27647   1.196   4.175   3.567 -0.3913  1.0851  0.3268
 8988SOL    HW127648   1.146   4.254   3.587 -0.5769  0.8654  0.7391
 8988SOL    HW227649   1.267   4.206   3.511 -0.6203  1.5012  0.2595
 8989SOL     OW27650   4.794   5.595   4.598 -0.5233 -0.1008  0.2064
 8989SOL    HW127651   4.715   5.541   4.595 -0.0292 -0.8125 -0.4820
 8989SOL    HW227652   4.823   5.599   4.507  2.3975 -3.1062  0.8182
 8990SOL     OW27653   0.655   5.183   2.002 -0.0061  0.2600 -0.2737
 8990SOL    HW127654   0.745   5.196   1.975  0.3202  0.6540  0.9162
 8990SOL    HW227655   0.606   5.252   1.958  0.5803  1.1812  0.4785
 8991SOL     OW27656   0.007   2.247   5.008 -0.4801 -0.0841 -0.0818
 8991SOL    HW127657  -0.051   2.314   4.973  0.8383  1.0321 -0.2182
 8991SOL    HW227658   0.017   2.184   4.936 -0.4083  0.4504 -0.5463
 8992SOL     OW27659   5.481   1.167   1.573  0.2095  0.1604 -0.0342
 8992SOL    HW127660   5.497   1.124   1.657 -0.4455  0.1802  0.1075
 8992SOL    HW227661   5.500   1.100   1.508 -0.5919 -0.2826  0.1791
 8993SOL     OW27662   1.310   2.211   4.822  0.1565  0.6797 -0.2028
 8993SOL    HW127663   1.222   2.205   4.784  0.4305  2.2342 -1.1517
 8993SOL    HW227664   1.311   2.143   4.890 -0.7719 -1.3911 -2.1138
 8994SOL     OW27665   3.102   5.126   4.767  0.7505  0.3388  0.4288
 8994SOL    HW127666   3.011   5.153   4.758  0.8694  1.1555  1.4698
 8994SOL    HW227667   3.098   5.030   4.766  0.0286  0.3614 -0.7195
 8995SOL     OW27668   1.868   1.880   6.503  0.0869  0.2907  0.1824
 8995SOL    HW127669   1.921   1.806   6.473  0.1625 -0.3289  1.7671
 8995SOL    HW227670   1.930   1.936   6.550 -0.5822 -0.3747  1.9460
 8996SOL     OW27671   6.073   6.227   6.109  0.0238  0.1720  0.3797
 8996SOL    HW127672   6.120   6.201   6.188  1.0249  1.5484  0.2591
 8996SOL    HW227673   6.079   6.322   6.108 -0.6251  0.2125 -0.9738
 8997SOL     OW27674   2.078   2.322   6.514  0.1755 -0.4237 -0.1532
 8997SOL    HW127675   2.025   2.354   6.587  0.9985  2.7451 -0.7586
 8997SOL    HW227676   2.015   2.285   6.453 -1.0854  0.8512  0.3040
 8998SOL     OW27677   0.079   1.317   0.878  0.3660  0.3236  0.0295
 8998SOL    HW127678   0.002   1.368   0.905  1.0302  1.6140 -0.4096
 8998SOL    HW227679   0.058   1.285   0.791  0.1312  0.2422  0.1149
 8999SOL     OW27680   3.051   4.163   1.244  0.0813  0.5076  0.6469
 8999SOL    HW127681   3.067   4.078   1.203 -0.2546  0.0530  1.4455
 8999SOL    HW227682   3.137   4.203   1.252  0.1402  0.6822 -0.6566
 9000SOL     OW27683   1.602   3.691   5.510  0.3590  0.3206  0.4279
 9000SOL    HW127684   1.508   3.695   5.489  0.4197  1.1060  0.2844
 9000SOL    HW227685   1.606   3.709   5.604  0.2463 -1.3552  0.8022
 9001SOL     OW27686   1.357   1.893   0.883 -0.0966 -0.2233  0.3961
 9001SOL    HW127687   1.377   1.818   0.826 -1.9353 -0.7378  0.3493
 9001SOL    HW227688   1.295   1.945   0.833 -0.1293  0.4334  1.1063
 9002SOL     OW27689   3.574   3.333   5.261  0.1686  0.6396  0.1346
 9002SOL    HW127690   3.618   3.402   5.212  1.1879 -1.1682 -1.6687
 9002SOL    HW227691   3.490   3.321   5.218 -0.1900  1.0158  0.7141
 9003SOL     OW27692   4.341   5.218   0.966  0.0623 -0.3385  0.3020
 9003SOL    HW127693   4.322   5.252   1.053  1.2723 -1.0054  0.8575
 9003SOL    HW227694   4.396   5.141   0.982 -0.9512 -1.3828 -0.9917
 9004SOL     OW27695   5.690   6.085   3.496 -0.1123 -0.0232  0.2807
 9004SOL    HW127696   5.692   5.992   3.520 -0.6302 -0.6001 -1.6716
 9004SOL    HW227697   5.608   6.117   3.533 -0.5933 -0.7175 -0.1361
 9005SOL     OW27698   0.311   3.753   1.650 -0.0185  0.5734  0.2369
 9005SOL    HW127699   0.382   3.786   1.705  0.6907  1.5185 -1.1911
 9005SOL    HW227700   0.260   3.697   1.708  1.7298  0.0887  1.3766
 9006SOL     OW27701   2.848   0.518   2.537 -0.1778  0.2387  0.5286
 9006SOL    HW127702   2.930   0.562   2.557  0.1409 -0.0393 -0.1238
 9006SOL    HW227703   2.841   0.521   2.442 -1.0553  0.4823  0.5879
 9007SOL     OW27704   1.021   4.970   6.570 -0.2447 -0.3306 -0.3356
 9007SOL    HW127705   1.026   4.978   6.475 -0.8163  1.2962 -0.2534
 9007SOL    HW227706   0.946   5.024   6.595  0.2968 -0.1968  1.0977
 9008SOL     OW27707   2.058   4.155   6.075  0.4169 -0.2785 -0.1998
 9008SOL    HW127708   2.004   4.102   6.133  0.7959 -2.3506 -1.5903
 9008SOL    HW227709   2.144   4.112   6.078  1.1431  1.1200 -0.3297
 9009SOL     OW27710   5.919   1.126   2.516 -0.4259 -0.1838  0.3894
 9009SOL    HW127711   5.840   1.094   2.472 -0.3227 -1.6890  1.2316
 9009SOL    HW227712   5.917   1.221   2.502 -0.8731 -0.4769 -2.0384
 9010SOL     OW27713   5.130   3.419   3.367 -0.1269 -0.2132 -0.0533
 9010SOL    HW127714   5.062   3.410   3.433  0.3158  0.6341  0.5478
 9010SOL    HW227715   5.211   3.393   3.412  0.0874 -0.2599 -0.4578
 9011SOL     OW27716   1.809   3.201   1.604  0.3196  0.1159  0.0726
 9011SOL    HW127717   1.809   3.291   1.572 -2.0760 -0.1763 -0.9672
 9011SOL    HW227718   1.819   3.147   1.526 -3.5350 -0.5606 -0.1325
 9012SOL     OW27719   6.162   2.911   0.989  0.3648 -0.2869  0.2319
 9012SOL    HW127720   6.204   2.993   1.014  0.5365 -0.4292  0.4130
 9012SOL    HW227721   6.134   2.872   1.071  1.1394 -0.8662  0.2336
 9013SOL     OW27722   5.807   3.532   1.919 -0.2411 -0.4156  0.3740
 9013SOL    HW127723   5.854   3.451   1.939  0.2288  0.2086  1.9332
 9013SOL    HW227724   5.751   3.547   1.995  1.2063  1.7889  1.1207
 9014SOL     OW27725   0.752   0.422   3.067 -0.2609 -0.0319  0.2581
 9014SOL    HW127726   0.757   0.415   3.162 -1.0339 -0.7193  0.2646
 9014SOL    HW227727   0.840   0.445   3.040  0.1251 -0.4793  1.0969
 9015SOL     OW27728   3.582   6.370   1.334  0.0731  0.0018  0.3637
 9015SOL    HW127729   3.491   6.348   1.315  0.5495 -1.5630 -0.2081
 9015SOL    HW227730   3.577   6.432   1.407 -1.5225  1.6153 -1.0434
 9016SOL     OW27731   2.307   3.124   6.772 -0.2601  0.2799  0.2605
 9016SOL    HW127732   2.320   3.158   6.861  2.3143 -1.2648  0.5855
 9016SOL    HW227733   2.267   3.196   6.724  0.5273  2.0191  2.0708
 9017SOL     OW27734   4.594   1.561   3.031 -0.3425  0.3497 -0.2306
 9017SOL    HW127735   4.657   1.551   2.960 -0.3588 -0.3606 -0.1534
 9017SOL    HW227736   4.628   1.634   3.084 -0.4165  0.9922 -1.0499
 9018SOL     OW27737   3.100   5.308   6.711  0.1691 -0.3978 -0.1875
 9018SOL    HW127738   3.059   5.331   6.628 -0.7557  0.7792  0.5672
 9018SOL    HW227739   3.132   5.219   6.698 -1.7589 -1.0084 -1.1633
 9019SOL     OW27740   6.836   4.199   4.540 -0.2944  0.0960 -0.1139
 9019SOL    HW127741   6.924   4.169   4.562 -0.0052  0.1144 -1.2339
 9019SOL    HW227742   6.843   4.294   4.537 -0.8764  0.2708  1.9502
 9020SOL     OW27743   4.855   1.545   2.036 -0.1248 -0.4467  0.2390
 9020SOL    HW127744   4.775   1.561   2.086 -1.1630 -1.1970 -1.0900
 9020SOL    HW227745   4.919   1.605   2.073 -1.4451  0.5370  1.0213
 9021SOL     OW27746   2.342   1.104   5.011  0.2879  0.1613  1.1724
 9021SOL    HW127747   2.360   1.183   5.062  1.1005 -1.0756  2.8976
 9021SOL    HW227748   2.248   1.109   4.992  0.7125  2.6313 -0.7695
 9022SOL     OW27749   6.216   3.020   1.477  0.1338 -0.3552  0.2299
 9022SOL    HW127750   6.305   3.004   1.447 -0.3657  0.3619 -1.8302
 9022SOL    HW227751   6.224   3.033   1.571  2.3424  0.6108 -0.0383
 9023SOL     OW27752   1.649   0.983   2.325  0.3238 -0.3141 -0.3945
 9023SOL    HW127753   1.608   1.069   2.336  1.4661  0.5377 -2.3117
 9023SOL    HW227754   1.598   0.941   2.256  1.0327 -0.3248 -0.9175
 9024SOL     OW27755   6.463   5.486   2.570  0.0039 -0.2422  0.0694
 9024SOL    HW127756   6.534   5.528   2.521  1.4405 -2.2300  0.3589
 9024SOL    HW227757   6.496   5.399   2.590 -2.3490 -1.0595  0.6539
 9025SOL     OW27758   0.567   1.246   4.941  0.0291  0.6679  0.2235
 9025SOL    HW127759   0.570   1.158   4.980 -0.4142  0.1280 -0.9195
 9025SOL    HW227760   0.641   1.292   4.981  0.4553 -0.3169  0.6121
 9026SOL     OW27761   5.941   5.585   6.519 -0.5687 -0.0437  0.0969
 9026SOL    HW127762   5.959   5.652   6.584 -1.6528 -0.9217  1.3420
 9026SOL    HW227763   5.868   5.620   6.468  0.4149  0.7350 -0.8356
 9027SOL     OW27764   2.657   6.080   1.899  0.4547  0.0343 -0.6749
 9027SOL    HW127765   2.686   6.164   1.862 -3.0584  0.7512 -2.1510
 9027SOL    HW227766   2.619   6.033   1.825 -0.4560 -1.5482  0.7254
 9028SOL     OW27767   2.482   1.864   1.691 -0.4604  0.8354 -0.0351
 9028SOL    HW127768   2.570   1.881   1.656  0.2679 -0.2108  1.1987
 9028SOL    HW227769   2.496   1.804   1.764 -2.2028  0.7605  0.2900
 9029SOL     OW27770   0.286   3.704   4.485 -0.1393  0.0855 -0.1545
 9029SOL    HW127771   0.198   3.667   4.493  0.0279 -0.5066 -0.8859
 9029SOL    HW227772   0.274   3.784   4.433 -0.1411 -0.4536 -0.9963
 9030SOL     OW27773   4.490   2.292   4.830 -0.0152 -0.0587  0.4783
 9030SOL    HW127774   4.566   2.297   4.888 -0.9876  0.0842  1.7931
 9030SOL    HW227775   4.468   2.383   4.812  0.3309 -0.1021 -0.2198
 9031SOL     OW27776   3.892   2.470   1.619 -0.1769 -0.1994 -0.6973
 9031SOL    HW127777   3.908   2.467   1.525 -0.1868 -0.8129 -0.6839
 9031SOL    HW227778   3.809   2.423   1.631  0.3201 -0.9905 -0.2828
 9032SOL     OW27779   1.648   4.501   4.415  0.6751 -0.3138 -0.3958
 9032SOL    HW127780   1.656   4.508   4.320  0.6934 -0.7047 -0.4247
 9032SOL    HW227781   1.704   4.570   4.449  0.2197  0.2013 -0.6751
 9033SOL     OW27782   6.192   0.388   0.643 -0.0652 -0.2122 -0.3553
 9033SOL    HW127783   6.169   0.474   0.680  0.3481 -0.5853  0.8026
 9033SOL    HW227784   6.143   0.326   0.696 -1.0763 -0.6704 -1.7675
 9034SOL     OW27785   2.829   4.887   6.798  0.5347 -0.6917 -0.2685
 9034SOL    HW127786   2.745   4.925   6.773  0.0112 -1.8723 -0.4004
 9034SOL    HW227787   2.820   4.869   6.892  1.1206  0.3305 -0.0020
 9035SOL     OW27788   3.515   5.955   1.536  0.3802 -0.0287  0.5030
 9035SOL    HW127789   3.439   6.012   1.538  0.1748 -0.3101  0.7966
 9035SOL    HW227790   3.579   5.999   1.592  0.3691  0.1137  0.4050
 9036SOL     OW27791   1.454   0.672   1.208  0.5979  0.4482 -0.3511
 9036SOL    HW127792   1.541   0.706   1.186  0.5379  1.5554  0.9750
 9036SOL    HW227793   1.455   0.663   1.304 -1.1399  1.6566 -0.1821
 9037SOL     OW27794   5.549   3.142   3.960 -0.1836  0.3183 -0.6560
 9037SOL    HW127795   5.570   3.049   3.956 -0.9964  0.0976 -0.0970
 9037SOL    HW227796   5.512   3.162   3.874  1.2143  0.4607 -1.2614
 9038SOL     OW27797   6.867   6.193   1.562 -0.2299  0.5219  0.0675
 9038SOL    HW127798   6.781   6.219   1.596 -0.3507  0.7355 -0.3907
 9038SOL    HW227799   6.929   6.250   1.606 -0.4638  1.4049 -0.7178
 9039SOL     OW27800   5.554   3.899   0.833 -0.2414 -0.0988 -0.1167
 9039SOL    HW127801   5.533   3.968   0.896 -1.4994 -0.3514 -0.2447
 9039SOL    HW227802   5.479   3.840   0.836  1.3244 -2.1517  0.8891
 9040SOL     OW27803   3.039   1.821   6.408 -0.5279  0.6034  0.0079
 9040SOL    HW127804   3.040   1.902   6.357  1.9190  1.1821  0.8537
 9040SOL    HW227805   3.038   1.850   6.499 -0.2987 -0.3239  0.3124
 9041SOL     OW27806   0.576   4.576   6.107 -0.4901  0.5056 -0.5275
 9041SOL    HW127807   0.669   4.591   6.092 -0.6566  1.9797 -0.1704
 9041SOL    HW227808   0.573   4.525   6.188 -0.0505  2.1267  0.5463
 9042SOL     OW27809   6.749   1.898   3.607 -0.1237  0.2029 -0.0553
 9042SOL    HW127810   6.700   1.857   3.535  0.4127 -0.1015 -0.2464
 9042SOL    HW227811   6.686   1.902   3.678 -0.1382 -1.1521  0.0406
 9043SOL     OW27812   4.645   5.466   1.417 -0.0724  0.5439  0.4316
 9043SOL    HW127813   4.637   5.520   1.338 -1.2412  1.6694  1.2692
 9043SOL    HW227814   4.560   5.423   1.424 -0.1289  0.7683  1.2730
 9044SOL     OW27815   5.258   5.957   1.628  0.2373 -0.4342  0.3055
 9044SOL    HW127816   5.238   5.926   1.540 -1.0225  0.9992  0.0421
 9044SOL    HW227817   5.204   5.902   1.685  0.2675 -0.6853  0.0943
 9045SOL     OW27818   2.817   4.742   6.045 -0.1392  0.7119  0.2497
 9045SOL    HW127819   2.747   4.807   6.042 -0.0771  0.7362 -1.2311
 9045SOL    HW227820   2.898   4.793   6.038 -0.0231  0.5807  0.6001
 9046SOL     OW27821   6.172   0.747   3.598  0.2979 -0.1811  0.6151
 9046SOL    HW127822   6.085   0.736   3.635  1.3493 -1.7552  2.8656
 9046SOL    HW227823   6.187   0.667   3.546 -0.6405  1.4071 -2.3362
 9047SOL     OW27824   1.986   2.937   0.619  0.0177 -0.0632 -0.4861
 9047SOL    HW127825   1.950   2.905   0.702  0.2828 -0.6092 -0.5787
 9047SOL    HW227826   1.924   3.005   0.590  0.4301  0.8364  0.6452
 9048SOL     OW27827   3.880   5.809   0.314 -0.6487 -0.2935  0.8517
 9048SOL    HW127828   3.834   5.832   0.233  0.3492 -2.2685 -0.3495
 9048SOL    HW227829   3.811   5.775   0.371 -1.0652 -0.9366 -0.0069
 9049SOL     OW27830   6.404   1.274   6.112 -0.2741 -0.0357 -0.1510
 9049SOL    HW127831   6.429   1.346   6.169  0.4483 -0.7798  0.5060
 9049SOL    HW227832   6.394   1.313   6.026 -1.5582  1.1450  0.5020
 9050SOL     OW27833   3.216   4.382   5.687  0.0533  0.8895 -0.1840
 9050SOL    HW127834   3.179   4.437   5.755 -0.2174  0.5159 -0.0231
 9050SOL    HW227835   3.283   4.436   5.645  1.7758  0.4374  1.7854
 9051SOL     OW27836   3.516   2.536   2.563  0.7219 -0.4484 -0.4253
 9051SOL    HW127837   3.467   2.454   2.568 -0.8959  0.4445 -0.9619
 9051SOL    HW227838   3.509   2.563   2.472 -1.1714  1.6538  0.2692
 9052SOL     OW27839   5.489   2.290   5.558 -0.4268  0.0646 -0.5346
 9052SOL    HW127840   5.414   2.321   5.506 -1.4368  0.8617  1.3167
 9052SOL    HW227841   5.553   2.360   5.554 -0.1813 -0.1916 -1.2863
 9053SOL     OW27842   4.359   4.663   0.289  0.2993  0.3503 -0.2984
 9053SOL    HW127843   4.352   4.751   0.327  0.8530  0.8043 -1.2074
 9053SOL    HW227844   4.453   4.645   0.287  0.2695  0.2536 -1.2350
 9054SOL     OW27845   5.753   5.832   3.568 -0.0812  0.3180  0.3307
 9054SOL    HW127846   5.837   5.878   3.576  0.1366  0.0557 -0.4275
 9054SOL    HW227847   5.773   5.753   3.518 -0.1480 -1.4135  2.8228
 9055SOL     OW27848   6.683   1.594   3.008  0.4362 -0.2281 -0.3652
 9055SOL    HW127849   6.602   1.620   3.051  0.3833 -1.1146  0.0987
 9055SOL    HW227850   6.752   1.638   3.057  0.3231 -0.5698  0.1021
 9056SOL     OW27851   6.507   0.779   4.446 -0.1356  0.0344  0.3477
 9056SOL    HW127852   6.474   0.840   4.512  2.1025  0.5519  1.0738
 9056SOL    HW227853   6.433   0.720   4.429 -1.2365  0.7662  2.2449
 9057SOL     OW27854   4.623   0.122   1.478  0.5050  0.0749 -0.3386
 9057SOL    HW127855   4.572   0.203   1.486  2.3669  1.1972  0.8169
 9057SOL    HW227856   4.675   0.118   1.558  0.2194 -2.5051 -0.1821
 9058SOL     OW27857   2.187   3.173   5.678  0.0989 -0.4901 -0.2998
 9058SOL    HW127858   2.254   3.120   5.721 -0.1665 -0.1981  0.4909
 9058SOL    HW227859   2.112   3.169   5.737 -0.5796 -0.7918 -1.1682
 9059SOL     OW27860   5.480   2.438   4.756  0.0167 -0.4187 -0.4214
 9059SOL    HW127861   5.534   2.360   4.765  1.8044  0.8385  0.2672
 9059SOL    HW227862   5.523   2.489   4.686 -0.4841  0.4345 -0.1227
 9060SOL     OW27863   3.484   3.195   4.411  0.4599  0.0667 -0.2474
 9060SOL    HW127864   3.534   3.124   4.373 -0.7112 -0.8565 -0.1312
 9060SOL    HW227865   3.507   3.272   4.360  0.0286 -0.8540 -1.8899
 9061SOL     OW27866   0.221   2.124   5.369  0.0458  0.0006  0.6045
 9061SOL    HW127867   0.187   2.212   5.386  0.8091  0.3876  0.1773
 9061SOL    HW227868   0.302   2.138   5.322 -0.1184 -0.9621  0.0053
 9062SOL     OW27869   4.309   5.574   4.319 -0.0031 -0.3251 -0.8708
 9062SOL    HW127870   4.221   5.592   4.286  0.2620  2.1462 -0.4518
 9062SOL    HW227871   4.367   5.604   4.249  0.5075 -1.1275 -0.7934
 9063SOL     OW27872   3.223   1.409   6.709  0.5690 -0.5160 -1.1940
 9063SOL    HW127873   3.138   1.388   6.749  0.4956 -1.6575 -1.9056
 9063SOL    HW227874   3.209   1.494   6.667  0.5088  0.4869  0.7328
 9064SOL     OW27875   1.950   2.886   0.944 -0.2735 -0.0990 -0.5103
 9064SOL    HW127876   1.958   2.886   1.039 -0.3552 -1.4140 -0.4787
 9064SOL    HW227877   1.859   2.912   0.927  0.4876  3.0038 -0.3906
 9065SOL     OW27878   5.475   4.310   2.850  0.5767  0.1968 -0.1350
 9065SOL    HW127879   5.440   4.238   2.797 -0.3445 -0.3609  1.1934
 9065SOL    HW227880   5.495   4.378   2.786  2.8652 -1.7104 -1.6107
 9066SOL     OW27881   0.466   5.764   0.866 -0.3452 -0.0833 -0.3427
 9066SOL    HW127882   0.416   5.801   0.793  0.3574 -1.0018 -1.3312
 9066SOL    HW227883   0.400   5.724   0.923 -0.9293  0.8970 -0.3118
 9067SOL     OW27884   6.043   4.597   1.359  0.4660  0.3934 -0.6276
 9067SOL    HW127885   5.948   4.605   1.365  0.4726 -0.5699  1.7116
 9067SOL    HW227886   6.057   4.508   1.325  0.4954 -0.2667  1.0264
 9068SOL     OW27887   6.525   2.252   0.331 -0.3125  0.2360 -0.2467
 9068SOL    HW127888   6.510   2.339   0.292 -0.4728  0.4024  0.1731
 9068SOL    HW227889   6.600   2.265   0.388 -0.4337  0.1388 -0.0636
 9069SOL     OW27890   3.492   6.055   5.766 -0.4495 -0.3476 -0.2796
 9069SOL    HW127891   3.475   6.149   5.777  1.1094  0.0012 -0.5884
 9069SOL    HW227892   3.480   6.018   5.853 -0.0789  0.3245  0.0649
 9070SOL     OW27893   0.301   0.300   2.544  0.2621  0.3623  0.0883
 9070SOL    HW127894   0.243   0.226   2.532  0.7069 -0.3835  2.1127
 9070SOL    HW227895   0.387   0.261   2.559  0.4075  1.2069  1.7562
 9071SOL     OW27896   5.470   2.831   6.248  0.3019 -0.4434 -0.5697
 9071SOL    HW127897   5.423   2.748   6.237  0.1108 -0.9685  2.8602
 9071SOL    HW227898   5.404   2.898   6.230 -0.3061 -1.1005 -0.8491
 9072SOL     OW27899   2.658   6.301   0.544 -0.0718 -0.2342  0.0985
 9072SOL    HW127900   2.657   6.337   0.456  0.0670  0.6394  0.4425
 9072SOL    HW227901   2.639   6.208   0.533  3.3549 -0.9232 -1.1880
 9073SOL     OW27902   2.610   3.931   2.931 -0.4274 -0.7732  0.0018
 9073SOL    HW127903   2.597   3.913   2.837  0.6497  0.4910 -0.4143
 9073SOL    HW227904   2.699   3.901   2.948 -0.2654 -0.0688  0.3876
 9074SOL     OW27905   0.167   6.153   0.970 -0.3850  0.0264 -0.4814
 9074SOL    HW127906   0.252   6.177   0.934  1.3335 -1.0001  2.4840
 9074SOL    HW227907   0.153   6.062   0.943  0.1424 -0.2305  0.0760
 9075SOL     OW27908   5.012   4.853   2.330 -0.3371 -0.4845 -0.3316
 9075SOL    HW127909   5.074   4.787   2.361  1.0974  0.7284 -0.5307
 9075SOL    HW227910   5.014   4.921   2.396 -1.7990 -0.5919 -0.1378
 9076SOL     OW27911   0.230   0.264   1.212  0.6171 -0.2486  0.2055
 9076SOL    HW127912   0.202   0.185   1.258  0.0336 -1.0933 -1.5293
 9076SOL    HW227913   0.306   0.295   1.261  0.9425 -1.9588  0.8257
 9077SOL     OW27914   3.196   6.702   2.266  0.4328 -0.4607 -0.7897
 9077SOL    HW127915   3.282   6.736   2.243  1.4981 -2.0610  0.5745
 9077SOL    HW227916   3.189   6.717   2.360 -0.8128 -0.3299 -0.8917
 9078SOL     OW27917   3.016   4.279   3.388 -1.1378 -0.4574 -0.1705
 9078SOL    HW127918   3.071   4.207   3.358  0.3896  0.8568 -0.7256
 9078SOL    HW227919   3.061   4.313   3.466 -2.0893 -0.4023  0.3671
 9079SOL     OW27920   0.687   4.224   6.130 -0.1793 -0.3889  0.1493
 9079SOL    HW127921   0.652   4.135   6.135  0.2058 -0.5004  1.0546
 9079SOL    HW227922   0.642   4.272   6.200  0.0694 -0.0350  0.0718
 9080SOL     OW27923   6.092   0.612   6.270 -0.4535 -0.2544 -0.2442
 9080SOL    HW127924   6.039   0.692   6.268 -1.2953 -0.7717  0.6128
 9080SOL    HW227925   6.039   0.546   6.226  0.5439 -0.1967 -1.6029
 9081SOL     OW27926   4.844   1.231   0.470  0.4763  0.2092 -0.1641
 9081SOL    HW127927   4.809   1.205   0.385 -0.8066 -1.7563  0.8827
 9081SOL    HW227928   4.769   1.266   0.518  1.0151  0.5656  0.4360
 9082SOL     OW27929   2.571   4.239   3.326 -0.3144 -0.1946 -0.4002
 9082SOL    HW127930   2.639   4.275   3.383  0.8003 -0.5156 -1.4886
 9082SOL    HW227931   2.560   4.149   3.356 -0.4897 -0.0526 -0.0283
 9083SOL     OW27932   4.937   3.069   3.461  0.0672 -0.5727  0.3850
 9083SOL    HW127933   4.863   3.039   3.409  0.8563 -1.1454 -0.4390
 9083SOL    HW227934   5.013   3.025   3.422  0.7895 -0.3073  1.4572
 9084SOL     OW27935   1.387   6.884   0.622 -0.2756  0.2126  0.5752
 9084SOL    HW127936   1.311   6.889   0.681 -0.0012 -0.2987  0.9783
 9084SOL    HW227937   1.425   6.972   0.625 -0.0364  0.0870  1.4784
 9085SOL     OW27938   6.437   5.258   4.116 -0.4517  0.1731 -0.6201
 9085SOL    HW127939   6.403   5.229   4.200  1.5416 -0.7809 -0.0676
 9085SOL    HW227940   6.531   5.241   4.121 -0.3509 -0.6685 -3.3173
 9086SOL     OW27941   0.688   0.554   2.115 -0.4019  0.4914 -0.1004
 9086SOL    HW127942   0.609   0.596   2.149 -0.7024 -0.2769  0.1718
 9086SOL    HW227943   0.662   0.463   2.099  0.8805 -0.2669  1.7472
 9087SOL     OW27944   1.266   1.740   3.689  0.2663  0.3877  0.8232
 9087SOL    HW127945   1.227   1.827   3.693  1.3111  0.8597  0.9695
 9087SOL    HW227946   1.334   1.746   3.623  0.6703 -0.1841  1.1699
 9088SOL     OW27947   4.758   0.374   1.807  0.1397 -0.1031 -0.2875
 9088SOL    HW127948   4.827   0.358   1.742  0.3730 -0.8282  0.1209
 9088SOL    HW227949   4.742   0.468   1.803  2.1290  0.3218  0.5839
 9089SOL     OW27950   0.238   4.409   4.097 -0.2909 -0.3803 -0.0461
 9089SOL    HW127951   0.152   4.369   4.112 -0.6607 -0.1241 -1.3742
 9089SOL    HW227952   0.299   4.336   4.096 -0.3345 -0.4953  1.7847
 9090SOL     OW27953   2.489   2.628   0.935  0.2019 -0.5861 -0.2695
 9090SOL    HW127954   2.406   2.673   0.917 -1.1899 -2.4000  1.2840
 9090SOL    HW227955   2.491   2.556   0.872 -0.2540 -1.5251  0.7524
 9091SOL     OW27956   5.854   1.779   5.472  0.3958 -0.3582  0.0081
 9091SOL    HW127957   5.855   1.683   5.467  0.4699 -0.3060 -1.9576
 9091SOL    HW227958   5.835   1.798   5.564 -2.0970 -2.2857  0.0191
 9092SOL     OW27959   2.892   5.942   3.659  0.0700  0.7687 -0.1904
 9092SOL    HW127960   2.819   5.936   3.598 -0.0423  2.3296 -0.2561
 9092SOL    HW227961   2.931   6.028   3.642  1.1016  0.5240  0.7548
 9093SOL     OW27962   0.518   6.506   3.220  0.0929  0.2389  0.1267
 9093SOL    HW127963   0.543   6.417   3.198 -0.5162 -0.5870  2.4705
 9093SOL    HW227964   0.600   6.549   3.247  0.0286 -0.4661  1.5359
 9094SOL     OW27965   0.365   6.427   1.887 -0.1441 -0.0125  0.0520
 9094SOL    HW127966   0.383   6.350   1.941  0.7016 -1.3241 -1.9824
 9094SOL    HW227967   0.372   6.501   1.947 -0.0524 -1.4436  1.8799
 9095SOL     OW27968   2.522   2.326   3.415 -0.0206 -0.0887 -0.7686
 9095SOL    HW127969   2.590   2.376   3.460  0.3495  0.2667 -1.7066
 9095SOL    HW227970   2.454   2.315   3.481  1.0490 -0.6992  0.2903
 9096SOL     OW27971   3.441   6.712   6.860 -0.5331  0.2326  0.0204
 9096SOL    HW127972   3.420   6.791   6.810 -0.5208  0.1159 -0.1682
 9096SOL    HW227973   3.536   6.719   6.876 -0.4443  0.0158 -0.4111
 9097SOL     OW27974   2.186   0.535   5.954 -0.0251 -0.2719  0.3667
 9097SOL    HW127975   2.171   0.567   6.043 -2.1711  0.9648 -0.3693
 9097SOL    HW227976   2.260   0.475   5.962 -0.1185 -0.1365  2.9608
 9098SOL     OW27977   0.559   6.788   2.145 -0.0260  0.2591  0.6138
 9098SOL    HW127978   0.479   6.746   2.113  0.5259 -0.0441 -0.3946
 9098SOL    HW227979   0.624   6.772   2.077  0.5870  1.5309  0.8704
 9099SOL     OW27980   1.258   5.302   5.149  0.4212  0.4918 -0.2369
 9099SOL    HW127981   1.207   5.221   5.141  0.6692  0.3742 -0.7054
 9099SOL    HW227982   1.268   5.332   5.058  0.4081  1.0015 -0.0741
 9100SOL     OW27983   2.918   5.816   1.066  0.2021  0.5362 -0.2920
 9100SOL    HW127984   3.001   5.838   1.024 -0.4386  0.5794 -1.5610
 9100SOL    HW227985   2.852   5.868   1.021 -0.8885 -1.4561 -1.1480
 9101SOL     OW27986   5.448   4.199   5.329  0.7601  0.2123  0.1552
 9101SOL    HW127987   5.438   4.259   5.256 -0.8757 -0.5444 -0.2873
 9101SOL    HW227988   5.471   4.115   5.289 -0.7624 -0.3621  0.3984
 9102SOL     OW27989   3.756   2.380   5.344 -0.7280 -0.4670 -0.0958
 9102SOL    HW127990   3.684   2.327   5.308 -0.1441 -1.2012 -0.2065
 9102SOL    HW227991   3.766   2.451   5.281 -1.0476 -0.6238 -0.3323
 9103SOL     OW27992   4.303   2.043   4.466 -0.2813  0.3985  0.1437
 9103SOL    HW127993   4.380   2.063   4.520  0.2311 -0.8075 -0.1076
 9103SOL    HW227994   4.281   1.953   4.489 -0.6532  0.1988 -0.9535
 9104SOL     OW27995   3.893   5.566   3.755  0.5037 -0.2047  0.2743
 9104SOL    HW127996   3.899   5.626   3.681  1.9120 -0.2196  0.3599
 9104SOL    HW227997   3.875   5.623   3.830  2.2920  0.2183  0.4360
 9105SOL     OW27998   0.361   0.361   4.500  0.2235 -0.0652  0.7383
 9105SOL    HW127999   0.375   0.274   4.462  1.4317 -0.3426  1.7386
 9105SOL    HW228000   0.417   0.362   4.578 -0.1553  1.4404  1.0212
 9106SOL     OW28001   3.351   5.784   5.851 -0.5345 -0.3124 -0.3633
 9106SOL    HW128002   3.445   5.770   5.841 -0.5492 -3.1305  2.0595
 9106SOL    HW228003   3.342   5.826   5.937 -1.4313  2.3819 -1.6837
 9107SOL     OW28004   1.703   5.153   2.080 -0.1757 -0.6776 -0.1941
 9107SOL    HW128005   1.610   5.143   2.101 -0.5362  0.7917 -0.9543
 9107SOL    HW228006   1.704   5.186   1.990  0.9524  1.5000  0.5321
 9108SOL     OW28007   3.473   3.600   2.055 -0.2336 -0.2806 -0.5390
 9108SOL    HW128008   3.412   3.602   1.981 -0.5524  2.0926 -0.2894
 9108SOL    HW228009   3.508   3.511   2.055 -1.8933 -0.9938 -2.1646
 9109SOL     OW28010   0.347   6.731   1.022 -0.2632 -0.5089 -0.2501
 9109SOL    HW128011   0.348   6.637   1.040  0.0162 -0.8149 -1.6829
 9109SOL    HW228012   0.424   6.746   0.968 -0.1875  0.5956  0.1336
 9110SOL     OW28013   5.185   4.783   6.821 -0.6297  0.6757 -0.0674
 9110SOL    HW128014   5.109   4.768   6.764 -1.1219  0.1095  0.7150
 9110SOL    HW228015   5.197   4.700   6.866 -0.9453  1.4227  1.4714
 9111SOL     OW28016   1.529   4.950   2.982  0.0359  0.1142  0.1570
 9111SOL    HW128017   1.525   4.911   3.069  0.7616  0.9108  0.5602
 9111SOL    HW228018   1.594   4.898   2.935  1.0876  0.8788  0.7313
 9112SOL     OW28019   2.389   3.548   4.413  0.1150  0.1735 -0.2285
 9112SOL    HW128020   2.438   3.612   4.465 -0.5738  1.4377 -1.0988
 9112SOL    HW228021   2.297   3.573   4.424 -0.1682 -0.6430 -0.6286
 9113SOL     OW28022   1.929   0.349   3.398  0.1167 -0.1565  0.1277
 9113SOL    HW128023   1.971   0.430   3.428 -2.5251  0.9916  1.0593
 9113SOL    HW228024   1.987   0.279   3.429  2.3436  1.3159 -0.4827
 9114SOL     OW28025   1.645   4.370   0.221  0.4490  0.1262 -0.5293
 9114SOL    HW128026   1.612   4.450   0.262  1.4139  0.4052 -0.2668
 9114SOL    HW228027   1.581   4.350   0.153  0.8371  1.8548 -1.4601
 9115SOL     OW28028   2.555   2.315   1.403  0.3252  0.1003 -0.1955
 9115SOL    HW128029   2.509   2.371   1.340 -1.1880  0.0214  0.7762
 9115SOL    HW228030   2.491   2.301   1.473  2.0144  0.3456  1.4681
 9116SOL     OW28031   0.659   5.330   1.501 -0.0324  0.1229 -0.1173
 9116SOL    HW128032   0.733   5.386   1.475 -0.1636  0.2050 -0.3110
 9116SOL    HW228033   0.583   5.371   1.462  0.1184 -1.3786 -2.1349
 9117SOL     OW28034   6.494   4.323   0.171  0.3077 -0.5190  0.0877
 9117SOL    HW128035   6.415   4.302   0.120 -0.0101 -1.0951  0.7970
 9117SOL    HW228036   6.550   4.246   0.159  0.4167 -0.4606  0.2355
 9118SOL     OW28037   0.086   0.705   2.556  0.0383 -0.2517 -0.0258
 9118SOL    HW128038   0.075   0.666   2.643  0.5908 -0.0773  0.1242
 9118SOL    HW228039  -0.004   0.717   2.524 -0.1897  0.2694  0.7780
 9119SOL     OW28040   2.926   5.512   4.535  0.1915  0.1782  0.1928
 9119SOL    HW128041   2.992   5.445   4.554 -1.2642 -1.3350  0.0512
 9119SOL    HW228042   2.924   5.565   4.615  0.6696 -0.5292  0.6924
 9120SOL     OW28043   3.416   5.970   3.432  0.2945  0.0314 -0.1061
 9120SOL    HW128044   3.399   6.005   3.520 -1.0432 -1.3390  0.2305
 9120SOL    HW228045   3.329   5.950   3.398  0.9198 -1.7100 -0.7633
 9121SOL     OW28046   4.690   6.041   0.467  0.7832 -0.4857 -0.0496
 9121SOL    HW128047   4.709   6.134   0.475  1.3014 -0.3902 -1.9551
 9121SOL    HW228048   4.776   5.998   0.474  0.7241 -0.6924 -0.5056
 9122SOL     OW28049   3.614   6.390   5.315 -0.2368  0.2966  0.0088
 9122SOL    HW128050   3.557   6.381   5.238  0.7679  1.6034 -0.9333
 9122SOL    HW228051   3.591   6.316   5.370 -2.8993  0.7646 -0.2954
 9123SOL     OW28052   3.651   6.068   4.611 -0.2631 -0.1008  0.4484
 9123SOL    HW128053   3.673   6.056   4.703 -1.2472 -1.2550  0.5539
 9123SOL    HW228054   3.567   6.023   4.600 -0.9359  1.3600 -0.6666
 9124SOL     OW28055   0.833   1.851   4.060  0.4292 -0.3616  0.3044
 9124SOL    HW128056   0.844   1.911   4.133 -2.0284  0.3006  0.2358
 9124SOL    HW228057   0.809   1.768   4.101  1.4375 -0.6545  0.3148
 9125SOL     OW28058   1.251   4.417   4.257  0.5127 -1.0104  0.0251
 9125SOL    HW128059   1.334   4.449   4.294  0.6427  0.8862 -1.7061
 9125SOL    HW228060   1.189   4.488   4.273  0.3947 -0.4380 -2.5869
 9126SOL     OW28061   2.221   3.328   2.865  0.3733  0.2014 -0.6219
 9126SOL    HW128062   2.178   3.335   2.950 -0.5282 -2.2489 -0.8222
 9126SOL    HW228063   2.154   3.354   2.802  0.3944  0.0679 -0.6997
 9127SOL     OW28064   3.727   4.112   6.284  0.4483 -0.2112 -0.1312
 9127SOL    HW128065   3.779   4.032   6.277  2.1954  0.9532 -1.3341
 9127SOL    HW228066   3.704   4.135   6.194 -0.2179  0.5243  0.2073
 9128SOL     OW28067   2.543   0.035   2.647  0.6197  0.1179 -0.5683
 9128SOL    HW128068   2.563   0.094   2.574  0.2071 -0.5109 -1.1967
 9128SOL    HW228069   2.504  -0.042   2.606 -1.3667  0.5092  0.4642
 9129SOL     OW28070   1.758   1.187   2.135  0.7498 -0.3628  0.3726
 9129SOL    HW128071   1.692   1.252   2.161  1.0901 -0.5493  1.7324
 9129SOL    HW228072   1.707   1.113   2.102  0.3213 -0.0240  0.2582
 9130SOL     OW28073   0.665   1.016   1.293 -0.3613  0.6738 -0.3275
 9130SOL    HW128074   0.720   0.969   1.231  0.0582  0.5128  0.1645
 9130SOL    HW228075   0.722   1.084   1.330 -0.1975 -0.0852  0.8738
 9131SOL     OW28076   2.700   4.464   0.612 -0.4627 -0.1279  0.5852
 9131SOL    HW128077   2.682   4.465   0.706 -1.8663 -1.0540  0.3639
 9131SOL    HW228078   2.782   4.416   0.604 -2.1529 -3.4777  1.1860
 9132SOL     OW28079   1.456   3.197   3.004 -0.1009 -0.2125  0.0223
 9132SOL    HW128080   1.390   3.255   3.042  0.5211  0.5302 -0.0183
 9132SOL    HW228081   1.408   3.115   2.987 -0.5767 -0.3325  1.7151
 9133SOL     OW28082   6.006   5.635   4.600  0.1465  0.6194 -0.2401
 9133SOL    HW128083   6.087   5.590   4.623  0.4497  0.6998 -1.1252
 9133SOL    HW228084   5.939   5.567   4.607  0.5369  0.1164 -1.1373
 9134SOL     OW28085   1.407   5.375   2.608  0.3398 -0.0448  0.6258
 9134SOL    HW128086   1.366   5.289   2.621 -1.5659  1.1129  3.0576
 9134SOL    HW228087   1.337   5.430   2.573  1.4659  0.6265 -0.6554
 9135SOL     OW28088   1.895   1.277   3.270 -1.0461 -0.0651  0.2221
 9135SOL    HW128089   1.842   1.345   3.228  0.8705  1.9539  0.8657
 9135SOL    HW228090   1.908   1.309   3.360  0.4777 -0.9382  0.3475
 9136SOL     OW28091   5.744   2.764   0.262 -0.1061 -0.6497 -0.7251
 9136SOL    HW128092   5.655   2.800   0.269  0.2281 -0.0697  1.1526
 9136SOL    HW228093   5.752   2.738   0.170 -0.7615  3.0960 -2.0145
 9137SOL     OW28094   2.004   2.655   4.568 -1.0870 -0.4265 -0.2869
 9137SOL    HW128095   2.002   2.663   4.664 -0.3378  0.8985 -0.3605
 9137SOL    HW228096   1.912   2.645   4.544 -1.3990  0.2831  0.5140
 9138SOL     OW28097   2.257   2.779   0.920 -0.4540  0.0643 -0.2294
 9138SOL    HW128098   2.208   2.805   0.998  0.2685  2.1205 -0.3918
 9138SOL    HW228099   2.226   2.838   0.851 -0.2330 -0.9289 -1.2170
 9139SOL     OW28100   5.732   5.484   3.701  0.2647  0.0435 -0.3698
 9139SOL    HW128101   5.725   5.542   3.777 -2.4219 -0.4338 -0.1699
 9139SOL    HW228102   5.780   5.536   3.636  0.0884  1.5521  0.6535
 9140SOL     OW28103   0.770   3.730   3.444 -0.4645  0.3665  0.2132
 9140SOL    HW128104   0.784   3.824   3.457 -0.1046  0.5844 -1.5738
 9140SOL    HW228105   0.838   3.688   3.498 -0.1115  1.1539  0.3911
 9141SOL     OW28106   6.684   1.976   0.817 -0.1666 -0.0584 -0.3562
 9141SOL    HW128107   6.718   2.043   0.758  2.0959 -1.4198 -0.7416
 9141SOL    HW228108   6.593   1.963   0.790  0.3359  0.4701 -2.4786
 9142SOL     OW28109   3.874   0.589   5.139  0.5694 -0.3542 -0.1506
 9142SOL    HW128110   3.947   0.635   5.181  1.0865 -2.9092  1.9724
 9142SOL    HW228111   3.914   0.538   5.069  0.7045 -1.1286  0.4881
 9143SOL     OW28112   5.350   5.929   3.116  0.5168  0.0885 -0.5506
 9143SOL    HW128113   5.357   5.892   3.027  0.6216 -2.0684  0.2863
 9143SOL    HW228114   5.401   5.869   3.170 -0.8508  0.4434  1.2228
 9144SOL     OW28115   2.965   2.056   1.473  0.2867  0.6876 -0.0581
 9144SOL    HW128116   2.877   2.081   1.447  0.5063  0.4316 -1.1143
 9144SOL    HW228117   3.022   2.118   1.428  0.6230  1.7868  1.7700
 9145SOL     OW28118   1.457   2.661   5.100 -0.2938 -0.8738  0.5807
 9145SOL    HW128119   1.494   2.713   5.172 -1.0113  0.0271  0.3205
 9145SOL    HW228120   1.436   2.725   5.032 -0.7562 -1.5629  0.0563
 9146SOL     OW28121   1.365   6.563   4.700 -0.2130 -0.0047  0.9925
 9146SOL    HW128122   1.371   6.642   4.754  1.8295 -0.6310  1.7634
 9146SOL    HW228123   1.412   6.496   4.749 -1.9988 -1.7995  0.4179
 9147SOL     OW28124   1.335   0.591   5.587 -0.1139  0.4795  0.5844
 9147SOL    HW128125   1.315   0.664   5.645  1.8268  1.6589 -0.1289
 9147SOL    HW228126   1.365   0.521   5.645 -2.0289  0.1806  1.2790
 9148SOL     OW28127   5.240   2.119   1.124 -0.3709 -0.3275  0.0272
 9148SOL    HW128128   5.302   2.190   1.106 -0.2002 -0.4449  0.1502
 9148SOL    HW228129   5.291   2.039   1.111 -0.6838 -0.4351 -0.5594
 9149SOL     OW28130   6.124   5.570   3.503  0.1292  0.0266 -0.7862
 9149SOL    HW128131   6.159   5.549   3.589 -0.1727 -1.1678 -0.9292
 9149SOL    HW228132   6.180   5.639   3.470  0.0981  0.6724  0.4632
 9150SOL     OW28133   6.696   3.015   6.711  0.2984  0.9671  0.0078
 9150SOL    HW128134   6.781   2.978   6.734 -0.4140 -1.1760 -0.5907
 9150SOL    HW228135   6.635   2.942   6.719 -0.5603  0.6542 -5.4799
 9151SOL     OW28136   4.548   6.024   1.497 -0.3636 -0.6126  0.0790
 9151SOL    HW128137   4.608   6.038   1.424 -0.1567 -0.2198  0.3226
 9151SOL    HW228138   4.505   6.109   1.509  1.1013 -0.0654  1.7609
 9152SOL     OW28139   6.423   2.529   4.294  0.3573 -0.1389 -0.4544
 9152SOL    HW128140   6.332   2.545   4.317  0.7302  0.7711  0.4402
 9152SOL    HW228141   6.427   2.546   4.199 -0.8985 -2.6384 -1.0364
 9153SOL     OW28142   4.479   0.065   1.828  0.3655  0.2726 -0.0875
 9153SOL    HW128143   4.428   0.026   1.899  0.7103  0.5935  0.3435
 9153SOL    HW228144   4.433   0.147   1.809 -0.2302 -0.2192 -0.8408
 9154SOL     OW28145   4.439   3.525   4.591  0.5427 -0.0454 -0.2659
 9154SOL    HW128146   4.435   3.619   4.606  0.5725  0.2361 -1.8380
 9154SOL    HW228147   4.475   3.489   4.672  0.2903  1.2648  0.4474
 9155SOL     OW28148   6.873   3.996   3.535  0.5826  0.0894 -0.5093
 9155SOL    HW128149   6.837   3.955   3.456 -1.0069  0.8125 -0.2046
 9155SOL    HW228150   6.873   4.090   3.516  0.0444  0.2838  0.3911
 9156SOL     OW28151   4.247   2.946   0.964 -0.1320  0.1524  0.1508
 9156SOL    HW128152   4.261   2.924   0.872 -0.1029 -2.6630  0.7521
 9156SOL    HW228153   4.326   2.917   1.009 -0.1513  1.4668  1.0931
 9157SOL     OW28154   6.314   3.144   2.743  0.3634 -0.0312  0.6980
 9157SOL    HW128155   6.299   3.050   2.733  1.8595 -0.3209  0.8995
 9157SOL    HW228156   6.405   3.151   2.772 -0.2324  1.4070  2.4020
 9158SOL     OW28157   1.308   3.525   6.570  0.1291  0.2609 -0.1142
 9158SOL    HW128158   1.285   3.610   6.534  0.4474 -0.3198 -1.7510
 9158SOL    HW228159   1.385   3.497   6.521  0.0747 -0.9327  0.4282
 9159SOL     OW28160   3.107   2.062   0.908 -0.3079  0.2621  0.5751
 9159SOL    HW128161   3.174   2.083   0.843 -0.3438 -0.0051  0.4492
 9159SOL    HW228162   3.027   2.049   0.856 -0.6001  1.1919  0.7767
 9160SOL     OW28163   5.671   1.554   1.336 -0.2871  0.1432 -0.7497
 9160SOL    HW128164   5.670   1.637   1.289  1.2103  0.7823  0.2902
 9160SOL    HW228165   5.633   1.574   1.421  1.8992  0.2821  0.2493
 9161SOL     OW28166   6.576   2.040   1.720  0.1126  0.7748  0.1630
 9161SOL    HW128167   6.522   1.964   1.741 -1.3710  1.1110 -2.1111
 9161SOL    HW228168   6.572   2.094   1.798 -1.2156 -0.1531  0.7827
 9162SOL     OW28169   4.509   1.830   5.839 -0.4477 -0.4103  0.2509
 9162SOL    HW128170   4.565   1.904   5.863 -0.4464  0.2167 -1.5560
 9162SOL    HW228171   4.529   1.762   5.904  0.4843  0.7176  1.1740
 9163SOL     OW28172   3.979   4.615   5.089  0.3148 -0.4998  0.7273
 9163SOL    HW128173   4.036   4.590   5.017 -0.7397  0.5049 -0.4889
 9163SOL    HW228174   4.029   4.592   5.168  1.1999 -2.2655 -0.2885
 9164SOL     OW28175   2.139   6.366   0.971  0.3498 -0.4519 -0.3490
 9164SOL    HW128176   2.234   6.378   0.966  0.1710  0.4915 -2.2345
 9164SOL    HW228177   2.113   6.344   0.881 -1.1872 -0.9673  0.1970
 9165SOL     OW28178   2.662   4.181   2.097 -0.2378 -0.1056 -0.5859
 9165SOL    HW128179   2.630   4.093   2.118  0.8083 -0.6402 -1.1327
 9165SOL    HW228180   2.757   4.172   2.100 -0.1217  0.8776 -1.2075
 9166SOL     OW28181   1.971   1.864   2.385  0.3443  0.5792 -0.3159
 9166SOL    HW128182   2.002   1.929   2.448 -0.3915  1.4866 -0.8679
 9166SOL    HW228183   2.048   1.811   2.366  1.6693  2.8988 -1.8227
 9167SOL     OW28184   4.269   3.129   5.627  0.1192 -0.0919  0.2414
 9167SOL    HW128185   4.191   3.154   5.576  1.4555  2.6729 -0.6436
 9167SOL    HW228186   4.338   3.119   5.562  1.3066  1.0792  1.2594
 9168SOL     OW28187   0.640   5.974   5.781  0.2225  1.0639  0.0347
 9168SOL    HW128188   0.663   6.022   5.701 -1.3787  0.9405 -0.5334
 9168SOL    HW228189   0.723   5.940   5.813  1.0450  2.0415 -0.9759
 9169SOL     OW28190   4.126   1.082   0.552 -0.5050  0.3293  0.7145
 9169SOL    HW128191   4.111   1.050   0.641 -1.2180  0.1843  0.5481
 9169SOL    HW228192   4.080   1.020   0.496 -0.6569  0.8171  0.2912
 9170SOL     OW28193   4.722   3.879   6.213 -0.2575  0.2656 -0.0595
 9170SOL    HW128194   4.647   3.829   6.181 -0.8210  0.0698  1.4770
 9170SOL    HW228195   4.704   3.969   6.186 -0.7600  0.1283 -0.1969
 9171SOL     OW28196   1.626   0.435   0.803  0.0513  0.6037  0.7843
 9171SOL    HW128197   1.575   0.416   0.882  1.2998 -4.7590  0.7175
 9171SOL    HW228198   1.709   0.468   0.835 -0.0689  0.1071  1.6308
 9172SOL     OW28199   1.689   0.513   4.002 -0.8921  0.0112 -0.3468
 9172SOL    HW128200   1.641   0.451   4.057 -0.4048  1.3893  1.7426
 9172SOL    HW228201   1.733   0.572   4.064  1.9145  0.0350 -2.1618
 9173SOL     OW28202   1.474   3.390   4.625  0.0775  0.8879 -0.2429
 9173SOL    HW128203   1.551   3.445   4.613 -0.4304  2.1463  1.7796
 9173SOL    HW228204   1.414   3.443   4.678 -0.8275 -1.2451  1.0376
 9174SOL     OW28205   6.689   0.834   0.273 -0.2784 -0.0115  0.2079
 9174SOL    HW128206   6.611   0.858   0.224 -0.3023  0.0765  0.2880
 9174SOL    HW228207   6.689   0.738   0.274 -0.4960 -0.0101  0.3845
 9175SOL     OW28208   0.514   1.115   3.369  0.1024 -0.6157  0.1156
 9175SOL    HW128209   0.581   1.080   3.310 -1.1874 -1.4397 -0.9290
 9175SOL    HW228210   0.543   1.204   3.388  1.1623 -0.7369 -0.8398
 9176SOL     OW28211   5.641   0.087   6.627 -0.1859 -0.2648 -0.3224
 9176SOL    HW128212   5.573   0.119   6.686 -0.1769 -0.4067 -0.2342
 9176SOL    HW228213   5.682   0.015   6.675 -0.8588 -1.0529 -0.9019
 9177SOL     OW28214   2.099   3.201   5.309 -0.2666  0.2270  0.3418
 9177SOL    HW128215   2.028   3.191   5.245 -1.6518 -0.3295  1.8988
 9177SOL    HW228216   2.073   3.147   5.383  2.6310 -1.3839  0.3325
 9178SOL     OW28217   5.609   3.303   6.814  0.3439 -0.3029  0.4214
 9178SOL    HW128218   5.584   3.222   6.860 -1.7490 -0.7387 -1.2807
 9178SOL    HW228219   5.585   3.373   6.874 -1.0502 -0.8974  0.6119
 9179SOL     OW28220   3.127   6.445   1.499 -0.3034 -0.6627 -0.3360
 9179SOL    HW128221   3.198   6.463   1.561  0.0972  0.7703 -1.1786
 9179SOL    HW228222   3.077   6.526   1.494 -2.0691 -1.6384  0.2452
 9180SOL     OW28223   5.600   4.738   1.025  0.1685  0.5114 -0.5581
 9180SOL    HW128224   5.553   4.802   1.078 -0.8043 -0.4802 -0.1785
 9180SOL    HW228225   5.563   4.654   1.051  2.3517 -0.3697 -0.0449
 9181SOL     OW28226   3.299   3.548   5.375 -0.0707  0.4251  0.2250
 9181SOL    HW128227   3.306   3.459   5.341 -0.5087  1.2030 -2.0977
 9181SOL    HW228228   3.368   3.555   5.441  1.1216 -1.0871 -0.8084
 9182SOL     OW28229   4.596   4.673   2.010 -0.2579 -0.8385  0.3537
 9182SOL    HW128230   4.507   4.686   1.978 -0.8362 -0.3129  2.0795
 9182SOL    HW228231   4.643   4.637   1.935 -2.0591 -1.7150 -0.4134
 9183SOL     OW28232   1.904   0.986   3.484 -0.0511  0.2058  0.2930
 9183SOL    HW128233   1.980   0.930   3.470 -0.3224 -0.0135 -0.3154
 9183SOL    HW228234   1.931   1.046   3.554  0.8753  0.4894 -0.2977
 9184SOL     OW28235   5.232   3.560   2.452 -0.4772 -0.3114 -0.3961
 9184SOL    HW128236   5.320   3.590   2.434 -0.2313 -0.3591  0.6372
 9184SOL    HW228237   5.237   3.464   2.443 -0.1854 -0.3978  0.5252
 9185SOL     OW28238   0.800   6.493   0.656 -0.1576  0.5460 -0.0101
 9185SOL    HW128239   0.817   6.542   0.575 -1.5494 -1.1497 -1.4334
 9185SOL    HW228240   0.866   6.423   0.656 -0.9345 -0.2224 -0.4246
 9186SOL     OW28241   6.532   0.769   6.075  0.0872 -0.2431 -0.1063
 9186SOL    HW128242   6.448   0.791   6.117 -0.1919 -0.9424 -0.2839
 9186SOL    HW228243   6.510   0.702   6.011  0.8339 -0.6667  0.0676
 9187SOL     OW28244   0.250   1.678   0.009  0.6788  0.1234  0.3026
 9187SOL    HW128245   0.180   1.622  -0.025 -0.6135  1.8539 -0.0415
 9187SOL    HW228246   0.329   1.644  -0.033 -0.1498 -0.9616 -0.4642
 9188SOL     OW28247   2.666   5.003   6.428 -0.4018 -0.3753  0.3056
 9188SOL    HW128248   2.620   4.989   6.511 -1.2896 -2.4408 -0.4701
 9188SOL    HW228249   2.741   4.943   6.432 -0.5229 -0.5791 -0.4392
 9189SOL     OW28250   4.868   0.834   4.492  0.8406 -0.1293 -0.3664
 9189SOL    HW128251   4.898   0.754   4.534  0.6658 -0.8301 -1.5334
 9189SOL    HW228252   4.916   0.904   4.537 -1.5627 -0.4676  3.1199
 9190SOL     OW28253   5.599   5.499   1.560 -0.0477 -0.3211  0.6085
 9190SOL    HW128254   5.654   5.460   1.628 -0.8947 -1.9280  0.4013
 9190SOL    HW228255   5.526   5.537   1.607 -0.3178 -0.8883  0.6522
 9191SOL     OW28256   1.582   1.896   3.000  0.1620 -0.3908  0.2488
 9191SOL    HW128257   1.597   1.954   2.926 -0.8834 -0.2906  0.0991
 9191SOL    HW228258   1.666   1.893   3.046  0.8919 -0.6329 -1.0526
 9192SOL     OW28259   4.178   3.387   3.010  0.9001 -0.7538  0.4245
 9192SOL    HW128260   4.123   3.438   3.070  1.9261 -0.2205  0.9382
 9192SOL    HW228261   4.116   3.335   2.959 -0.2357  1.1591 -0.2709
 9193SOL     OW28262   1.746   4.245   4.441 -0.3602  0.4758 -0.5433
 9193SOL    HW128263   1.786   4.277   4.522 -1.0004  0.5594 -0.2494
 9193SOL    HW228264   1.706   4.323   4.402  0.5161  0.5609 -1.2862
 9194SOL     OW28265   0.886   1.438   0.764  0.0665  0.3507 -0.8565
 9194SOL    HW128266   0.878   1.346   0.738 -0.5610  0.6332 -1.6833
 9194SOL    HW228267   0.980   1.458   0.754  0.5992 -0.7674  1.3405
 9195SOL     OW28268   2.259   0.243   6.695 -0.4232  0.0114  0.0047
 9195SOL    HW128269   2.283   0.153   6.718 -0.1246  0.1416  0.2098
 9195SOL    HW228270   2.171   0.254   6.731 -1.5704 -1.0431 -2.2426
 9196SOL     OW28271   6.420   4.535   5.592  0.0114  0.4716 -0.4420
 9196SOL    HW128272   6.351   4.479   5.557 -1.3716  1.3252  0.7964
 9196SOL    HW228273   6.431   4.603   5.526 -2.4913  2.0121  0.5927
 9197SOL     OW28274   5.883   1.340   0.963  0.2010 -0.5265  0.2978
 9197SOL    HW128275   5.893   1.428   0.999  0.2408  0.8220 -2.7332
 9197SOL    HW228276   5.789   1.325   0.962 -0.0464  0.7173 -1.6413
 9198SOL     OW28277   3.220   4.854   3.331  0.6204 -0.3444  0.8410
 9198SOL    HW128278   3.223   4.761   3.313 -2.2910 -0.0952 -1.7618
 9198SOL    HW228279   3.174   4.861   3.414 -2.2282 -1.2896 -0.5179
 9199SOL     OW28280   5.455   3.991   3.248 -0.2581 -0.3443  0.2806
 9199SOL    HW128281   5.448   3.918   3.186 -1.1701  1.1548 -1.4975
 9199SOL    HW228282   5.366   4.002   3.282  0.0276 -0.4908  1.1002
 9200SOL     OW28283   0.357   1.311   1.121  0.0180 -0.1365  1.0051
 9200SOL    HW128284   0.423   1.282   1.058  1.1498  0.7108  1.7742
 9200SOL    HW228285   0.317   1.230   1.152 -0.6913 -0.5762 -0.9015
 9201SOL     OW28286   4.485   6.168   2.799 -0.4355 -0.5065 -0.7637
 9201SOL    HW128287   4.432   6.175   2.719  1.0798 -0.5223 -1.7991
 9201SOL    HW228288   4.420   6.157   2.868 -1.7543 -1.6291 -2.1006
 9202SOL     OW28289   2.243   3.642   6.209 -0.1462 -0.2185 -0.2304
 9202SOL    HW128290   2.214   3.676   6.294 -2.0109 -0.6036 -0.6628
 9202SOL    HW228291   2.291   3.562   6.231 -0.6493 -0.3420  0.4652
 9203SOL     OW28292   2.336   1.222   3.802  1.1734  0.2115  0.0793
 9203SOL    HW128293   2.367   1.212   3.711 -1.2329  0.4626 -0.8338
 9203SOL    HW228294   2.388   1.294   3.837  1.3668  0.8733 -1.4815
 9204SOL     OW28295   6.465   5.257   0.123  0.5299  0.0354 -0.1335
 9204SOL    HW128296   6.540   5.259   0.065 -0.3879 -0.9168 -1.4269
 9204SOL    HW228297   6.437   5.348   0.130 -0.5399  0.0110 -2.8938
 9205SOL     OW28298   2.770   1.490   4.783  0.3136 -0.1532 -0.1567
 9205SOL    HW128299   2.745   1.402   4.755  0.8922  0.2579 -2.0893
 9205SOL    HW228300   2.762   1.488   4.878  0.7012 -2.4153 -0.1268
 9206SOL     OW28301   1.639   6.463   6.894 -0.3420 -0.2147 -0.3214
 9206SOL    HW128302   1.654   6.473   6.988 -0.3939 -0.8168 -0.2491
 9206SOL    HW228303   1.696   6.529   6.854  0.3332 -0.5416  0.0911
 9207SOL     OW28304   5.070   5.711   3.316  0.4391  0.1646  0.1503
 9207SOL    HW128305   5.040   5.788   3.364 -1.1958 -0.0318 -0.4768
 9207SOL    HW228306   5.083   5.742   3.226  1.7256  0.1357  0.3163
 9208SOL     OW28307   4.903   3.585   6.820  0.2391  0.5872 -0.1914
 9208SOL    HW128308   4.850   3.592   6.740  0.5943  0.3245 -0.4531
 9208SOL    HW228309   4.952   3.667   6.823  1.6963 -0.2020 -1.3136
 9209SOL     OW28310   5.358   2.579   4.144 -0.1083 -0.5144 -0.8135
 9209SOL    HW128311   5.402   2.662   4.164  0.9994 -0.5547 -2.8387
 9209SOL    HW228312   5.353   2.534   4.228  1.0927  0.7474 -0.0169
 9210SOL     OW28313   6.166   3.210   4.300 -0.1592  0.3421  0.2241
 9210SOL    HW128314   6.239   3.200   4.239  0.0418  0.2605  0.4773
 9210SOL    HW228315   6.103   3.144   4.273  0.5179 -0.6226  0.9563
 9211SOL     OW28316   4.688   6.202   4.714 -0.3667 -0.2489 -0.3299
 9211SOL    HW128317   4.629   6.193   4.790  0.7019  0.6304  0.6311
 9211SOL    HW228318   4.630   6.192   4.639 -1.8631  1.0172  0.5710
 9212SOL     OW28319   5.410   0.633   5.790 -0.6936 -0.1501 -0.5668
 9212SOL    HW128320   5.336   0.587   5.831 -0.5174 -1.3071 -1.4907
 9212SOL    HW228321   5.486   0.579   5.810  0.1106  1.4560  1.0798
 9213SOL     OW28322   0.640   0.465   1.169 -0.2010 -0.4238  0.1220
 9213SOL    HW128323   0.698   0.415   1.225 -0.5993 -0.1497  0.7999
 9213SOL    HW228324   0.663   0.556   1.186  1.7326 -0.3376 -2.4073
 9214SOL     OW28325   4.259   5.284   1.216 -0.6061 -0.6316  0.1040
 9214SOL    HW128326   4.256   5.378   1.199 -0.6677 -0.8099 -0.9712
 9214SOL    HW228327   4.298   5.276   1.303  0.2679  0.3486 -0.1786
 9215SOL     OW28328   3.421   0.565   0.648 -0.2163 -0.0506 -0.4129
 9215SOL    HW128329   3.384   0.477   0.651 -0.8311 -0.0142 -3.4720
 9215SOL    HW228330   3.363   0.614   0.590  1.4798  1.6567 -0.7971
 9216SOL     OW28331   0.080   5.723   4.719  0.0377  0.1243 -0.2236
 9216SOL    HW128332   0.057   5.657   4.654  0.7392 -1.1056  0.7371
 9216SOL    HW228333   0.016   5.793   4.705 -1.6276 -1.3422 -0.3682
 9217SOL     OW28334   5.931   3.176   2.185  0.1648 -0.1966 -0.1478
 9217SOL    HW128335   6.021   3.182   2.217 -0.2037  0.6185  0.7784
 9217SOL    HW228336   5.936   3.209   2.095  0.7939 -0.1624 -0.1069
 9218SOL     OW28337   4.721   6.055   5.105  0.5036 -0.1020 -0.1807
 9218SOL    HW128338   4.748   6.046   5.197 -1.8757 -0.2101  0.5660
 9218SOL    HW228339   4.763   6.136   5.076 -0.7505  1.3826  1.8532
 9219SOL     OW28340   6.555   5.634   1.914 -0.2657  0.1692  0.2675
 9219SOL    HW128341   6.476   5.618   1.862  1.5674 -0.5832 -2.5042
 9219SOL    HW228342   6.622   5.659   1.850  2.2338 -1.0387  2.2157
 9220SOL     OW28343   5.161   3.861   6.521  0.5749  0.1796 -0.0030
 9220SOL    HW128344   5.066   3.853   6.515  0.6994 -1.8645 -0.0223
 9220SOL    HW228345   5.193   3.841   6.433  1.0246  0.8690  0.0001
 9221SOL     OW28346   1.362   0.618   3.747  0.1953 -0.1169 -0.2878
 9221SOL    HW128347   1.410   0.547   3.704 -2.1695  0.0337 -3.5938
 9221SOL    HW228348   1.418   0.695   3.736 -0.0322 -0.2220 -2.7650
 9222SOL     OW28349   1.515   0.179   6.467 -0.1627 -0.3503  0.0399
 9222SOL    HW128350   1.485   0.265   6.438  0.1642 -0.2689 -0.0728
 9222SOL    HW228351   1.562   0.196   6.548  0.1522 -0.3777 -0.1323
 9223SOL     OW28352   3.945   2.962   6.176  0.2357  0.0159 -0.0351
 9223SOL    HW128353   3.872   2.901   6.179  2.2149 -2.5173 -0.4064
 9223SOL    HW228354   3.965   2.980   6.268 -0.8321  0.7484  0.0658
 9224SOL     OW28355   1.866   6.804   0.077 -0.0021 -0.0527 -0.0564
 9224SOL    HW128356   1.775   6.830   0.089  0.5408  1.4290  1.1307
 9224SOL    HW228357   1.906   6.814   0.163  1.0846 -1.6232 -0.3201
 9225SOL     OW28358   2.777   4.245   3.489 -1.2550  0.4275  0.7626
 9225SOL    HW128359   2.855   4.260   3.436 -3.1293  1.8810 -1.8138
 9225SOL    HW228360   2.780   4.313   3.556 -0.9501  1.2803 -0.1068
 9226SOL     OW28361   1.060   0.956   3.359  0.2252  0.4627  0.2404
 9226SOL    HW128362   1.037   0.873   3.402 -0.8769  0.1670 -0.8697
 9226SOL    HW228363   1.002   1.021   3.399 -1.6046 -0.0101 -1.4863
 9227SOL     OW28364   3.635   3.114   6.738  0.2731  0.3620  0.0394
 9227SOL    HW128365   3.707   3.106   6.801  0.6955  0.7297 -0.3874
 9227SOL    HW228366   3.660   3.058   6.665 -0.4878 -0.5068  0.4349
 9228SOL     OW28367   3.560   4.018   5.111 -0.1000 -0.6589  0.3942
 9228SOL    HW128368   3.524   3.933   5.138 -0.0579 -1.0892 -0.8291
 9228SOL    HW228369   3.487   4.079   5.122 -0.6817 -1.1919 -0.3823
 9229SOL     OW28370   3.324   2.174   6.325 -0.1632  0.3561  0.0673
 9229SOL    HW128371   3.307   2.260   6.362 -1.4811 -0.2437  0.9329
 9229SOL    HW228372   3.406   2.146   6.366  0.2152  1.1374 -0.1399
 9230SOL     OW28373   2.803   1.745   6.281 -0.5721  0.3589  0.1403
 9230SOL    HW128374   2.859   1.773   6.353  2.5430 -2.9655 -0.6915
 9230SOL    HW228375   2.791   1.823   6.227  0.0166  2.0731  2.3340
 9231SOL     OW28376   4.943   1.663   6.131  0.0191  0.3344 -0.1220
 9231SOL    HW128377   4.884   1.706   6.070 -1.1280 -2.7097 -1.3721
 9231SOL    HW228378   5.030   1.694   6.107 -0.6056  0.7925 -1.9207
 9232SOL     OW28379   2.546   1.802   3.246  0.2234  0.4676  0.5597
 9232SOL    HW128380   2.590   1.792   3.162 -0.3386 -0.7079  0.3925
 9232SOL    HW228381   2.546   1.897   3.262  1.2923  0.6157 -0.2313
 9233SOL     OW28382   4.822   4.806   0.482 -0.2364 -0.1052 -0.2587
 9233SOL    HW128383   4.809   4.859   0.560 -0.7957 -0.7787  0.1188
 9233SOL    HW228384   4.851   4.868   0.415 -1.3448  0.7553  0.0360
 9234SOL     OW28385   5.740   6.369   0.529  0.3124  0.3424  0.5558
 9234SOL    HW128386   5.823   6.331   0.501 -1.1124 -1.1524 -2.0253
 9234SOL    HW228387   5.700   6.401   0.448 -1.9914  0.2685  1.5976
 9235SOL     OW28388   5.776   5.192   3.551  0.4135  0.2317 -0.3449
 9235SOL    HW128389   5.776   5.284   3.578  0.3257  0.5513 -1.3899
 9235SOL    HW228390   5.754   5.143   3.631  0.7244  1.0961  0.2741
 9236SOL     OW28391   2.583   3.831   2.650  0.4253  0.0195  0.1170
 9236SOL    HW128392   2.624   3.907   2.609 -0.1469  0.3778  0.2046
 9236SOL    HW228393   2.589   3.762   2.584  2.7731 -0.4836  0.7500
 9237SOL     OW28394   4.336   0.085   1.495 -0.2783  0.1167  0.5575
 9237SOL    HW128395   4.428   0.065   1.483 -0.3496 -0.6166  1.1229
 9237SOL    HW228396   4.335   0.161   1.554 -0.0165  1.5175 -1.1484
 9238SOL     OW28397   4.301   5.125   3.958 -0.1580 -0.5513  0.0067
 9238SOL    HW128398   4.276   5.208   3.998  0.0084 -0.4939 -0.0106
 9238SOL    HW228399   4.387   5.141   3.919 -0.7093 -0.3290 -1.1786
 9239SOL     OW28400   6.891   3.306   6.294 -0.2394 -0.1409 -0.1080
 9239SOL    HW128401   6.949   3.366   6.339 -0.7511 -0.0835  0.4780
 9239SOL    HW228402   6.846   3.258   6.363 -0.6777 -0.3920 -0.5536
 9240SOL     OW28403   4.420   2.002   4.940 -0.4762 -0.7384  0.1512
 9240SOL    HW128404   4.480   2.066   4.903 -1.3859  0.1197  0.1088
 9240SOL    HW228405   4.342   2.006   4.884 -1.2148 -0.6239  1.1512
 9241SOL     OW28406   4.013   4.132   0.806 -0.3172 -0.2221  0.0657
 9241SOL    HW128407   4.084   4.070   0.787  0.5867  0.8083 -0.0470
 9241SOL    HW228408   3.989   4.167   0.721 -1.1905 -0.7912  0.0711
 9242SOL     OW28409   3.653   1.105   4.579 -0.1682  0.2909  0.3220
 9242SOL    HW128410   3.600   1.172   4.624 -2.3974 -1.9345  1.2416
 9242SOL    HW228411   3.694   1.056   4.650 -0.4022 -0.7114 -0.2164
 9243SOL     OW28412   1.131   6.092   0.166  0.4602 -0.5055  0.2969
 9243SOL    HW128413   1.063   6.034   0.132 -0.9359  0.5138  1.2138
 9243SOL    HW228414   1.084   6.153   0.223  2.1950  0.0783  1.1855
 9244SOL     OW28415   4.607   0.488   2.569  0.3190  0.3006 -0.3089
 9244SOL    HW128416   4.641   0.558   2.514 -1.5644 -0.5727 -2.7628
 9244SOL    HW228417   4.639   0.508   2.657 -0.0439  4.1329 -0.9118
 9245SOL     OW28418   2.490   3.329   1.774  0.4042 -0.8313  0.6015
 9245SOL    HW128419   2.527   3.269   1.710  0.5765 -0.1795  0.0791
 9245SOL    HW228420   2.458   3.403   1.722 -1.8910 -1.4665  0.9813
 9246SOL     OW28421   2.850   4.133   1.399 -0.8681  0.4560 -0.1839
 9246SOL    HW128422   2.922   4.150   1.339 -0.9829 -0.0773 -0.4834
 9246SOL    HW228423   2.879   4.168   1.483 -0.0739 -0.1644 -0.1958
 9247SOL     OW28424   2.888   2.025   0.760 -0.0844 -0.7193  0.4707
 9247SOL    HW128425   2.795   2.023   0.735 -0.2876 -1.3222  1.2272
 9247SOL    HW228426   2.931   1.967   0.697  0.1674  1.1955 -1.2428
 9248SOL     OW28427   0.113   0.027   4.617 -0.6368  0.1070 -0.2158
 9248SOL    HW128428   0.112  -0.041   4.684 -1.2249  0.9149  0.6262
 9248SOL    HW228429   0.140   0.106   4.664  2.8719 -0.0328 -1.7125
 9249SOL     OW28430   0.367   4.714   0.246  0.5120 -0.0519  0.0740
 9249SOL    HW128431   0.371   4.794   0.193 -1.8269  0.5409  0.6600
 9249SOL    HW228432   0.277   4.683   0.234  0.9295 -1.7409  1.1077
 9250SOL     OW28433   2.298   4.240   2.945  0.3885  0.1579 -0.1800
 9250SOL    HW128434   2.344   4.156   2.956 -0.8419 -0.3657  1.4092
 9250SOL    HW228435   2.353   4.303   2.992  1.5727  0.4012 -1.7886
 9251SOL     OW28436   3.540   0.871   0.034 -0.6112 -0.6355  0.2882
 9251SOL    HW128437   3.474   0.900  -0.029 -0.3898  0.1551  0.4107
 9251SOL    HW228438   3.506   0.788   0.068 -1.2713 -0.5125 -0.0523
 9252SOL     OW28439   3.294   2.944   5.360  0.1217  0.1142 -0.8503
 9252SOL    HW128440   3.363   2.906   5.415 -1.3931  0.2307  1.2741
 9252SOL    HW228441   3.253   2.868   5.319 -0.9788 -0.3900  1.0363
 9253SOL     OW28442   0.758   5.732   0.971 -0.1414 -0.2657  0.2470
 9253SOL    HW128443   0.760   5.717   1.065  1.3639 -0.7004  0.1686
 9253SOL    HW228444   0.666   5.719   0.946 -0.0670 -3.1219  1.1995
 9254SOL     OW28445   5.151   2.260   2.248 -0.2043 -1.1364  0.4523
 9254SOL    HW128446   5.117   2.176   2.216  0.3594 -1.5756  0.9996
 9254SOL    HW228447   5.159   2.314   2.168  1.7703 -2.4255 -0.2982
 9255SOL     OW28448   4.020   1.338   2.260  0.2547  0.1255 -0.0643
 9255SOL    HW128449   4.010   1.351   2.354  1.4162  1.9749 -0.1267
 9255SOL    HW228450   4.077   1.411   2.233 -3.1451  2.0279 -2.8390
 9256SOL     OW28451   4.080   4.720   3.525 -0.2330 -0.4434 -0.5346
 9256SOL    HW128452   4.117   4.674   3.450 -2.6627 -2.2840 -0.7228
 9256SOL    HW228453   4.034   4.795   3.488  2.1834  1.1978 -0.3976
 9257SOL     OW28454   3.808   4.576   0.084 -0.0910 -0.3653 -0.0390
 9257SOL    HW128455   3.873   4.578   0.013 -0.7176  0.9535 -0.6072
 9257SOL    HW228456   3.784   4.668   0.097 -0.6411 -0.6746  1.2914
 9258SOL     OW28457   3.915   5.433   0.486 -0.3687  0.0313  0.0293
 9258SOL    HW128458   3.948   5.501   0.427 -0.6776 -2.2267 -2.9723
 9258SOL    HW228459   3.821   5.429   0.467 -0.3304 -1.3023  0.0675
 9259SOL     OW28460   6.135   5.930   3.826  0.4380 -0.0531 -0.4517
 9259SOL    HW128461   6.057   5.955   3.776  0.2620  1.8320  0.6473
 9259SOL    HW228462   6.106   5.857   3.881  0.1745 -1.0189 -1.8146
 9260SOL     OW28463   5.615   2.056   2.730 -0.0435 -0.2249 -0.0532
 9260SOL    HW128464   5.599   2.122   2.662 -0.8608  0.2520  0.5806
 9260SOL    HW228465   5.693   2.087   2.776 -1.7707  1.6681  1.7923
 9261SOL     OW28466   2.980   1.355   3.272  0.6160  0.0508  0.6298
 9261SOL    HW128467   3.023   1.270   3.283  1.4384  0.2542 -0.7139
 9261SOL    HW228468   2.970   1.389   3.361  2.2301 -0.5232  1.0672
 9262SOL     OW28469   1.282   2.032   2.739  0.0713 -0.3809  0.3929
 9262SOL    HW128470   1.359   2.067   2.694 -0.3381  0.0485  0.0146
 9262SOL    HW228471   1.294   2.057   2.830  0.6170 -0.7462  0.4334
 9263SOL     OW28472   0.820   6.306   6.780 -0.3236  0.0687  0.0599
 9263SOL    HW128473   0.889   6.362   6.746 -0.3527 -0.3143 -0.6633
 9263SOL    HW228474   0.748   6.316   6.717 -1.1659  0.9502  1.1381
 9264SOL     OW28475   3.307   5.516   2.237 -0.1836  0.3506 -0.6368
 9264SOL    HW128476   3.248   5.442   2.254  0.5296  0.1651  1.2173
 9264SOL    HW228477   3.383   5.476   2.195  0.6297 -0.1583  1.2636
 9265SOL     OW28478   4.669   4.604   6.271  0.0959 -0.6648 -0.1289
 9265SOL    HW128479   4.602   4.584   6.336 -0.9151  0.6694 -0.7156
 9265SOL    HW228480   4.745   4.630   6.323 -0.4917 -0.2279  0.5443
 9266SOL     OW28481   3.315   6.586   5.337  0.2567 -0.5214 -0.5327
 9266SOL    HW128482   3.333   6.582   5.431  0.0909 -2.0291 -0.5497
 9266SOL    HW228483   3.294   6.678   5.321  2.8334  0.3319  0.4037
 9267SOL     OW28484   1.117   4.374   0.019 -0.0363  0.2774  0.1689
 9267SOL    HW128485   1.088   4.311  -0.047  0.3462  1.0574 -0.7773
 9267SOL    HW228486   1.080   4.458  -0.011  2.2292  1.1156 -0.5063
 9268SOL     OW28487   5.234   5.021   2.959  0.0284  0.1458 -0.5117
 9268SOL    HW128488   5.160   5.057   3.009 -0.6315 -1.9068  0.0678
 9268SOL    HW228489   5.222   5.058   2.871  0.9206  3.4002  0.5935
 9269SOL     OW28490   4.771   1.750   3.225  0.2298  0.1031  0.4905
 9269SOL    HW128491   4.735   1.838   3.240 -1.1359 -0.4249  0.4443
 9269SOL    HW228492   4.838   1.763   3.159  0.3518  1.1819  0.8059
 9270SOL     OW28493   4.014   0.236   0.335  0.0410  0.1576  0.1770
 9270SOL    HW128494   3.994   0.319   0.380 -1.3360  0.4275 -0.8764
 9270SOL    HW228495   3.931   0.188   0.335  0.6288 -0.8913  0.0522
 9271SOL     OW28496   1.975   5.013   4.727  0.2624  0.4058  0.7258
 9271SOL    HW128497   2.041   4.971   4.783 -1.3458 -1.6606  1.1858
 9271SOL    HW228498   1.922   5.065   4.788 -0.4156 -0.4547  0.8993
 9272SOL     OW28499   2.857   0.655   3.136 -0.3178 -0.0960 -0.4775
 9272SOL    HW128500   2.838   0.737   3.179  1.9055 -0.1831  0.8275
 9272SOL    HW228501   2.780   0.600   3.152 -1.1960  1.2073 -0.1071
 9273SOL     OW28502   3.489   1.695   6.148  0.6079 -0.4470 -0.1496
 9273SOL    HW128503   3.479   1.676   6.055  0.2341 -2.1163  0.1921
 9273SOL    HW228504   3.431   1.770   6.164 -0.6994 -1.2447 -0.9435
 9274SOL     OW28505   2.480   3.229   1.330 -0.1442 -0.2280 -0.4057
 9274SOL    HW128506   2.415   3.164   1.356  0.0058  0.1068  0.8761
 9274SOL    HW228507   2.466   3.303   1.390  0.7300  0.2688 -0.7900
 9275SOL     OW28508   4.817   2.607   4.879 -0.5018  0.3477  0.5735
 9275SOL    HW128509   4.769   2.556   4.945 -0.2995 -1.0669 -0.3305
 9275SOL    HW228510   4.875   2.544   4.838  1.1943  1.7521  0.7102
 9276SOL     OW28511   6.831   6.255   6.319 -0.3341 -0.3688 -0.3052
 9276SOL    HW128512   6.866   6.339   6.289  0.7353 -0.9428 -0.7217
 9276SOL    HW228513   6.875   6.190   6.264  0.7021 -1.3711  1.6206
 9277SOL     OW28514   0.402   1.468   4.495 -0.1983 -0.0755 -0.4829
 9277SOL    HW128515   0.340   1.538   4.514  0.2772  0.8247 -2.0178
 9277SOL    HW228516   0.473   1.481   4.557 -0.2695  0.5968 -0.5366
 9278SOL     OW28517   0.932   1.334   5.340  0.2176  0.0349 -0.0976
 9278SOL    HW128518   0.999   1.360   5.402  0.7829 -0.2029 -0.6016
 9278SOL    HW228519   0.880   1.268   5.386 -0.1365  0.7715  0.5589
 9279SOL     OW28520   0.816   3.848   2.832 -0.0425 -0.4735  0.4068
 9279SOL    HW128521   0.843   3.781   2.894 -1.8425 -0.5318  1.1958
 9279SOL    HW228522   0.880   3.918   2.841 -1.6430  0.7434  4.3961
 9280SOL     OW28523   4.066   4.891   2.598  0.3878 -0.6234 -0.0600
 9280SOL    HW128524   4.095   4.976   2.564  0.3856 -0.5726  0.0642
 9280SOL    HW228525   4.108   4.827   2.541  0.6810 -0.5486  0.0694
 9281SOL     OW28526   3.048   0.384   4.008  0.1289 -0.2017 -0.6192
 9281SOL    HW128527   3.134   0.378   4.051 -1.2252  0.0700  2.4065
 9281SOL    HW228528   3.012   0.296   4.014  0.1561 -0.3167 -1.8881
 9282SOL     OW28529   6.432   0.754   6.375  0.1558 -0.4420  0.1905
 9282SOL    HW128530   6.385   0.815   6.318 -0.9396  0.7677  2.2552
 9282SOL    HW228531   6.388   0.669   6.360  0.2703 -0.2916 -1.1331
 9283SOL     OW28532   5.966   5.011   1.979  0.2654 -0.2563  1.0621
 9283SOL    HW128533   5.976   5.012   2.074 -0.7411 -1.9815  1.2330
 9283SOL    HW228534   5.989   4.922   1.953  3.4151  0.9424 -0.7425
 9284SOL     OW28535   4.791   5.552   1.630  0.1165 -0.3324  0.5682
 9284SOL    HW128536   4.737   5.528   1.554  1.1205  1.2249 -0.6998
 9284SOL    HW228537   4.734   5.609   1.682 -1.0813 -2.5292  1.8247
 9285SOL     OW28538   1.190   1.255   5.151 -0.8066  0.0969  0.0613
 9285SOL    HW128539   1.100   1.287   5.162 -1.0358 -0.3287 -0.5166
 9285SOL    HW228540   1.204   1.198   5.227 -1.2697 -0.3585 -0.1800
 9286SOL     OW28541   3.776   5.678   5.065 -0.3282 -0.1125  0.4044
 9286SOL    HW128542   3.738   5.618   5.129 -1.7456 -1.4881 -1.6026
 9286SOL    HW228543   3.703   5.702   5.009  0.3852  2.9021  0.6086
 9287SOL     OW28544   0.112   1.381   5.904  0.2249 -0.0014  0.2311
 9287SOL    HW128545   0.096   1.399   5.811 -0.2997 -0.8744  0.1407
 9287SOL    HW228546   0.070   1.297   5.920  0.8784 -0.1793  1.1097
 9288SOL     OW28547   4.185   1.055   5.839  0.2473 -0.5213  0.0796
 9288SOL    HW128548   4.099   1.027   5.872 -0.8478  0.3857 -1.8556
 9288SOL    HW228549   4.211   1.124   5.900 -0.9683  0.0191  0.0273
 9289SOL     OW28550   2.253   0.667   1.774  0.0735 -0.9606  0.1981
 9289SOL    HW128551   2.192   0.696   1.707  0.8743 -1.5875 -0.8506
 9289SOL    HW228552   2.338   0.698   1.744  0.5779 -2.0747  0.4028
 9290SOL     OW28553   2.811   3.897   5.869  0.3008  0.6434  0.5435
 9290SOL    HW128554   2.731   3.847   5.855  0.5027  0.6700 -0.8423
 9290SOL    HW228555   2.781   3.983   5.898 -0.2690  1.0345 -1.0741
 9291SOL     OW28556   3.437   1.779   4.625 -0.2633  0.1565  0.0263
 9291SOL    HW128557   3.489   1.834   4.566 -1.2337  2.2388  1.0039
 9291SOL    HW228558   3.381   1.841   4.672  0.9323 -1.2530  3.6312
 9292SOL     OW28559   3.053   3.576   0.785  0.1670 -0.1672  0.2656
 9292SOL    HW128560   3.028   3.642   0.849  1.9259  1.8379 -0.9668
 9292SOL    HW228561   2.970   3.539   0.755 -0.9275  1.7208  0.7951
 9293SOL     OW28562   2.221   2.644   3.818 -0.0826  0.3394  0.6235
 9293SOL    HW128563   2.204   2.585   3.892 -1.7289  0.1925  0.1775
 9293SOL    HW228564   2.175   2.725   3.841 -0.1538  0.4782  0.0080
 9294SOL     OW28565   0.583   5.039   4.620  0.0888 -0.0070  0.1083
 9294SOL    HW128566   0.540   5.119   4.588 -0.4614  0.0948  1.0507
 9294SOL    HW228567   0.618   4.997   4.542  2.8537  2.5429 -0.2163
 9295SOL     OW28568   1.233   1.422   1.876 -0.1447 -0.6281  0.2750
 9295SOL    HW128569   1.247   1.337   1.918  1.1285  0.1586  1.5566
 9295SOL    HW228570   1.196   1.477   1.945 -1.7852 -0.3352 -0.7793
 9296SOL     OW28571   2.912   3.032   0.901 -0.8515  0.3967  0.2339
 9296SOL    HW128572   2.933   3.117   0.939 -0.8641  0.5606 -0.1163
 9296SOL    HW228573   2.951   3.035   0.813  0.5759 -0.5776  0.7931
 9297SOL     OW28574   3.076   4.957   3.999  0.0600 -0.1543  0.0689
 9297SOL    HW128575   3.054   4.952   4.092  0.2404 -2.5671  0.0221
 9297SOL    HW228576   2.993   4.947   3.954 -0.0722  1.3190 -0.0887
 9298SOL     OW28577   0.838   3.949   6.033 -0.0318 -0.3065  0.0476
 9298SOL    HW128578   0.795   3.955   6.119  1.2917 -0.8412  0.7753
 9298SOL    HW228579   0.765   3.942   5.971 -1.0684  1.4472  0.9670
 9299SOL     OW28580   5.514   4.196   2.572 -0.1018 -0.0308  0.0508
 9299SOL    HW128581   5.506   4.110   2.530  1.2953  0.2885 -0.9783
 9299SOL    HW228582   5.609   4.208   2.583 -0.2924  1.2324  0.4609
 9300SOL     OW28583   6.090   0.855   4.853 -0.1475  0.9312 -0.8155
 9300SOL    HW128584   6.014   0.802   4.876 -0.0037  1.1829  0.2862
 9300SOL    HW228585   6.160   0.791   4.838 -0.2892  0.7554 -0.7307
 9301SOL     OW28586   3.701   5.383   4.610  0.2378 -0.2981 -0.4774
 9301SOL    HW128587   3.696   5.459   4.668 -0.0925 -1.0732  0.5331
 9301SOL    HW228588   3.613   5.345   4.614  0.1968 -0.3365 -1.5375
 9302SOL     OW28589   1.486   4.250   3.630 -0.1598  0.1439  0.3604
 9302SOL    HW128590   1.504   4.160   3.657 -3.3191 -0.7728 -0.1502
 9302SOL    HW228591   1.505   4.251   3.536 -0.1065 -0.0095  0.3698
 9303SOL     OW28592   6.067   1.803   3.887  0.6533  0.1889 -0.1036
 9303SOL    HW128593   6.127   1.734   3.859 -0.2457 -0.3024 -0.8818
 9303SOL    HW228594   6.122   1.881   3.896  1.3456 -0.1576 -1.1629
 9304SOL     OW28595   0.658   2.128   0.239  0.3764  0.2077  0.0683
 9304SOL    HW128596   0.658   2.221   0.214  0.9850  0.6090  1.4168
 9304SOL    HW228597   0.745   2.097   0.214  0.6952  0.3979  0.9109
 9305SOL     OW28598   1.699   4.830   5.206 -0.0976  0.3567 -0.0863
 9305SOL    HW128599   1.713   4.915   5.164 -0.6018  0.2847 -0.4096
 9305SOL    HW228600   1.785   4.806   5.239 -0.2394  1.7292  1.4217
 9306SOL     OW28601   4.009   3.612   5.414  0.1452 -0.7821 -0.2155
 9306SOL    HW128602   3.974   3.699   5.433 -3.0584 -2.0812  0.6257
 9306SOL    HW228603   4.017   3.608   5.319  2.0436  0.9476 -0.1753
 9307SOL     OW28604   2.732   2.682   2.684  0.3702  0.3082 -0.1183
 9307SOL    HW128605   2.739   2.681   2.588  0.8025 -1.1589 -0.0868
 9307SOL    HW228606   2.771   2.765   2.710  0.6789  0.5128 -1.1905
 9308SOL     OW28607   6.744   0.352   1.776 -0.8424 -0.0349 -0.0048
 9308SOL    HW128608   6.759   0.258   1.776 -1.6379 -0.1844  0.8801
 9308SOL    HW228609   6.793   0.385   1.701 -0.9806 -1.2215 -0.6392
 9309SOL     OW28610   6.056   5.335   3.762  0.6333 -0.1953  0.6731
 9309SOL    HW128611   6.130   5.396   3.769  2.1279 -1.9600  1.1839
 9309SOL    HW228612   6.043   5.324   3.668  0.5168  0.6916  0.5761
 9310SOL     OW28613   0.426   3.207   3.266  0.9209  0.3163  0.1293
 9310SOL    HW128614   0.335   3.177   3.257  1.4000 -0.8152 -1.4153
 9310SOL    HW228615   0.448   3.191   3.358 -0.2549  0.0842  0.3864
 9311SOL     OW28616   4.278   3.746   2.139 -0.7014 -0.0240 -0.1842
 9311SOL    HW128617   4.193   3.718   2.105 -1.0994  0.0161  0.7438
 9311SOL    HW228618   4.269   3.738   2.234  1.1373 -2.4167 -0.1260
 9312SOL     OW28619   5.677   6.351   4.284  0.1438  0.2676  0.3391
 9312SOL    HW128620   5.610   6.295   4.323 -0.6133  0.9101  0.0168
 9312SOL    HW228621   5.657   6.350   4.190  0.8591  0.1182  0.1897
 9313SOL     OW28622   3.502   2.116   0.195 -0.3201 -0.9826 -0.0145
 9313SOL    HW128623   3.407   2.114   0.201 -0.2613 -1.9076  0.8829
 9313SOL    HW228624   3.528   2.195   0.243 -0.7494  1.0481 -2.8779
 9314SOL     OW28625   5.250   1.941   4.710 -0.6197  0.2679  0.3573
 9314SOL    HW128626   5.292   1.906   4.631  0.5245  1.1404  0.5506
 9314SOL    HW228627   5.263   1.872   4.775  1.0646  0.7211  0.5629
 9315SOL     OW28628   3.173   3.147   2.339 -0.2766  0.0134  0.7107
 9315SOL    HW128629   3.215   3.151   2.253  0.2007  0.0437  0.9470
 9315SOL    HW228630   3.081   3.170   2.321 -0.6657 -2.0108 -0.1076
 9316SOL     OW28631   1.441   4.505   3.442  0.2055  0.0532  0.2095
 9316SOL    HW128632   1.371   4.554   3.485  0.2085 -0.4654  0.8214
 9316SOL    HW228633   1.410   4.415   3.439  1.7437 -0.6694  2.6046
 9317SOL     OW28634   5.529   0.745   2.649  0.0961 -0.2714 -0.1722
 9317SOL    HW128635   5.481   0.815   2.605 -0.2474  0.0015  0.6087
 9317SOL    HW228636   5.526   0.770   2.742  2.1571 -0.0068 -0.1457
 9318SOL     OW28637   3.376   3.355   0.552 -0.1915  0.3155 -0.5493
 9318SOL    HW128638   3.359   3.412   0.627 -0.8961  0.1154 -0.5562
 9318SOL    HW228639   3.471   3.357   0.542 -0.1668  1.0834 -0.2283
 9319SOL     OW28640   6.510   5.921   6.671 -0.2899 -0.3076  0.2735
 9319SOL    HW128641   6.429   5.872   6.685  0.1394 -1.4557 -1.0110
 9319SOL    HW228642   6.517   5.930   6.576  0.3753  1.0479  0.4256
 9320SOL     OW28643   1.640   1.403   6.507  0.3183 -0.0740 -0.0265
 9320SOL    HW128644   1.634   1.478   6.566 -0.0956  0.1400 -0.3316
 9320SOL    HW228645   1.733   1.382   6.504  0.2393 -0.7493  1.5155
 9321SOL     OW28646   3.979   1.979   5.926 -0.2519 -0.0010  0.1463
 9321SOL    HW128647   4.033   1.902   5.909 -0.7893 -0.3303 -0.0951
 9321SOL    HW228648   3.913   1.977   5.856 -0.7760  0.2101  0.6317
 9322SOL     OW28649   1.883   2.101   1.720  0.0709  0.3200  0.5776
 9322SOL    HW128650   1.904   2.135   1.633  1.2076  0.9468  1.0732
 9322SOL    HW228651   1.818   2.033   1.705 -1.2944  1.8144 -0.5783
 9323SOL     OW28652   1.817   5.841   2.782  0.2314 -0.6170 -0.2720
 9323SOL    HW128653   1.867   5.918   2.809  1.0017 -1.2912  0.2944
 9323SOL    HW228654   1.863   5.767   2.823 -1.5076 -1.2393  0.6548
 9324SOL     OW28655   5.729   2.094   6.518 -0.2952  1.0290  0.4892
 9324SOL    HW128656   5.812   2.047   6.527  0.4747  1.7923 -1.8857
 9324SOL    HW228657   5.717   2.138   6.602  0.6773 -0.6358  1.5701
 9325SOL     OW28658   4.636   0.175   4.136  0.3736 -0.4046 -0.0139
 9325SOL    HW128659   4.596   0.109   4.194 -0.0678 -0.4802 -0.4052
 9325SOL    HW228660   4.730   0.167   4.153  0.1889  0.4067  1.5968
 9326SOL     OW28661   0.951   5.129   3.676 -0.2759  0.0317  0.3068
 9326SOL    HW128662   0.951   5.037   3.701 -2.6970  0.0929  0.7143
 9326SOL    HW228663   0.961   5.128   3.581 -2.1853 -0.7921  0.0767
 9327SOL     OW28664   1.188   6.245   5.679  0.4455 -0.1406 -0.0831
 9327SOL    HW128665   1.203   6.339   5.667  0.8630 -0.0597  0.9788
 9327SOL    HW228666   1.093   6.234   5.669 -0.0568  0.8925  2.8224
 9328SOL     OW28667   0.421   4.318   2.940 -0.1204 -0.0969  0.2756
 9328SOL    HW128668   0.399   4.246   3.000 -1.8811 -0.3611 -0.5962
 9328SOL    HW228669   0.501   4.289   2.896 -0.4465 -1.2484  0.3998
 9329SOL     OW28670   3.641   1.181   5.541  0.0538  0.1947 -0.2879
 9329SOL    HW128671   3.560   1.131   5.537  0.6876 -0.9316  0.3202
 9329SOL    HW228672   3.677   1.161   5.627  0.3494  1.7132 -0.0245
 9330SOL     OW28673   1.766   2.528   0.497 -0.2843  0.0118 -0.0930
 9330SOL    HW128674   1.815   2.446   0.499  1.1500  0.8367  0.3971
 9330SOL    HW228675   1.692   2.511   0.439 -0.1196 -1.6695  0.1493
 9331SOL     OW28676   3.623   3.457   1.701 -0.7827  0.3677  0.3287
 9331SOL    HW128677   3.603   3.431   1.612 -0.6164  0.2101  0.3374
 9331SOL    HW228678   3.610   3.552   1.701 -0.8727  0.3563  0.1624
 9332SOL     OW28679   5.159   3.055   4.712 -0.1215 -0.5266 -0.2030
 9332SOL    HW128680   5.250   3.037   4.734 -0.4229 -0.0066  1.6553
 9332SOL    HW228681   5.144   3.144   4.743 -2.0498 -1.6170  2.3632
 9333SOL     OW28682   4.259   5.161   5.301 -0.1930  0.1289  0.7257
 9333SOL    HW128683   4.240   5.215   5.224  0.7412 -0.2904  0.1758
 9333SOL    HW228684   4.220   5.076   5.282  2.4874 -0.9016 -0.6460
 9334SOL     OW28685   2.961   5.426   3.658 -0.1702 -0.1566 -0.4423
 9334SOL    HW128686   2.968   5.513   3.697 -1.1739 -0.3427  0.1771
 9334SOL    HW228687   3.008   5.369   3.720 -0.3121 -0.1938 -0.3682
 9335SOL     OW28688   1.499   3.159   6.689 -0.5516 -0.1205  0.4300
 9335SOL    HW128689   1.513   3.201   6.604 -1.0624 -0.1862  0.3145
 9335SOL    HW228690   1.571   3.192   6.744 -1.5653  1.7922  0.6835
 9336SOL     OW28691   2.434   0.288   3.954  0.2546 -0.2273 -0.3767
 9336SOL    HW128692   2.389   0.283   3.870  1.5234 -1.9454 -1.0134
 9336SOL    HW228693   2.429   0.200   3.990  2.2367 -0.2723 -0.0475
 9337SOL     OW28694   6.200   0.237   6.297  0.3119  0.3175  0.1088
 9337SOL    HW128695   6.140   0.164   6.311  0.1791  0.9460  3.4065
 9337SOL    HW228696   6.153   0.295   6.237 -0.5364 -1.1677 -0.7324
 9338SOL     OW28697   5.390   4.185   0.102 -0.3287 -0.0636  0.4033
 9338SOL    HW128698   5.356   4.220   0.019 -0.9595 -1.8887 -0.1462
 9338SOL    HW228699   5.418   4.096   0.082 -0.3123 -0.4895  2.1140
 9339SOL     OW28700   2.880   2.073   3.835  0.3255  0.1353 -0.2545
 9339SOL    HW128701   2.862   2.056   3.927  1.9953 -0.9897 -0.0945
 9339SOL    HW228702   2.838   2.157   3.817  1.5314  1.2978  2.0129
 9340SOL     OW28703   6.249   6.313   5.897 -0.3258 -0.5259 -0.7646
 9340SOL    HW128704   6.295   6.251   5.954 -0.8310  0.5283  0.8550
 9340SOL    HW228705   6.286   6.297   5.810  0.6598 -2.0122 -0.1155
 9341SOL     OW28706   4.204   1.638   0.971  0.5307 -0.0238  0.7352
 9341SOL    HW128707   4.256   1.596   0.903 -0.6598 -0.4046  0.0328
 9341SOL    HW228708   4.206   1.577   1.045  1.2084  0.0474  0.7793
 9342SOL     OW28709   6.050   3.232   1.384  0.0748 -0.2861  0.3899
 9342SOL    HW128710   6.114   3.162   1.392  0.5291  0.1417  0.5361
 9342SOL    HW228711   6.100   3.313   1.394 -0.0734  0.1615 -1.8619
 9343SOL     OW28712   3.550   0.961   1.563 -0.0831  0.3518 -0.0112
 9343SOL    HW128713   3.471   0.981   1.512  1.5615  0.4815 -2.7221
 9343SOL    HW228714   3.518   0.911   1.638 -2.5339 -1.6793 -2.2013
 9344SOL     OW28715   3.006   4.630   1.797  0.3423  0.4301  0.6954
 9344SOL    HW128716   2.939   4.630   1.729 -1.3853 -1.7347  2.2494
 9344SOL    HW228717   3.081   4.586   1.758 -0.3289 -0.0614 -0.0730
 9345SOL     OW28718   1.265   0.037   6.742 -0.0964 -0.0827  0.2672
 9345SOL    HW128719   1.268   0.123   6.784 -1.2964 -0.0123  0.2390
 9345SOL    HW228720   1.354   0.003   6.752  0.3666  1.1088  0.3715
 9346SOL     OW28721   1.758   1.047   3.128  0.1328 -0.3100  0.1682
 9346SOL    HW128722   1.666   1.071   3.142 -0.2170 -1.7148  0.4839
 9346SOL    HW228723   1.808   1.119   3.167 -0.8390 -0.7830  2.4745
 9347SOL     OW28724   2.393   3.717   1.551 -0.2508 -0.5148 -0.1731
 9347SOL    HW128725   2.426   3.779   1.616  0.0912 -0.3639 -0.4922
 9347SOL    HW228726   2.298   3.712   1.569 -0.1515 -0.5293  0.3791
 9348SOL     OW28727   5.767   6.223   5.386 -0.4754  0.2410  0.0860
 9348SOL    HW128728   5.847   6.170   5.381 -0.4765  0.2352  0.1369
 9348SOL    HW228729   5.792   6.299   5.439 -0.2533  0.6698 -0.6052
 9349SOL     OW28730   3.382   2.921   1.440 -0.7088  0.6633  0.2029
 9349SOL    HW128731   3.468   2.893   1.471 -0.3682  0.7346 -0.6704
 9349SOL    HW228732   3.327   2.843   1.447  0.2712 -0.3475 -2.3712
 9350SOL     OW28733   4.428   5.904   6.436 -0.4990  0.3767  0.3976
 9350SOL    HW128734   4.446   5.817   6.471 -0.0461  0.1641 -0.3413
 9350SOL    HW228735   4.483   5.963   6.489 -0.8892  0.2329  0.9706
 9351SOL     OW28736   5.041   4.453   5.714  0.3229  0.0252 -0.1321
 9351SOL    HW128737   5.061   4.472   5.806  1.1768  0.3099 -0.3673
 9351SOL    HW228738   4.974   4.517   5.690  0.8907  0.6824 -0.0098
 9352SOL     OW28739   6.342   2.473   0.566 -0.3565  0.4260 -0.3407
 9352SOL    HW128740   6.418   2.417   0.555 -0.8389  0.0210 -1.8110
 9352SOL    HW228741   6.317   2.462   0.658 -1.0607 -2.6104 -0.7912
 9353SOL     OW28742   3.363   3.023   6.484 -0.6330 -0.4185 -0.0521
 9353SOL    HW128743   3.352   3.076   6.563 -0.4534 -1.1442  0.4692
 9353SOL    HW228744   3.405   3.081   6.421  1.3495 -0.4706  1.1314
 9354SOL     OW28745   2.472   5.698   3.668  0.4670 -0.3405 -0.1138
 9354SOL    HW128746   2.505   5.731   3.751  0.1032 -2.5010  0.9377
 9354SOL    HW228747   2.549   5.662   3.624  0.2250 -1.8111  0.6051
 9355SOL     OW28748   1.457   5.769   0.018 -0.0083  0.2543  0.1147
 9355SOL    HW128749   1.383   5.778  -0.042 -0.0571  0.1429  0.1581
 9355SOL    HW228750   1.492   5.681   0.000  1.0420  0.8683 -0.9668
 9356SOL     OW28751   0.663   4.229   2.452 -0.1410  0.1479  0.2296
 9356SOL    HW128752   0.698   4.315   2.475 -0.3013 -0.2347  1.9865
 9356SOL    HW228753   0.612   4.202   2.528 -3.2055  0.0805 -1.6376
 9357SOL     OW28754   2.508   5.478   5.881 -0.4239 -0.7054  0.6188
 9357SOL    HW128755   2.486   5.515   5.796 -0.6171  0.0907  1.0090
 9357SOL    HW228756   2.474   5.541   5.945  0.7814 -0.6842  1.2746
 9358SOL     OW28757   1.473   2.362   6.219 -0.3481  0.9101 -0.3080
 9358SOL    HW128758   1.454   2.369   6.126 -1.0053  1.9469 -0.1211
 9358SOL    HW228759   1.411   2.296   6.251  0.8983 -0.5738 -0.8396
 9359SOL     OW28760   6.309   1.114   2.442 -0.2987  0.7258 -0.0588
 9359SOL    HW128761   6.237   1.060   2.476  1.6776 -0.7642  2.0624
 9359SOL    HW228762   6.315   1.187   2.503  0.9181  0.0164  0.7100
 9360SOL     OW28763   2.106   6.842   3.322 -0.2909  0.3998 -0.3095
 9360SOL    HW128764   2.160   6.851   3.243 -0.2101 -3.8875 -0.9850
 9360SOL    HW228765   2.017   6.866   3.293 -0.2254 -0.9022 -1.7013
 9361SOL     OW28766   2.191   6.638   3.506  0.3731  0.1903 -0.2758
 9361SOL    HW128767   2.104   6.615   3.539  0.2124 -1.4226 -1.7408
 9361SOL    HW228768   2.174   6.704   3.439  0.3504  0.2629 -0.2007
 9362SOL     OW28769   6.285   1.915   0.300  0.0406 -0.5800  0.0400
 9362SOL    HW128770   6.362   1.943   0.350  0.0104 -1.7312  0.7617
 9362SOL    HW228771   6.215   1.974   0.329  1.0927  2.1137 -2.3787
 9363SOL     OW28772   0.991   0.931   1.679 -0.3514 -0.1031  0.2283
 9363SOL    HW128773   0.916   0.873   1.677  1.0332 -1.9639 -0.4295
 9363SOL    HW228774   0.996   0.968   1.590  1.1644 -2.3377 -0.7250
 9364SOL     OW28775   1.649   6.103   3.228  0.0625  0.2904 -0.0483
 9364SOL    HW128776   1.742   6.095   3.208  0.2908  0.3418  0.9770
 9364SOL    HW228777   1.608   6.036   3.173  0.6464  0.5582 -0.8332
 9365SOL     OW28778   5.706   5.589   2.646  0.5295 -0.0492  0.5460
 9365SOL    HW128779   5.700   5.505   2.692 -1.2031  1.0717  2.5033
 9365SOL    HW228780   5.800   5.609   2.644  0.7410 -0.6216  2.7516
 9366SOL     OW28781   0.362   0.920   5.886  0.0213 -0.1893  0.6149
 9366SOL    HW128782   0.432   0.986   5.884 -0.4426  0.3223  0.9375
 9366SOL    HW228783   0.364   0.885   5.975 -0.5732  0.3195  0.8366
 9367SOL     OW28784   6.449   3.946   4.579 -0.6857  0.0073  0.0855
 9367SOL    HW128785   6.527   3.898   4.606 -0.4914 -0.3458 -1.0174
 9367SOL    HW228786   6.450   4.026   4.631 -1.2393 -1.3349  2.2675
 9368SOL     OW28787   5.038   5.693   1.623  0.2127  0.2777 -0.2286
 9368SOL    HW128788   5.032   5.736   1.708  1.9810  0.9859 -0.4244
 9368SOL    HW228789   4.954   5.646   1.614 -0.4355  1.0394  1.4116
 9369SOL     OW28790   6.787   0.645   1.938  0.2458 -0.3610 -0.4629
 9369SOL    HW128791   6.767   0.719   1.880  0.1967 -2.5437 -3.4748
 9369SOL    HW228792   6.703   0.599   1.947  0.4753 -0.5969  0.6120
 9370SOL     OW28793   3.278   1.021   5.288  0.0894  0.0241  0.0770
 9370SOL    HW128794   3.259   0.933   5.254 -2.6899  1.0554 -1.3196
 9370SOL    HW228795   3.351   1.052   5.234 -0.2950 -0.6548 -0.8585
 9371SOL     OW28796   2.812   0.346   5.836 -0.0019 -0.1639 -0.1011
 9371SOL    HW128797   2.906   0.335   5.849  0.0639  1.0735  0.5696
 9371SOL    HW228798   2.804   0.432   5.794 -0.7777 -0.6448 -0.9659
 9372SOL     OW28799   4.184   4.087   4.515 -0.3488  0.0442 -0.4111
 9372SOL    HW128800   4.160   4.077   4.607 -1.4665 -3.3693 -0.9519
 9372SOL    HW228801   4.167   4.002   4.475 -0.3903  1.4965 -3.9364
 9373SOL     OW28802   6.415   6.653   0.827 -0.0166 -0.2794  0.7673
 9373SOL    HW128803   6.483   6.641   0.893 -0.9050 -0.2565  1.7066
 9373SOL    HW228804   6.416   6.572   0.776  0.9351 -0.1395  0.5514
 9374SOL     OW28805   0.457   2.198   6.828  0.1506 -0.6803  0.4155
 9374SOL    HW128806   0.406   2.274   6.799  0.1497 -0.4045  1.1080
 9374SOL    HW228807   0.547   2.219   6.803  0.1067 -0.5948  0.3256
 9375SOL     OW28808   5.485   5.789   0.416  0.0867 -0.0218 -0.1364
 9375SOL    HW128809   5.432   5.752   0.345  0.7901  0.4939 -0.9585
 9375SOL    HW228810   5.470   5.883   0.411  1.7061  0.2354 -0.9592
 9376SOL     OW28811   6.723   0.252   5.679  0.4899  0.0729 -0.1180
 9376SOL    HW128812   6.670   0.247   5.600 -0.1052 -1.3500  0.3359
 9376SOL    HW228813   6.812   0.235   5.650  0.1282 -1.6298 -0.3818
 9377SOL     OW28814   3.708   0.149   2.605 -0.1335 -0.2169  0.3913
 9377SOL    HW128815   3.671   0.061   2.601  0.1367 -0.4525  2.2423
 9377SOL    HW228816   3.802   0.137   2.593 -0.0883 -0.2104  0.7094
 9378SOL     OW28817   0.015   3.384   4.056  0.1622 -0.3800  0.0594
 9378SOL    HW128818   0.034   3.399   3.963 -1.1101 -0.1752 -0.1866
 9378SOL    HW228819   0.101   3.375   4.097  0.8625  2.1920 -0.6741
 9379SOL     OW28820   4.278   4.592   0.022 -0.1832 -0.6143 -0.1808
 9379SOL    HW128821   4.304   4.500   0.022  2.6161  0.0839 -0.4002
 9379SOL    HW228822   4.300   4.624   0.110  0.2227  0.1568 -0.5486
 9380SOL     OW28823   5.915   3.317   1.616 -0.0950 -0.3060 -0.1769
 9380SOL    HW128824   5.973   3.293   1.544  0.8391 -0.4363  0.5920
 9380SOL    HW228825   5.898   3.410   1.604 -1.0018 -0.5937 -1.2811
 9381SOL     OW28826   1.212   3.284   6.267 -0.0413  0.0533 -0.3991
 9381SOL    HW128827   1.136   3.234   6.237 -1.5636  0.2223  2.7304
 9381SOL    HW228828   1.285   3.223   6.261 -1.1582 -1.3650 -0.0512
 9382SOL     OW28829   0.728   4.327   2.190 -0.2081  0.0226 -0.5102
 9382SOL    HW128830   0.682   4.254   2.232  0.1433 -0.0857 -0.3145
 9382SOL    HW228831   0.678   4.343   2.109 -1.7085  1.1418  0.5799
 9383SOL     OW28832   1.143   5.780   3.186  0.4306 -0.3470  0.6376
 9383SOL    HW128833   1.213   5.834   3.224 -0.7377  1.4682  0.3656
 9383SOL    HW228834   1.157   5.785   3.092 -0.3003  0.4385  0.5523
 9384SOL     OW28835   6.314   1.088   4.317  0.9065  0.4754  0.3768
 9384SOL    HW128836   6.286   1.000   4.294 -1.5689  0.9086  1.3401
 9384SOL    HW228837   6.324   1.133   4.232 -0.3837 -0.0604 -0.0921
 9385SOL     OW28838   1.591   0.492   3.683  0.1930 -0.1482  0.4952
 9385SOL    HW128839   1.658   0.442   3.729  1.0995  0.2431 -0.3548
 9385SOL    HW228840   1.638   0.569   3.649 -0.3776 -0.5239 -1.2408
 9386SOL     OW28841   4.232   3.479   1.262  0.3222 -0.3462 -0.6492
 9386SOL    HW128842   4.189   3.405   1.304  1.5981 -0.4930  0.4790
 9386SOL    HW228843   4.188   3.489   1.178  0.4395 -2.7070 -1.0434
 9387SOL     OW28844   5.894   5.417   2.114 -0.0168  0.1957 -0.0347
 9387SOL    HW128845   5.968   5.443   2.058 -0.7201  0.5106 -0.8469
 9387SOL    HW228846   5.818   5.420   2.055 -0.5721 -0.8180  0.6056
 9388SOL     OW28847   3.006   6.718   1.610 -0.4526 -0.5903 -0.0564
 9388SOL    HW128848   3.087   6.766   1.592  0.1463 -0.0200  3.4079
 9388SOL    HW228849   2.942   6.786   1.631 -0.5817 -1.1079  1.3899
 9389SOL     OW28850   5.734   2.003   3.909  0.2443  0.2694 -0.2655
 9389SOL    HW128851   5.655   2.056   3.903  0.8382  1.0419 -1.8418
 9389SOL    HW228852   5.785   2.043   3.979  0.2445  1.1800 -0.7747
 9390SOL     OW28853   3.846   3.394   4.959  0.4427  0.2746  0.2568
 9390SOL    HW128854   3.809   3.370   4.875 -2.3664  1.4391  1.0411
 9390SOL    HW228855   3.867   3.487   4.950  1.0167  0.1798  0.5688
 9391SOL     OW28856   1.344   0.733   2.530  0.2194  0.1068  0.4006
 9391SOL    HW128857   1.411   0.767   2.589  0.7868  1.5940 -1.0238
 9391SOL    HW228858   1.263   0.774   2.559  0.0680 -0.9097  1.4965
 9392SOL     OW28859   5.427   3.755   4.212 -0.1261 -0.2246 -0.0931
 9392SOL    HW128860   5.440   3.672   4.259  0.5305  0.1788  0.4722
 9392SOL    HW228861   5.507   3.766   4.160  2.1991  2.3659  3.5215
 9393SOL     OW28862   1.315   5.688   6.291 -0.4421 -0.1675 -0.2013
 9393SOL    HW128863   1.242   5.737   6.252  0.7076  1.1419 -0.7770
 9393SOL    HW228864   1.348   5.745   6.360 -0.2276 -0.9570  0.3631
 9394SOL     OW28865   5.656   2.206   6.810  0.3389  0.2846 -0.4835
 9394SOL    HW128866   5.631   2.219   6.901  0.4619 -0.1788 -0.3799
 9394SOL    HW228867   5.575   2.179   6.767  0.4183 -0.1350 -0.3747
 9395SOL     OW28868   1.075   5.585   3.703  0.5893 -0.1230 -0.2591
 9395SOL    HW128869   1.024   5.623   3.631 -0.2758 -0.8319 -0.0403
 9395SOL    HW228870   1.115   5.507   3.665 -1.8143 -1.8939  0.5758
 9396SOL     OW28871   6.622   0.925   6.421 -0.1942 -0.2514  0.1735
 9396SOL    HW128872   6.562   0.857   6.391  0.7841 -0.7652 -0.6827
 9396SOL    HW228873   6.624   0.989   6.350  0.3753 -0.3195  0.1176
 9397SOL     OW28874   6.162   6.594   2.141  0.5885  0.4111 -0.2802
 9397SOL    HW128875   6.247   6.575   2.180 -0.5712  1.5126  3.0821
 9397SOL    HW228876   6.178   6.670   2.085  1.4144  2.4630  2.5260
 9398SOL     OW28877   2.953   2.868   6.682  0.1456 -0.5188 -0.2523
 9398SOL    HW128878   2.914   2.783   6.700  0.8505 -0.7886  0.0233
 9398SOL    HW228879   3.019   2.879   6.749 -1.2798  1.1585  0.9725
 9399SOL     OW28880   6.430   3.723   3.898 -0.2375 -0.1165 -0.1700
 9399SOL    HW128881   6.404   3.707   3.989 -0.2124 -1.5254 -0.3852
 9399SOL    HW228882   6.503   3.664   3.884  0.3291  0.7368 -0.8547
 9400SOL     OW28883   2.649   6.622   4.639  0.3407 -0.3721  0.4196
 9400SOL    HW128884   2.732   6.617   4.688  1.5673  0.7953 -1.4015
 9400SOL    HW228885   2.638   6.535   4.602  1.6155 -0.1555 -0.5615
 9401SOL     OW28886   0.295   3.051   0.087 -0.3230 -0.7434 -0.1441
 9401SOL    HW128887   0.338   2.969   0.063  0.6357 -0.2691 -0.1031
 9401SOL    HW228888   0.364   3.117   0.081 -0.7329 -0.1612  1.1884
 9402SOL     OW28889   1.181   1.106   6.691  0.0273  0.3864  0.1033
 9402SOL    HW128890   1.210   1.154   6.768 -1.7660  0.9016  0.5033
 9402SOL    HW228891   1.184   1.014   6.716 -0.4518  0.5466  0.7539
 9403SOL     OW28892   1.028   0.384   1.763  0.1165  0.1568 -0.3915
 9403SOL    HW128893   0.976   0.325   1.818  1.7170 -0.6517  0.3191
 9403SOL    HW228894   1.066   0.327   1.695  0.3189  0.6676 -0.7135
 9404SOL     OW28895   0.722   3.749   2.297  0.6213  0.5530  0.5124
 9404SOL    HW128896   0.688   3.660   2.291  0.4885  0.5892  0.7070
 9404SOL    HW228897   0.725   3.767   2.391  1.3781  0.4735  0.5110
 9405SOL     OW28898   4.517   5.262   5.344  0.0661 -1.2144 -0.0598
 9405SOL    HW128899   4.425   5.238   5.334 -0.4751 -0.5765  2.6942
 9405SOL    HW228900   4.526   5.286   5.436  1.8833  3.3309 -1.1249
 9406SOL     OW28901   5.051   4.535   3.797 -0.3719  0.0556  0.3384
 9406SOL    HW128902   5.047   4.630   3.804  0.4693  0.1219  0.0992
 9406SOL    HW228903   5.038   4.517   3.704  0.3526  0.0116  0.2347
 9407SOL     OW28904   3.157   1.484   5.531  0.4212  0.7563 -0.3501
 9407SOL    HW128905   3.162   1.461   5.624 -1.4265  0.9464 -0.1577
 9407SOL    HW228906   3.133   1.402   5.488 -0.3441  1.0153 -0.4312
 9408SOL     OW28907   3.856   6.251   1.709  0.6414 -0.2300  0.4512
 9408SOL    HW128908   3.804   6.175   1.733 -0.2431  0.6648  1.5006
 9408SOL    HW228909   3.843   6.261   1.615 -1.5254  0.2657  0.7515
 9409SOL     OW28910   5.001   2.035   1.017  0.1802  0.1950 -0.3125
 9409SOL    HW128911   5.091   2.041   1.049  0.4782 -1.2390 -0.8084
 9409SOL    HW228912   5.004   1.967   0.949 -1.3704 -0.2612  0.0364
 9410SOL     OW28913   0.080   5.277   3.293  0.5003  0.4920 -0.4588
 9410SOL    HW128914   0.147   5.228   3.244  1.0308 -0.2539  0.9631
 9410SOL    HW228915   0.002   5.222   3.288  0.6972  0.1678 -0.0649
 9411SOL     OW28916   3.011   1.106   5.269  0.0017 -0.5106  0.0609
 9411SOL    HW128917   2.984   1.018   5.243  0.3461 -0.7615  0.5513
 9411SOL    HW228918   3.106   1.107   5.259  0.1902 -0.7381  1.6619
 9412SOL     OW28919   6.561   1.205   0.386 -0.0168 -0.6560  0.0021
 9412SOL    HW128920   6.521   1.289   0.408  0.7033 -0.6027  1.1949
 9412SOL    HW228921   6.531   1.187   0.297 -0.1727  0.8695 -0.2847
 9413SOL     OW28922   3.891   2.876   4.961 -0.3833 -0.6987  0.4095
 9413SOL    HW128923   3.948   2.864   5.036 -0.7412  0.8718  0.9716
 9413SOL    HW228924   3.870   2.969   4.961 -0.0250 -0.5539 -1.9079
 9414SOL     OW28925   6.559   6.772   6.111  0.0865  0.3028  0.1125
 9414SOL    HW128926   6.561   6.850   6.165  0.4232  0.2118  0.2345
 9414SOL    HW228927   6.476   6.777   6.065  0.1358  0.7640  0.0694
 9415SOL     OW28928   5.138   3.178   6.424 -0.4949 -0.3982  0.4345
 9415SOL    HW128929   5.191   3.160   6.501  0.6780 -1.5199 -0.6065
 9415SOL    HW228930   5.047   3.173   6.456 -0.0744  2.1186  2.3696
 9416SOL     OW28931   3.622   4.720   3.127  0.1776  0.0225 -0.3367
 9416SOL    HW128932   3.705   4.711   3.175 -0.1726 -2.7152 -0.0719
 9416SOL    HW228933   3.562   4.760   3.189  0.9769  1.0050 -0.1647
 9417SOL     OW28934   1.131   6.873   2.934  0.4452  0.5728 -0.2889
 9417SOL    HW128935   1.181   6.807   2.981  0.1046  0.4412 -0.1052
 9417SOL    HW228936   1.162   6.868   2.844  0.1426 -0.1187 -0.3637
 9418SOL     OW28937   3.216   5.490   5.886 -0.3801 -0.0191  0.0513
 9418SOL    HW128938   3.149   5.532   5.940  0.1367  0.1671  0.5578
 9418SOL    HW228939   3.277   5.560   5.863 -0.7860 -0.0148 -1.1036
 9419SOL     OW28940   0.577   6.830   4.000 -0.3048  0.4446 -0.1293
 9419SOL    HW128941   0.490   6.819   3.961  0.1744  0.6870 -1.2998
 9419SOL    HW228942   0.604   6.918   3.973  0.5003  0.1954 -0.1483
 9420SOL     OW28943   6.565   0.671   3.486 -0.0200 -0.4571 -0.2431
 9420SOL    HW128944   6.603   0.707   3.405 -2.1647  0.3472 -0.9637
 9420SOL    HW228945   6.542   0.748   3.537  0.0538 -0.9506  0.5492
 9421SOL     OW28946   1.264   2.774   6.049 -0.4546  0.9520  0.1240
 9421SOL    HW128947   1.299   2.698   6.096 -0.2798  0.1119 -1.2943
 9421SOL    HW228948   1.176   2.786   6.085 -0.0518  0.8290  1.1957
 9422SOL     OW28949   1.414   4.935   3.914  0.0310 -0.6130  0.0298
 9422SOL    HW128950   1.481   4.868   3.924 -0.0497 -0.7858 -0.5342
 9422SOL    HW228951   1.357   4.902   3.844  1.6300  1.3277 -2.3216
 9423SOL     OW28952   2.184   2.811   5.565 -0.2595  0.1812  0.1610
 9423SOL    HW128953   2.211   2.774   5.649  0.4122 -0.1463 -0.1926
 9423SOL    HW228954   2.263   2.854   5.531 -0.6224  0.6212 -0.1362
 9424SOL     OW28955   6.796   3.862   4.570 -0.6236 -0.0952 -0.1880
 9424SOL    HW128956   6.756   3.874   4.484  0.5899 -2.2137 -1.1375
 9424SOL    HW228957   6.852   3.939   4.581 -1.0808  0.3951 -1.1189
 9425SOL     OW28958   4.634   0.998   0.901  0.2562 -0.5584  0.3032
 9425SOL    HW128959   4.639   0.938   0.826 -0.2132  0.0937 -0.2531
 9425SOL    HW228960   4.556   0.970   0.949  0.0097 -0.3540  0.0173
 9426SOL     OW28961   0.004   4.601   5.802 -0.1824 -0.3673 -0.2855
 9426SOL    HW128962   0.042   4.520   5.768  0.8083  0.2896 -0.8230
 9426SOL    HW228963   0.022   4.598   5.896 -0.2264 -0.8089 -0.2882
 9427SOL     OW28964   3.016   5.207   4.507  0.0504  0.1671 -0.2171
 9427SOL    HW128965   3.073   5.191   4.432  0.5339 -0.3962  0.2561
 9427SOL    HW228966   3.074   5.198   4.583 -0.0726  2.2621  0.1864
 9428SOL     OW28967   5.268   4.593   3.499  0.4251 -0.4343  0.2328
 9428SOL    HW128968   5.282   4.688   3.498  3.5013 -0.7202  2.2653
 9428SOL    HW228969   5.181   4.582   3.535 -0.7158  1.5833 -1.6410
 9429SOL     OW28970   0.041   6.170   3.182  0.0048 -0.1061 -0.2704
 9429SOL    HW128971  -0.034   6.188   3.125  1.0886  1.7716 -1.1660
 9429SOL    HW228972   0.002   6.136   3.263 -1.8030  0.7970 -0.7204
 9430SOL     OW28973   5.156   5.244   1.309 -0.2901  0.4810 -0.1220
 9430SOL    HW128974   5.225   5.281   1.364 -0.1314  0.2020 -0.1330
 9430SOL    HW228975   5.188   5.157   1.285  0.5074  1.2900 -2.1985
 9431SOL     OW28976   4.510   3.098   2.700  0.1947 -0.8218 -0.2769
 9431SOL    HW128977   4.573   3.169   2.714 -1.0744  0.7795 -2.2220
 9431SOL    HW228978   4.427   3.132   2.735 -0.4505 -1.3027 -1.2914
 9432SOL     OW28979   1.043   0.909   1.379  0.0366 -0.1604  0.6990
 9432SOL    HW128980   1.127   0.907   1.333 -0.2328  1.2078  0.0992
 9432SOL    HW228981   0.990   0.842   1.336  0.8847 -1.2229  1.2620
 9433SOL     OW28982   2.390   4.194   2.630 -0.2170 -0.1645 -0.9010
 9433SOL    HW128983   2.344   4.110   2.629 -2.6006  1.0715 -1.5113
 9433SOL    HW228984   2.328   4.256   2.669  1.3029  1.4316 -0.8618
 9434SOL     OW28985   6.688   4.505   0.235  0.4089 -0.0087  0.4858
 9434SOL    HW128986   6.667   4.561   0.309 -1.5030  1.5472 -1.1320
 9434SOL    HW228987   6.612   4.448   0.226  0.8430 -0.5226  0.0006
 9435SOL     OW28988   0.065   1.882   1.460  0.2536  0.2011  0.6274
 9435SOL    HW128989   0.099   1.851   1.544  0.3615 -0.6187  0.2954
 9435SOL    HW228990   0.013   1.959   1.481 -0.5703 -0.5941  1.5814
 9436SOL     OW28991   4.365   3.814   1.144 -0.1959  0.2122  0.7549
 9436SOL    HW128992   4.277   3.779   1.156 -0.3008 -0.5130 -1.6976
 9436SOL    HW228993   4.397   3.829   1.234 -2.7137  0.3667  1.7194
 9437SOL     OW28994   1.832   5.381   4.472  0.6555 -0.6926  0.5817
 9437SOL    HW128995   1.885   5.436   4.414  0.3335  0.6998  1.5699
 9437SOL    HW228996   1.811   5.304   4.419  2.0182 -0.3807 -0.4808
 9438SOL     OW28997   3.156   5.257   1.406  0.3176 -0.0902  0.2647
 9438SOL    HW128998   3.194   5.344   1.392 -0.4583  0.2138 -0.0083
 9438SOL    HW228999   3.072   5.274   1.448 -0.8683 -0.5434 -1.7536
 9439SOL     OW29000   4.289   0.913   2.102 -0.1597 -0.0086 -0.0091
 9439SOL    HW129001   4.286   0.996   2.150 -1.4087  1.3702 -2.2352
 9439SOL    HW229002   4.198   0.882   2.102 -0.1350 -0.1458 -1.1069
 9440SOL     OW29003   5.901   6.225   0.129  0.3211 -0.0287  0.2466
 9440SOL    HW129004   5.888   6.320   0.132  0.2515 -0.0547  2.7106
 9440SOL    HW229005   5.813   6.190   0.116  0.4526  0.2258 -1.5383
 9441SOL     OW29006   0.323   2.437   6.204  0.7200 -0.6916  0.1603
 9441SOL    HW129007   0.370   2.471   6.128  1.1514 -1.7466 -0.0639
 9441SOL    HW229008   0.264   2.371   6.168 -1.3577  0.9419  0.3667
 9442SOL     OW29009   1.207   4.989   1.509  0.2455  0.2572  0.3742
 9442SOL    HW129010   1.161   4.919   1.554 -1.8594  0.8015 -0.7865
 9442SOL    HW229011   1.232   5.050   1.579 -0.2147 -0.3842  1.1162
 9443SOL     OW29012   6.416   4.887   3.204  0.2621  0.1977  0.5452
 9443SOL    HW129013   6.355   4.926   3.266 -0.0199  0.9659 -0.1900
 9443SOL    HW229014   6.494   4.942   3.208  0.3848  0.0295  0.4890
 9444SOL     OW29015   2.021   2.293   5.398  0.3824 -0.3355 -0.1045
 9444SOL    HW129016   1.970   2.231   5.451 -0.4353  2.3207  2.4944
 9444SOL    HW229017   2.110   2.287   5.433 -0.1227  1.2966  1.5998
 9445SOL     OW29018   0.461   1.086   1.458 -0.1201  0.7820  0.0264
 9445SOL    HW129019   0.522   1.050   1.393 -1.0017 -0.3909 -0.1739
 9445SOL    HW229020   0.512   1.154   1.502  1.6150 -0.6754  0.4005
 9446SOL     OW29021   6.875   6.622   1.853 -0.1778 -0.4848 -0.1302
 9446SOL    HW129022   6.908   6.622   1.943 -2.8288  0.5947  0.9616
 9446SOL    HW229023   6.944   6.665   1.803  1.0964 -0.4845  1.5215
 9447SOL     OW29024   1.015   1.742   2.552 -0.4200  0.0930  0.1613
 9447SOL    HW129025   0.992   1.829   2.521 -2.5307 -0.6056 -0.4069
 9447SOL    HW229026   1.026   1.752   2.646  0.4223  1.1505 -0.0276
 9448SOL     OW29027   5.848   6.383   5.987 -0.2465 -0.0672 -0.5190
 9448SOL    HW129028   5.766   6.387   5.938  0.5078 -0.2595 -1.8176
 9448SOL    HW229029   5.892   6.306   5.953 -0.6538 -1.5360  2.0197
 9449SOL     OW29030   2.813   4.766   4.972 -0.3950 -0.0727 -0.1283
 9449SOL    HW129031   2.788   4.858   4.979 -1.7728 -0.4117 -0.2690
 9449SOL    HW229032   2.762   4.732   4.898  0.0820 -0.9535 -0.0740
 9450SOL     OW29033   1.579   6.543   2.472 -0.4107  0.0972  0.8952
 9450SOL    HW129034   1.509   6.526   2.410 -0.7538  0.1285  1.2659
 9450SOL    HW229035   1.660   6.529   2.423 -0.6716  0.7369  0.2679
 9451SOL     OW29036   5.591   6.137   3.074 -0.1642  0.4599  0.3734
 9451SOL    HW129037   5.598   6.231   3.054  0.2277  0.3297 -0.1123
 9451SOL    HW229038   5.545   6.099   2.999  1.4051 -0.0446 -0.3657
 9452SOL     OW29039   6.435   5.613   2.839 -0.1465  0.0728  0.3526
 9452SOL    HW129040   6.473   5.533   2.874  2.4764  1.5222  1.1308
 9452SOL    HW229041   6.444   5.605   2.744  1.2445 -0.0906  0.4738
 9453SOL     OW29042   4.193   1.235   1.903 -0.0387  0.2119 -0.6297
 9453SOL    HW129043   4.287   1.228   1.889  0.1130  0.4534  0.2033
 9453SOL    HW229044   4.181   1.318   1.950 -0.5044 -0.4508  0.4735
 9454SOL     OW29045   0.764   0.487   4.749 -0.2004  0.2980  0.5584
 9454SOL    HW129046   0.733   0.562   4.699 -1.0748  0.6084  1.5309
 9454SOL    HW229047   0.859   0.499   4.755 -0.1996  0.7421 -0.2100
 9455SOL     OW29048   4.209   1.753   3.174  0.2031 -0.3144 -0.2317
 9455SOL    HW129049   4.171   1.668   3.197  0.4486 -0.2200  0.5573
 9455SOL    HW229050   4.301   1.744   3.198  0.8959 -0.7854 -2.7550
 9456SOL     OW29051   6.358   0.786   2.528  0.5002  0.4833 -0.4042
 9456SOL    HW129052   6.343   0.719   2.461 -0.5261  1.3906 -1.1351
 9456SOL    HW229053   6.283   0.845   2.519  0.1077  0.4135  1.8475
 9457SOL     OW29054   2.106   0.362   5.275  0.3584 -0.3347 -0.6530
 9457SOL    HW129055   2.088   0.416   5.352 -0.3210 -0.9738 -0.3509
 9457SOL    HW229056   2.189   0.396   5.241 -0.3839  1.3397 -0.8809
 9458SOL     OW29057   4.729   4.517   5.946  0.6685 -0.5972  0.3659
 9458SOL    HW129058   4.766   4.429   5.940  0.3101 -0.7442  0.2888
 9458SOL    HW229059   4.744   4.543   6.036  0.4688 -0.8742  0.4808
 9459SOL     OW29060   4.158   2.889   1.710 -0.1223 -0.3649  0.1006
 9459SOL    HW129061   4.141   2.841   1.629  1.0212  0.4109 -0.6336
 9459SOL    HW229062   4.253   2.902   1.711 -0.2019  0.2678  1.2005
 9460SOL     OW29063   6.754   5.262   3.036  0.4154 -0.0951 -0.2400
 9460SOL    HW129064   6.778   5.349   3.070  1.7444 -1.4218  2.5710
 9460SOL    HW229065   6.665   5.273   3.003  0.4540  2.2654  0.2582
 9461SOL     OW29066   4.503   0.738   0.924  1.0782 -0.3001 -0.1009
 9461SOL    HW129067   4.413   0.770   0.939  0.6979 -1.0271 -0.7502
 9461SOL    HW229068   4.530   0.702   1.009  1.4277  1.4775  0.5873
 9462SOL     OW29069   2.711   5.921   4.074 -0.8406 -0.1515 -0.1562
 9462SOL    HW129070   2.671   5.977   4.140  2.7011  2.0307  0.4050
 9462SOL    HW229071   2.711   5.834   4.113 -2.0611  0.3717  1.1058
 9463SOL     OW29072   3.452   5.233   4.589 -0.5695  0.4691 -0.5106
 9463SOL    HW129073   3.474   5.142   4.606  0.2475  0.9281  1.1056
 9463SOL    HW229074   3.408   5.262   4.669  0.7396  1.9409 -0.2665
 9464SOL     OW29075   6.809   1.925   2.369 -0.0422  0.1816 -0.3342
 9464SOL    HW129076   6.841   2.007   2.331 -1.8934  1.9830  1.7036
 9464SOL    HW229077   6.741   1.895   2.309 -2.4454  2.6211  0.9408
 9465SOL     OW29078   6.722   4.069   0.972  0.3638 -0.1362  0.0090
 9465SOL    HW129079   6.745   4.109   1.056  1.1732  0.0988 -0.3200
 9465SOL    HW229080   6.716   3.975   0.990 -0.6146  0.0217  0.5793
 9466SOL     OW29081   4.473   1.498   0.484  0.1123 -0.2143 -0.2355
 9466SOL    HW129082   4.406   1.476   0.421 -0.4433 -0.0821  0.3004
 9466SOL    HW229083   4.449   1.586   0.515  2.8632  1.8036 -3.1491
 9467SOL     OW29084   5.647   0.533   4.620 -0.7032 -0.1422  0.3630
 9467SOL    HW129085   5.640   0.521   4.526 -0.5957  0.6632  0.2455
 9467SOL    HW229086   5.731   0.494   4.643  0.6510  2.1567 -0.3400
 9468SOL     OW29087   0.579   4.174   5.222 -0.0467 -0.5404  0.0743
 9468SOL    HW129088   0.663   4.158   5.177  0.2249 -0.3293  0.5048
 9468SOL    HW229089   0.560   4.092   5.268 -1.4006 -1.5542 -2.1046
 9469SOL     OW29090   3.196   4.091   3.308 -0.1406 -0.3073 -0.2133
 9469SOL    HW129091   3.280   4.137   3.317  0.8752 -2.0549 -0.3063
 9469SOL    HW229092   3.219   4.009   3.265 -1.9915 -0.6277 -0.6513
 9470SOL     OW29093   4.718   6.806   3.008  0.0722 -0.5076 -0.3425
 9470SOL    HW129094   4.760   6.869   2.951 -0.9864  1.1319  0.5869
 9470SOL    HW229095   4.785   6.740   3.026  1.4007  0.6451 -0.9094
 9471SOL     OW29096   5.326   5.972   4.201  1.0316 -0.2576 -0.1966
 9471SOL    HW129097   5.281   5.888   4.198  0.9857 -0.2602 -3.5702
 9471SOL    HW229098   5.262   6.035   4.169  2.0223  0.4879 -0.7787
 9472SOL     OW29099   6.064   5.336   3.378  0.3515  0.1860  0.3361
 9472SOL    HW129100   6.043   5.422   3.416  0.8855  0.0396  0.9809
 9472SOL    HW229101   6.143   5.351   3.326  0.1311  0.1990  0.0047
 9473SOL     OW29102   4.947   4.448   6.180 -0.0936 -0.2279  0.5019
 9473SOL    HW129103   4.870   4.442   6.237 -1.8413  0.8798 -1.6130
 9473SOL    HW229104   5.015   4.398   6.226 -2.1313 -1.4676  2.3292
 9474SOL     OW29105   0.384   0.619   3.501  0.0254  0.3841  0.4972
 9474SOL    HW129106   0.389   0.543   3.443 -1.8917  0.1730  0.5564
 9474SOL    HW229107   0.389   0.694   3.442  0.7506  0.2047  0.3251
 9475SOL     OW29108   3.414   4.324   2.491  0.6340  0.1522 -0.2566
 9475SOL    HW129109   3.445   4.234   2.483  0.3039 -0.0213  0.3415
 9475SOL    HW229110   3.473   4.364   2.554  0.9738  0.4533 -0.7554
 9476SOL     OW29111   3.851   1.862   5.051  0.5946  0.4100  0.7766
 9476SOL    HW129112   3.858   1.951   5.017  1.0314  0.9411  2.1802
 9476SOL    HW229113   3.934   1.820   5.027  0.6354  0.5732  0.6311
 9477SOL     OW29114   2.191   4.819   2.807  0.1307 -0.2381 -0.2483
 9477SOL    HW129115   2.244   4.747   2.841 -1.5636 -1.4104  0.0226
 9477SOL    HW229116   2.137   4.779   2.739 -0.2239  0.9758 -0.6982
 9478SOL     OW29117   5.883   2.113   3.171 -0.3942  0.0440  0.1858
 9478SOL    HW129118   5.852   2.028   3.138 -1.4127  0.8415 -1.0169
 9478SOL    HW229119   5.840   2.122   3.256  0.0846 -0.8295  0.5367
 9479SOL     OW29120   5.694   5.337   6.132 -0.2419 -0.4558 -0.1025
 9479SOL    HW129121   5.639   5.416   6.136  0.0087 -0.2912  0.2208
 9479SOL    HW229122   5.646   5.277   6.076  0.6384  0.7743 -2.2933
 9480SOL     OW29123   4.835   0.332   0.067 -0.3255 -0.2558 -0.2228
 9480SOL    HW129124   4.835   0.349  -0.027  0.1458  0.0627 -0.1669
 9480SOL    HW229125   4.900   0.263   0.080 -1.5354 -1.4516 -0.3227
 9481SOL     OW29126   1.469   2.187   3.633  0.0055 -0.3278 -0.2308
 9481SOL    HW129127   1.523   2.107   3.634  1.0981  0.3824 -0.4099
 9481SOL    HW229128   1.425   2.187   3.718 -3.1381 -3.1124 -1.6280
 9482SOL     OW29129   2.812   1.788   0.302  0.5102 -0.2001 -0.0989
 9482SOL    HW129130   2.760   1.843   0.243 -0.5425  1.3245  2.1087
 9482SOL    HW229131   2.769   1.703   0.300  0.3591 -0.1097 -1.3381
 9483SOL     OW29132   2.133   1.816   6.106 -0.1124 -0.5372 -0.0037
 9483SOL    HW129133   2.112   1.740   6.053 -0.4986 -0.0425 -0.5766
 9483SOL    HW229134   2.095   1.890   6.058  1.7642  0.2347 -0.3767
 9484SOL     OW29135   3.220   3.874   3.147  0.5440  0.1065  0.5284
 9484SOL    HW129136   3.292   3.811   3.158  0.5780 -0.0938 -0.6776
 9484SOL    HW229137   3.145   3.833   3.190  1.2704  0.5911  2.3426
 9485SOL     OW29138   4.764   0.541   5.020 -0.0876  0.4550 -0.1802
 9485SOL    HW129139   4.798   0.546   5.110  1.9112  1.4351 -0.9304
 9485SOL    HW229140   4.690   0.602   5.019 -0.4793  0.0299  0.9091
 9486SOL     OW29141   0.843   2.596   6.267  0.4236 -0.4390  0.2033
 9486SOL    HW129142   0.765   2.626   6.221  0.4822 -0.7996 -0.1308
 9486SOL    HW229143   0.812   2.528   6.326  0.2633  0.3702  1.0847
 9487SOL     OW29144   2.223   6.582   5.654 -0.2709 -0.2804 -0.1670
 9487SOL    HW129145   2.273   6.644   5.601  0.5474  0.4950  1.4312
 9487SOL    HW229146   2.157   6.636   5.698  0.6690 -0.4360  1.5073
 9488SOL     OW29147   6.304   3.640   3.662 -0.0854  0.3289 -0.5417
 9488SOL    HW129148   6.383   3.587   3.645 -0.1074 -0.0571  0.4782
 9488SOL    HW229149   6.322   3.683   3.746 -0.2022  1.7233 -1.2060
 9489SOL     OW29150   1.725   2.279   5.463 -0.6569  0.4640 -0.3392
 9489SOL    HW129151   1.758   2.368   5.477  3.4074 -0.8361 -0.3513
 9489SOL    HW229152   1.746   2.260   5.371 -0.0258 -0.9759  0.0708
 9490SOL     OW29153   5.506   6.255   1.930 -0.1118  0.2144  0.0410
 9490SOL    HW129154   5.472   6.188   1.990 -0.2951 -1.5806 -1.9530
 9490SOL    HW229155   5.432   6.314   1.915 -0.5444 -0.2503  0.3155
 9491SOL     OW29156   5.695   6.411   0.819  0.0488  0.3575  0.5659
 9491SOL    HW129157   5.738   6.421   0.903  1.0449  0.1084  0.1032
 9491SOL    HW229158   5.738   6.336   0.778 -1.4541 -0.4855  0.4513
 9492SOL     OW29159   1.063   3.272   3.408  0.2563  0.3199  0.7017
 9492SOL    HW129160   1.035   3.300   3.321  0.1604  0.2985  0.7254
 9492SOL    HW229161   1.151   3.308   3.418 -0.3033  1.6306  1.1983
 9493SOL     OW29162   3.875   1.089   2.436 -0.5980  0.0547 -0.2426
 9493SOL    HW129163   3.877   1.185   2.440 -0.1813  0.1919 -2.5410
 9493SOL    HW229164   3.816   1.069   2.364  0.7073 -1.3572 -0.9600
 9494SOL     OW29165   2.448   4.373   0.532 -0.0352  0.0118 -0.1600
 9494SOL    HW129166   2.426   4.437   0.464  1.1401 -0.2642 -0.8154
 9494SOL    HW229167   2.534   4.400   0.563  0.3328 -1.0580 -0.2298
 9495SOL     OW29168   3.737   4.564   2.838  0.4495  0.0823  0.6558
 9495SOL    HW129169   3.676   4.632   2.810 -0.3750 -0.5925  0.7859
 9495SOL    HW229170   3.823   4.596   2.809  0.0424  1.0267  0.4446
 9496SOL     OW29171   0.820   3.965   4.886  0.5700  0.5606 -0.0879
 9496SOL    HW129172   0.786   3.875   4.880 -1.6829  1.0181  3.0578
 9496SOL    HW229173   0.909   3.959   4.853  0.5591 -2.8925  0.1384
 9497SOL     OW29174   1.894   6.313   2.892  0.6247 -0.1913  0.0609
 9497SOL    HW129175   1.800   6.296   2.901  0.5440  0.9534  1.6211
 9497SOL    HW229176   1.908   6.312   2.797 -0.6905 -1.6747 -0.1773
 9498SOL     OW29177   1.293   3.387   1.026  0.0680  0.2748  0.5954
 9498SOL    HW129178   1.291   3.314   1.087  0.0020  0.5232  0.8916
 9498SOL    HW229179   1.201   3.397   0.999 -0.0554  0.7659  1.1769
 9499SOL     OW29180   4.776   3.125   2.868  0.6993  1.0075  0.3246
 9499SOL    HW129181   4.715   3.057   2.897 -3.2197  4.1902  0.3797
 9499SOL    HW229182   4.812   3.161   2.949  0.1585  1.1873  0.4874
 9500SOL     OW29183   5.143   5.413   0.413 -0.4116  0.4030 -0.1465
 9500SOL    HW129184   5.193   5.438   0.336 -0.6503 -0.5011 -0.6086
 9500SOL    HW229185   5.100   5.331   0.389  0.1943 -0.3537  1.2372
 9501SOL     OW29186   6.664   2.634   3.820 -0.6103  1.4871  0.5540
 9501SOL    HW129187   6.645   2.666   3.732 -0.9265  2.5360  0.9883
 9501SOL    HW229188   6.745   2.678   3.844  1.9610 -2.0461 -0.8166
 9502SOL     OW29189   3.853   0.189   1.462  0.3034  0.2615  0.6838
 9502SOL    HW129190   3.840   0.179   1.557 -0.0998 -2.9897  0.4052
 9502SOL    HW229191   3.932   0.137   1.444 -0.5310 -0.4808 -0.9560
 9503SOL     OW29192   3.982   0.383   2.894 -0.0711  0.3784  0.1750
 9503SOL    HW129193   4.041   0.412   2.964 -2.3192 -1.6396  3.1876
 9503SOL    HW229194   3.895   0.382   2.935 -1.6067 -0.5432 -2.8150
 9504SOL     OW29195   3.692   6.691   3.620 -0.4696  0.0296 -0.3994
 9504SOL    HW129196   3.599   6.716   3.624 -0.7272  0.2264 -3.9282
 9504SOL    HW229197   3.739   6.767   3.655 -1.5934  0.9740 -0.8711
 9505SOL     OW29198   4.951   4.039   1.781 -0.2744 -0.7383 -0.1943
 9505SOL    HW129199   5.039   4.077   1.781 -1.0448  1.1588  0.5353
 9505SOL    HW229200   4.932   4.023   1.689 -0.2538  1.5962 -0.6664
 9506SOL     OW29201   3.281   2.104   3.921 -0.2810 -0.1026  0.1932
 9506SOL    HW129202   3.307   2.026   3.871 -1.4051 -1.2501  1.3230
 9506SOL    HW229203   3.186   2.109   3.908 -0.4503  0.1185  1.4571
 9507SOL     OW29204   5.636   6.142   0.073  0.0688  0.0578 -0.6038
 9507SOL    HW129205   5.555   6.178   0.109 -0.3005 -0.7417 -0.6052
 9507SOL    HW229206   5.626   6.152  -0.022  0.2367  0.4981 -0.5775
 9508SOL     OW29207   3.039   2.083   5.135 -0.1563  0.1807  0.3143
 9508SOL    HW129208   3.029   2.034   5.053 -2.0238 -0.4611  0.8832
 9508SOL    HW229209   2.953   2.122   5.150  0.1894  0.3643  1.9283
 9509SOL     OW29210   5.677   5.848   4.893 -0.1750  0.3986  0.1905
 9509SOL    HW129211   5.628   5.928   4.872 -3.1562 -1.2032  0.4224
 9509SOL    HW229212   5.716   5.822   4.810  1.6468  2.4868  0.2961
 9510SOL     OW29213   2.187   3.121   0.115 -0.1160  0.6495 -0.2550
 9510SOL    HW129214   2.195   3.145   0.207 -0.0724  0.1897 -0.1385
 9510SOL    HW229215   2.198   3.026   0.113 -0.8444  0.5641 -0.6479
 9511SOL     OW29216   5.292   5.573   3.783  0.7015 -1.2075  0.2977
 9511SOL    HW129217   5.297   5.531   3.697  0.6026 -0.4752 -0.0826
 9511SOL    HW229218   5.265   5.663   3.763 -0.8347 -1.4255  1.2162
 9512SOL     OW29219   1.814   4.005   2.858 -0.1825  0.3764 -0.9271
 9512SOL    HW129220   1.753   4.038   2.792 -0.4932  0.6621 -0.5043
 9512SOL    HW229221   1.897   4.047   2.837 -0.0791 -0.1299 -1.5992
 9513SOL     OW29222   5.554   2.619   5.746 -0.4789 -0.1277 -0.2561
 9513SOL    HW129223   5.615   2.681   5.707  0.2138 -0.0020  0.9883
 9513SOL    HW229224   5.608   2.546   5.776 -1.0776 -0.5438 -0.1608
 9514SOL     OW29225   0.283   4.418   3.474  0.3299 -0.0332  0.1548
 9514SOL    HW129226   0.342   4.493   3.484 -0.4194  0.2727  3.3706
 9514SOL    HW229227   0.200   4.457   3.447  0.6365 -0.0747 -0.9068
 9515SOL     OW29228   4.498   4.190   3.015 -0.0939  0.0971 -0.4695
 9515SOL    HW129229   4.446   4.157   3.088  0.6935 -1.7720 -0.7120
 9515SOL    HW229230   4.462   4.277   2.998 -2.1167 -0.5121  0.3641
 9516SOL     OW29231   0.450   3.539   4.635 -0.5231 -0.0723 -0.7547
 9516SOL    HW129232   0.393   3.593   4.580 -0.2702  0.8899 -0.0863
 9516SOL    HW229233   0.517   3.599   4.668  0.2747 -0.9721 -0.6835
 9517SOL     OW29234   5.599   3.948   4.434  0.0097 -0.6231  0.2308
 9517SOL    HW129235   5.603   3.855   4.456 -1.0785 -0.9740 -0.9316
 9517SOL    HW229236   5.632   3.952   4.344 -1.0969 -0.0606 -0.1615
 9518SOL     OW29237   5.840   4.933   3.753  0.0368  0.1933  0.0331
 9518SOL    HW129238   5.904   4.862   3.752 -0.0584  0.1090 -0.0549
 9518SOL    HW229239   5.757   4.892   3.731  0.3527  0.6860 -2.3156
 9519SOL     OW29240   4.746   2.476   4.313 -0.3595  0.3817 -0.5205
 9519SOL    HW129241   4.723   2.384   4.311  0.7136  0.1054 -1.1036
 9519SOL    HW229242   4.750   2.498   4.406 -0.3236 -0.2394 -0.3700
 9520SOL     OW29243   2.137   4.330   2.636 -0.0612  0.7839  0.6382
 9520SOL    HW129244   2.106   4.404   2.689 -1.8480 -0.4272  1.3567
 9520SOL    HW229245   2.104   4.348   2.548  0.2288  1.2263  0.6121
 9521SOL     OW29246   6.384   2.716   2.320  0.0692  0.5148  0.0563
 9521SOL    HW129247   6.460   2.659   2.307  0.7600  1.4782 -0.1937
 9521SOL    HW229248   6.331   2.671   2.386  0.9940 -0.0298  0.4359
 9522SOL     OW29249   2.524   0.773   3.484  0.0265 -0.2835 -0.3652
 9522SOL    HW129250   2.504   0.866   3.493  0.3259 -0.1877 -0.6415
 9522SOL    HW229251   2.543   0.743   3.573 -1.8785 -0.5209 -0.0104
 9523SOL     OW29252   1.533   1.661   0.759  0.4454  0.4629  0.4994
 9523SOL    HW129253   1.558   1.633   0.671 -1.1135  0.0739  0.1448
 9523SOL    HW229254   1.607   1.637   0.814  0.3492 -1.8292 -0.2505
 9524SOL     OW29255   5.742   0.146   2.464 -0.2606 -0.2283 -0.3969
 9524SOL    HW129256   5.769   0.165   2.374 -2.0277  1.3393 -0.6504
 9524SOL    HW229257   5.734   0.051   2.467  2.7868 -0.6117 -0.9521
 9525SOL     OW29258   3.428   2.604   1.817  0.0479  0.0479 -0.0437
 9525SOL    HW129259   3.483   2.527   1.827 -0.5691 -0.4521 -0.4671
 9525SOL    HW229260   3.353   2.575   1.764 -0.6347  0.7113  0.5292
 9526SOL     OW29261   5.782   4.576   1.685  0.0165  0.3469  0.3668
 9526SOL    HW129262   5.726   4.631   1.630  1.1529  1.6341  0.4441
 9526SOL    HW229263   5.871   4.608   1.669  0.7159 -1.4160  0.5064
 9527SOL     OW29264   5.988   5.407   1.388  0.1891 -0.2543 -0.2586
 9527SOL    HW129265   5.936   5.374   1.462 -1.1377  1.2386 -0.4633
 9527SOL    HW229266   6.060   5.455   1.429  0.5068 -0.9550  0.0314
 9528SOL     OW29267   6.303   1.941   3.906  0.3747  0.0050  0.7460
 9528SOL    HW129268   6.384   1.892   3.895  0.1329 -0.7978  2.2137
 9528SOL    HW229269   6.328   2.018   3.957  0.5146  0.7379 -0.3949
 9529SOL     OW29270   5.209   1.994   3.596  0.1180 -0.3068 -0.6192
 9529SOL    HW129271   5.205   1.916   3.652 -1.9799 -0.6421 -1.1690
 9529SOL    HW229272   5.123   2.034   3.605  0.0964  0.2301 -2.7456
 9530SOL     OW29273   0.048   5.245   0.025 -0.1383 -0.3926 -0.0146
 9530SOL    HW129274   0.041   5.149   0.024 -0.8986 -0.3431 -0.7614
 9530SOL    HW229275   0.102   5.266  -0.050 -0.4035 -0.2112 -0.1569
 9531SOL     OW29276   6.526   3.979   5.102  0.6141 -0.6008  0.6481
 9531SOL    HW129277   6.491   3.999   5.189 -1.7984  2.3194 -0.7987
 9531SOL    HW229278   6.486   3.895   5.078 -0.1544 -0.5366  1.6598
 9532SOL     OW29279   4.362   3.232   2.177  0.7555 -0.1756  0.1412
 9532SOL    HW129280   4.346   3.184   2.095 -0.1686 -0.6086  0.5589
 9532SOL    HW229281   4.453   3.212   2.199  0.7721 -0.7000 -0.3697
 9533SOL     OW29282   4.397   0.345   3.043 -0.4847  0.7021  0.1628
 9533SOL    HW129283   4.341   0.322   3.117  0.7961 -0.8759  0.7097
 9533SOL    HW229284   4.437   0.428   3.069 -0.8722  0.7085  0.7685
 9534SOL     OW29285   1.245   4.784   5.612  0.5630  0.4246  0.0187
 9534SOL    HW129286   1.167   4.785   5.667  0.4951 -0.2915 -0.0505
 9534SOL    HW229287   1.273   4.875   5.607  0.3790  0.5381  0.9606
 9535SOL     OW29288   6.138   0.815   2.078  0.4843 -0.0248 -0.4646
 9535SOL    HW129289   6.144   0.782   1.988  1.9043 -0.5022 -0.2207
 9535SOL    HW229290   6.125   0.737   2.131 -1.2549  0.3420 -0.3052
 9536SOL     OW29291   3.634   0.274   3.845 -0.0618  0.1276 -0.3600
 9536SOL    HW129292   3.681   0.206   3.796  0.6648  1.0864 -1.0217
 9536SOL    HW229293   3.543   0.265   3.818  0.3696  0.8490 -2.1860
 9537SOL     OW29294   3.770   3.542   5.847  0.6591  0.0742  0.0895
 9537SOL    HW129295   3.687   3.584   5.825  0.4090 -0.2344  0.4327
 9537SOL    HW229296   3.814   3.532   5.763  1.0048  1.5994  0.0794
 9538SOL     OW29297   6.102   2.122   1.732 -0.0813  0.0641  0.4799
 9538SOL    HW129298   6.137   2.085   1.814 -0.1498  0.0694  0.5112
 9538SOL    HW229299   6.065   2.206   1.757  0.9431  0.5994  0.2395
 9539SOL     OW29300   2.674   4.500   0.878 -0.1414 -0.0585 -0.4111
 9539SOL    HW129301   2.717   4.565   0.935 -0.4127 -0.6149  0.4550
 9539SOL    HW229302   2.592   4.480   0.923 -0.0714 -0.9866 -0.6776
 9540SOL     OW29303   1.251   1.189   0.052  0.1726 -0.0310 -0.6367
 9540SOL    HW129304   1.183   1.257   0.058  0.8699  0.5582  1.2981
 9540SOL    HW229305   1.245   1.142   0.135  0.7401 -1.3560 -1.3179
 9541SOL     OW29306   2.603   1.382   0.021  0.2655  0.4429 -0.2508
 9541SOL    HW129307   2.610   1.302   0.072  0.6283  0.0079 -0.9736
 9541SOL    HW229308   2.647   1.363  -0.061 -1.1813  0.7918 -1.1541
 9542SOL     OW29309   1.632   6.183   1.591  0.6528 -0.3862  0.1152
 9542SOL    HW129310   1.720   6.167   1.558  0.2796 -0.4546 -0.8954
 9542SOL    HW229311   1.578   6.116   1.548 -0.0585  0.2808 -0.0519
 9543SOL     OW29312   0.045   6.798   6.746 -0.1325 -0.2783 -0.1239
 9543SOL    HW129313   0.113   6.865   6.741 -0.5209  0.0640 -1.1860
 9543SOL    HW229314   0.090   6.717   6.720  0.2729 -0.4054  0.9039
 9544SOL     OW29315   6.275   5.332   5.447  0.1226  0.3275 -0.3032
 9544SOL    HW129316   6.307   5.247   5.418 -0.3918  0.1553 -0.3733
 9544SOL    HW229317   6.180   5.326   5.440 -0.3575 -0.7874  4.0753
 9545SOL     OW29318   4.761   5.266   6.696 -0.3002  0.2651  0.0115
 9545SOL    HW129319   4.694   5.260   6.628 -2.5742  1.4610  2.0120
 9545SOL    HW229320   4.824   5.197   6.674 -0.8224  0.6701 -3.3183
 9546SOL     OW29321   0.619   3.264   4.530 -0.1865 -1.0103 -0.7515
 9546SOL    HW129322   0.668   3.206   4.588 -0.8695 -3.4136 -2.4410
 9546SOL    HW229323   0.680   3.282   4.457 -0.1460  0.0782 -0.4732
 9547SOL     OW29324   5.519   5.426   4.841  0.1663 -0.0195  0.3326
 9547SOL    HW129325   5.540   5.385   4.925  3.5652  1.9858  0.6227
 9547SOL    HW229326   5.487   5.513   4.864  0.2399  0.2140 -0.4324
 9548SOL     OW29327   6.538   2.055   2.704  0.0214 -0.0164  0.0113
 9548SOL    HW129328   6.611   1.994   2.704  0.6331  0.6935 -0.5757
 9548SOL    HW229329   6.544   2.101   2.620 -0.8701  0.3225  0.1142
 9549SOL     OW29330   4.680   4.655   2.929 -0.3614  0.2848 -0.0513
 9549SOL    HW129331   4.755   4.597   2.920 -0.5235  0.0909 -0.1475
 9549SOL    HW229332   4.647   4.639   3.018  0.7516  1.6167  0.6399
 9550SOL     OW29333   3.802   2.105   4.917  0.0148 -0.9318  0.5923
 9550SOL    HW129334   3.735   2.062   4.863 -1.4534 -1.0362  2.3909
 9550SOL    HW229335   3.856   2.153   4.854 -3.9875  2.3138 -0.8286
 9551SOL     OW29336   1.493   6.085   3.613 -0.0364  0.2450  0.3676
 9551SOL    HW129337   1.418   6.057   3.561 -0.7011  1.5592  0.5727
 9551SOL    HW229338   1.521   6.006   3.660  0.2996 -0.8511 -1.5955
 9552SOL     OW29339   1.452   0.871   3.415  0.1677 -0.1733 -0.5220
 9552SOL    HW129340   1.529   0.928   3.414  0.1894 -0.2018 -0.5147
 9552SOL    HW229341   1.380   0.927   3.388 -0.4310  0.7391  2.6548
 9553SOL     OW29342   2.271   1.848   4.789  0.3129 -0.4052 -0.7775
 9553SOL    HW129343   2.331   1.795   4.841  0.0229  0.8521  0.9422
 9553SOL    HW229344   2.190   1.848   4.840  0.2093  1.3506 -0.8935
 9554SOL     OW29345   4.955   0.330   3.382 -0.2565 -0.1053 -0.1491
 9554SOL    HW129346   4.925   0.300   3.468 -0.3141 -0.8995 -0.4365
 9554SOL    HW229347   4.875   0.350   3.334 -0.2193  0.4651  0.0245
 9555SOL     OW29348   4.305   5.093   2.090  0.0301 -0.2591  0.4380
 9555SOL    HW129349   4.285   5.101   1.996  1.4969  0.5409  0.1648
 9555SOL    HW229350   4.234   5.139   2.133 -1.0737 -1.2857 -0.2258
 9556SOL     OW29351   1.956   4.694   6.108  0.6613  0.1115  0.1793
 9556SOL    HW129352   1.891   4.764   6.098 -0.1921 -0.8256 -1.2551
 9556SOL    HW229353   1.984   4.700   6.199 -0.9404  0.9977  0.6568
 9557SOL     OW29354   0.163   4.547   0.453  0.3479 -0.4061  0.4140
 9557SOL    HW129355   0.120   4.598   0.384 -0.6587 -1.2197  0.4107
 9557SOL    HW229356   0.244   4.515   0.413  1.4527  1.8611  0.6828
 9558SOL     OW29357   2.554   5.565   1.301 -0.0814  0.2279  0.0597
 9558SOL    HW129358   2.639   5.608   1.311 -0.3725  1.1732 -1.2583
 9558SOL    HW229359   2.512   5.610   1.227 -1.1103 -1.2158 -0.2959
 9559SOL     OW29360   1.484   2.109   1.161 -0.4470  0.1562  0.7852
 9559SOL    HW129361   1.412   2.168   1.139  0.5387  1.1400  0.1152
 9559SOL    HW229362   1.441   2.034   1.204 -1.6584  1.6854  2.3878
 9560SOL     OW29363   2.343   2.966   0.429  0.5283 -0.6354  0.3409
 9560SOL    HW129364   2.300   2.892   0.385 -0.3539 -1.0952  1.9095
 9560SOL    HW229365   2.284   3.040   0.414 -0.6628 -1.1654  2.1054
 9561SOL     OW29366   3.333   5.255   5.335  0.2977  0.3987  0.0861
 9561SOL    HW129367   3.299   5.332   5.381  1.4250  1.3814 -0.6612
 9561SOL    HW229368   3.406   5.225   5.389 -0.3601 -0.3738  0.5584
 9562SOL     OW29369   6.726   4.571   1.580 -0.2999  0.2048  0.1520
 9562SOL    HW129370   6.726   4.648   1.524  1.0637  0.6365  0.7123
 9562SOL    HW229371   6.649   4.583   1.637 -1.8400 -0.3621 -1.7066
 9563SOL     OW29372   3.642   4.161   6.010 -0.4357 -0.3095  0.3491
 9563SOL    HW129373   3.718   4.209   5.979 -1.8665  1.0390 -1.3325
 9563SOL    HW229374   3.570   4.191   5.954 -2.1470 -1.7699  1.6176
 9564SOL     OW29375   3.050   5.809   3.348  0.0149 -0.4586 -0.3057
 9564SOL    HW129376   3.094   5.814   3.433 -3.3164  0.9714  1.4973
 9564SOL    HW229377   3.097   5.871   3.293  0.7791  0.3793  1.2347
 9565SOL     OW29378   4.173   2.117   0.883  0.3192  0.7216  0.2617
 9565SOL    HW129379   4.211   2.093   0.967  0.2528 -0.6224 -0.0778
 9565SOL    HW229380   4.127   2.200   0.900 -0.4371  0.0268  1.7463
 9566SOL     OW29381   2.121   5.399   1.209  0.3912  0.1901  0.0793
 9566SOL    HW129382   2.214   5.388   1.189  0.3301 -1.3988  0.5041
 9566SOL    HW229383   2.114   5.380   1.303 -0.1620  1.7778  0.3909
 9567SOL     OW29384   2.123   2.045   3.532 -0.1333 -0.1487  0.6196
 9567SOL    HW129385   2.059   1.974   3.524 -0.2773 -0.0077  0.5016
 9567SOL    HW229386   2.074   2.124   3.509 -0.1002  0.0496  1.2240
 9568SOL     OW29387   2.927   6.503   3.956 -0.2756  0.4032 -0.1317
 9568SOL    HW129388   3.004   6.516   4.012 -0.1845 -0.1848 -0.1170
 9568SOL    HW229389   2.904   6.411   3.967  0.2490  0.0508 -1.7053
 9569SOL     OW29390   1.032   5.098   5.251  0.5740  0.2592  0.3059
 9569SOL    HW129391   0.962   5.106   5.186 -0.4833  2.5627  1.6123
 9569SOL    HW229392   1.018   5.012   5.291 -0.2846 -0.1356 -0.7952
 9570SOL     OW29393   5.927   3.691   0.897 -0.5758 -0.2763 -0.4709
 9570SOL    HW129394   5.889   3.722   0.979  0.7734 -0.9869  0.4694
 9570SOL    HW229395   5.981   3.764   0.867 -1.1276  0.0112 -0.7688
 9571SOL     OW29396   6.775   0.953   3.849 -0.2443  0.2886 -0.3213
 9571SOL    HW129397   6.692   0.979   3.809 -0.7358  0.7441  0.9385
 9571SOL    HW229398   6.814   0.892   3.786 -1.3843  0.2933 -1.0677
 9572SOL     OW29399   4.579   5.727   2.021  0.2376 -0.0503 -0.2676
 9572SOL    HW129400   4.558   5.636   2.042 -1.5952 -0.3351 -2.8166
 9572SOL    HW229401   4.569   5.773   2.104  0.3599 -2.0093  0.9149
 9573SOL     OW29402   0.451   6.028   4.816 -0.0349  0.4117  0.2020
 9573SOL    HW129403   0.508   6.050   4.889 -0.1158 -0.5794  0.5844
 9573SOL    HW229404   0.492   5.952   4.776 -0.3661  0.5234 -0.3541
 9574SOL     OW29405   1.380   1.448   6.613 -0.2096  0.0489  0.0496
 9574SOL    HW129406   1.383   1.407   6.700  0.7431  2.7195  1.3798
 9574SOL    HW229407   1.468   1.434   6.577 -0.1350  0.2485  0.1566
 9575SOL     OW29408   6.013   4.435   6.396 -0.3577  0.0750  0.0008
 9575SOL    HW129409   5.981   4.455   6.484  0.3903  1.3628  0.0140
 9575SOL    HW229410   6.080   4.368   6.409 -0.2419  0.2686  0.4213
 9576SOL     OW29411   0.980   5.359   6.296 -0.6980  0.4800 -0.2365
 9576SOL    HW129412   1.054   5.299   6.309 -0.3023  0.6594 -1.4815
 9576SOL    HW229413   0.945   5.335   6.210 -1.0802  1.4605 -0.3701
 9577SOL     OW29414   1.268   0.327   3.983 -0.0691 -0.0283 -0.9512
 9577SOL    HW129415   1.319   0.397   4.024 -0.7731 -1.9941  4.0435
 9577SOL    HW229416   1.322   0.249   3.995 -2.5470 -1.5723  1.2096
 9578SOL     OW29417   1.769   3.134   2.902 -0.6851 -0.0799 -0.5118
 9578SOL    HW129418   1.691   3.188   2.889 -0.3497  0.7798  0.8510
 9578SOL    HW229419   1.734   3.046   2.919 -1.3412  0.1801 -0.4742
 9579SOL     OW29420   4.551   5.474   4.616  0.3407 -1.2377 -0.3539
 9579SOL    HW129421   4.503   5.402   4.655 -0.7657 -0.8732 -0.9794
 9579SOL    HW229422   4.538   5.464   4.522 -2.7504  1.5862 -0.4301
 9580SOL     OW29423   2.001   4.940   5.758 -0.3108 -1.2163 -0.7263
 9580SOL    HW129424   1.921   4.973   5.717 -0.3904  1.4483  1.3165
 9580SOL    HW229425   2.072   4.968   5.700 -0.6035  0.1248 -0.4608
 9581SOL     OW29426   5.815   0.748   3.045  0.0957 -0.0187  0.4099
 9581SOL    HW129427   5.819   0.676   3.108  0.7525 -1.4409 -1.1931
 9581SOL    HW229428   5.878   0.812   3.078 -0.4423 -0.1780  1.8125
 9582SOL     OW29429   1.857   3.074   5.661  0.8994 -0.2817 -0.3890
 9582SOL    HW129430   1.835   3.164   5.687  0.8795 -0.5314  0.5054
 9582SOL    HW229431   1.857   3.076   5.566 -0.0876  0.4358 -0.3941
 9583SOL     OW29432   5.036   3.737   2.361 -0.2447 -0.5831 -0.3356
 9583SOL    HW129433   5.073   3.660   2.404  0.3586  0.5206  1.2338
 9583SOL    HW229434   4.942   3.721   2.360 -0.2380 -0.8265  1.0907
 9584SOL     OW29435   0.441   5.779   3.771  0.1046  0.0069 -0.4610
 9584SOL    HW129436   0.506   5.757   3.838  0.3285 -0.1952 -0.7409
 9584SOL    HW229437   0.493   5.790   3.691 -0.3035 -1.0312 -0.8818
 9585SOL     OW29438   6.666   3.361   1.952 -0.5892  0.0161 -0.0020
 9585SOL    HW129439   6.661   3.275   1.995 -1.4614  1.1899  2.4268
 9585SOL    HW229440   6.588   3.364   1.897  0.1952 -1.2638 -1.2533
 9586SOL     OW29441   4.953   0.131   4.597  0.0545 -0.8279  0.2570
 9586SOL    HW129442   4.951   0.207   4.655  0.7770 -0.6061  0.0001
 9586SOL    HW229443   4.875   0.081   4.620 -0.1129 -0.3100  0.8340
 9587SOL     OW29444   6.444   0.137   6.590 -0.1204 -0.0468  0.2767
 9587SOL    HW129445   6.476   0.099   6.672  1.0145  0.3358  0.0328
 9587SOL    HW229446   6.388   0.209   6.617  0.8194  0.5394  0.7448
 9588SOL     OW29447   6.054   4.959   6.319 -0.2699 -0.0746 -0.0457
 9588SOL    HW129448   5.972   4.999   6.349 -1.1042  0.1582 -2.3836
 9588SOL    HW229449   6.119   4.984   6.384 -1.3451  2.7684  0.0843
 9589SOL     OW29450   1.652   0.802   2.096 -0.4434  0.0568 -0.2531
 9589SOL    HW129451   1.602   0.721   2.084  1.2735 -1.0113 -0.4252
 9589SOL    HW229452   1.739   0.773   2.124  0.4916  1.7911 -1.2297
 9590SOL     OW29453   3.423   1.866   6.543 -0.2492  0.2231  0.0479
 9590SOL    HW129454   3.468   1.869   6.458 -1.6299  1.6970 -0.6817
 9590SOL    HW229455   3.453   1.944   6.589 -0.8152  0.3509  0.2070
 9591SOL     OW29456   6.356   3.618   2.167 -0.3001  0.1751 -0.1233
 9591SOL    HW129457   6.407   3.658   2.238 -1.4444  1.8423 -0.1780
 9591SOL    HW229458   6.366   3.524   2.180 -0.1493  0.4405  2.0168
 9592SOL     OW29459   5.996   2.048   3.481 -0.1577 -0.0601  0.1120
 9592SOL    HW129460   5.938   2.009   3.547  1.1989 -2.1746  0.1652
 9592SOL    HW229461   5.983   1.994   3.403  1.5718 -0.5157  0.0886
 9593SOL     OW29462   4.783   3.686   0.925  0.0521 -0.2266 -0.2991
 9593SOL    HW129463   4.698   3.654   0.955 -0.6191  1.1323 -0.6586
 9593SOL    HW229464   4.770   3.700   0.831  0.4804  0.5585 -0.2441
 9594SOL     OW29465   1.418   2.375   2.888 -0.5855  0.4400  0.2124
 9594SOL    HW129466   1.336   2.424   2.889 -2.2702 -2.0703 -1.5541
 9594SOL    HW229467   1.397   2.291   2.929  2.1863  1.0009  3.1842
 9595SOL     OW29468   4.739   4.693   5.322  0.0612 -0.4109  0.0765
 9595SOL    HW129469   4.685   4.772   5.327  0.6553 -0.0180  0.3238
 9595SOL    HW229470   4.711   4.641   5.398 -1.2195 -1.0227 -0.7788
 9596SOL     OW29471   4.587   5.351   4.359  0.1009  0.0399  0.3712
 9596SOL    HW129472   4.567   5.330   4.268  0.4177  0.7623  0.1301
 9596SOL    HW229473   4.580   5.267   4.405  0.6639 -0.4697 -0.4478
 9597SOL     OW29474   5.746   2.915   4.588 -0.3694  0.6990 -0.4167
 9597SOL    HW129475   5.659   2.929   4.626 -0.5929 -0.3860 -0.4832
 9597SOL    HW229476   5.800   2.984   4.626 -1.4205  1.8437 -0.9384
 9598SOL     OW29477   0.955   4.797   0.385  0.4680  0.0485  0.3999
 9598SOL    HW129478   0.902   4.852   0.443  0.5159  0.6462 -0.1199
 9598SOL    HW229479   0.896   4.726   0.359 -0.4330  1.2710 -1.0154
 9599SOL     OW29480   1.334   3.332   3.359  0.3915  0.0647 -0.5219
 9599SOL    HW129481   1.407   3.371   3.310 -0.6121  1.0993 -1.2527
 9599SOL    HW229482   1.376   3.284   3.430  1.7683  1.2016 -0.5084
 9600SOL     OW29483   5.056   3.294   4.837 -0.3002 -0.7322  0.1718
 9600SOL    HW129484   5.068   3.336   4.923  0.7108 -0.3591 -0.1335
 9600SOL    HW229485   4.996   3.352   4.790  2.4388  1.4865 -0.8926
 9601SOL     OW29486   6.145   1.356   4.714 -0.3169  0.1364  0.1026
 9601SOL    HW129487   6.191   1.295   4.656 -0.7827 -0.2828  0.1700
 9601SOL    HW229488   6.210   1.424   4.733  0.4244 -0.6872  0.5657
 9602SOL     OW29489   1.328   3.867   1.275  0.8256  0.0007 -0.2133
 9602SOL    HW129490   1.314   3.787   1.225 -0.2455  0.4234 -0.6192
 9602SOL    HW229491   1.292   3.849   1.362  0.3244  0.1226 -0.3899
 9603SOL     OW29492   4.021   1.782   2.990 -0.0887  0.3218 -0.0254
 9603SOL    HW129493   4.042   1.865   2.947 -0.0766 -0.0912 -0.8347
 9603SOL    HW229494   4.090   1.771   3.056 -0.9615  1.6955  1.1702
 9604SOL     OW29495   0.745   5.032   6.563 -0.2150 -0.5423 -0.6878
 9604SOL    HW129496   0.653   5.047   6.585 -0.4492 -1.5474 -0.9225
 9604SOL    HW229497   0.743   4.995   6.474  0.5057  0.5714 -1.1893
 9605SOL     OW29498   3.972   6.416   1.138  0.1427 -0.0856  0.1420
 9605SOL    HW129499   3.898   6.357   1.123  1.0603 -0.7975 -1.8293
 9605SOL    HW229500   4.003   6.392   1.225 -1.2891 -0.4761  0.5813
 9606SOL     OW29501   4.676   2.036   5.939  0.0454  0.4569  0.2859
 9606SOL    HW129502   4.650   2.124   5.913 -0.3610  0.4764  0.7377
 9606SOL    HW229503   4.630   2.021   6.022 -0.8781 -0.6532 -0.4037
 9607SOL     OW29504   3.945   2.139   6.139  0.1173 -0.3031  0.1242
 9607SOL    HW129505   3.963   2.098   6.054 -0.5529 -3.1467  1.2342
 9607SOL    HW229506   4.031   2.151   6.178  0.3412 -0.9950 -0.1252
 9608SOL     OW29507   3.501   3.507   6.105 -0.0158  0.2395 -0.2556
 9608SOL    HW129508   3.454   3.484   6.185  0.8495  0.7067  0.3891
 9608SOL    HW229509   3.577   3.449   6.104 -0.2748 -0.1100 -1.0085
 9609SOL     OW29510   6.128   2.587   6.183 -0.5297 -0.0721  0.3783
 9609SOL    HW129511   6.058   2.652   6.178 -1.0782 -0.7050 -0.6838
 9609SOL    HW229512   6.208   2.639   6.193 -1.1253  0.6605  1.5928
 9610SOL     OW29513   3.039   1.622   0.083 -0.2219 -0.4248 -0.2684
 9610SOL    HW129514   3.008   1.710   0.060 -1.4979 -0.9733 -0.7087
 9610SOL    HW229515   3.004   1.565   0.014  0.5681 -1.2916  0.0272
 9611SOL     OW29516   6.484   4.770   0.754 -0.5421 -0.0050 -0.3130
 9611SOL    HW129517   6.547   4.823   0.705  0.7861  0.2137  1.5315
 9611SOL    HW229518   6.512   4.679   0.738 -1.1834 -0.0436 -1.3140
 9612SOL     OW29519   3.283   1.546   3.942  0.1499  0.6024 -0.4472
 9612SOL    HW129520   3.352   1.503   3.892  1.3468  0.9466  0.8421
 9612SOL    HW229521   3.282   1.636   3.911  1.0811  0.8875  0.2816
 9613SOL     OW29522   4.046   1.967   0.716  0.2104  0.1893  0.1011
 9613SOL    HW129523   4.099   1.906   0.665 -0.2977 -1.6117  1.6242
 9613SOL    HW229524   4.111   2.022   0.761  0.7015  0.2004 -0.6054
 9614SOL     OW29525   2.029   0.784   0.844 -0.2412  0.6090 -0.1272
 9614SOL    HW129526   2.087   0.708   0.846  0.1779  0.8680 -1.5104
 9614SOL    HW229527   2.048   0.832   0.925 -0.6764 -0.8558  0.8758
 9615SOL     OW29528   1.059   2.405   0.510  0.0733  0.1404 -0.1002
 9615SOL    HW129529   1.035   2.344   0.580  0.4550  0.0297 -0.0637
 9615SOL    HW229530   1.061   2.491   0.552  3.2906 -0.2484  0.7999
 9616SOL     OW29531   6.747   0.902   1.591  0.2894 -0.0453  0.1105
 9616SOL    HW129532   6.837   0.873   1.607  0.5608  1.0273  0.6666
 9616SOL    HW229533   6.755   0.969   1.523  0.2683  1.8166  1.8291
 9617SOL     OW29534   6.526   1.344   2.424 -0.2478 -0.2045  0.1073
 9617SOL    HW129535   6.542   1.257   2.387 -0.6280 -0.0579 -0.4162
 9617SOL    HW229536   6.609   1.368   2.466  0.6139  0.1463 -1.7249
 9618SOL     OW29537   2.157   0.934   5.797 -0.0216  0.7157  0.7213
 9618SOL    HW129538   2.155   0.924   5.892  1.4411 -1.3930  0.6007
 9618SOL    HW229539   2.118   1.020   5.781 -3.0831 -0.0554  2.9849
 9619SOL     OW29540   4.616   1.926   1.416 -0.2410 -0.6234 -0.2673
 9619SOL    HW129541   4.538   1.980   1.413  0.3326  0.6574  3.2643
 9619SOL    HW229542   4.589   1.847   1.463  0.2365 -0.9429 -0.5097
 9620SOL     OW29543   2.500   1.756   5.822 -0.4746 -0.0210 -0.2515
 9620SOL    HW129544   2.410   1.785   5.806 -1.2016 -1.4229  1.0838
 9620SOL    HW229545   2.518   1.782   5.912 -0.2186 -1.3724  0.1012
 9621SOL     OW29546   0.567   6.728   4.477  0.0936  0.7437  0.4781
 9621SOL    HW129547   0.519   6.711   4.396  1.5757  1.6348 -0.6262
 9621SOL    HW229548   0.625   6.653   4.486  0.6464  1.1247  0.1515
 9622SOL     OW29549   1.463   0.969   1.007 -0.5471  0.6047 -0.3183
 9622SOL    HW129550   1.400   1.017   0.954 -0.2682  1.9678  0.5215
 9622SOL    HW229551   1.486   1.030   1.078 -1.1017 -1.2091  1.5209
 9623SOL     OW29552   3.481   0.672   2.862 -0.6763 -0.1638 -0.2172
 9623SOL    HW129553   3.427   0.606   2.906 -1.6353  0.2543 -0.7345
 9623SOL    HW229554   3.456   0.667   2.770  0.6827 -0.4315 -0.5974
 9624SOL     OW29555   2.283   2.562   1.357 -0.1130 -0.0755  0.3103
 9624SOL    HW129556   2.196   2.575   1.320  0.1729 -0.2232 -0.4520
 9624SOL    HW229557   2.268   2.545   1.450 -0.8266  0.8286  0.3759
 9625SOL     OW29558   5.594   5.597   6.248 -0.1056  0.4345  0.2324
 9625SOL    HW129559   5.645   5.654   6.306  2.4343  1.1037 -2.4191
 9625SOL    HW229560   5.575   5.519   6.301  1.9466  1.0324  1.9880
 9626SOL     OW29561   4.891   2.406   1.460 -0.0246 -1.1327 -0.3332
 9626SOL    HW129562   4.975   2.450   1.475 -0.7429 -0.0302  0.6520
 9626SOL    HW229563   4.892   2.331   1.518 -0.2090 -0.4156  0.6239
 9627SOL     OW29564   2.643   0.971   1.797  0.4907 -0.5263  0.1138
 9627SOL    HW129565   2.734   0.949   1.815  0.6170  1.0960  1.7961
 9627SOL    HW229566   2.645   1.062   1.767 -0.5534 -0.5819 -0.1966
 9628SOL     OW29567   2.869   0.591   4.812 -0.6567  0.0185 -0.0924
 9628SOL    HW129568   2.889   0.545   4.894  1.0614  0.6604 -0.1039
 9628SOL    HW229569   2.932   0.663   4.809 -1.6443  0.8803 -1.2902
 9629SOL     OW29570   2.344   2.397   2.825 -0.1652  0.5070 -0.5422
 9629SOL    HW129571   2.401   2.329   2.790  0.1570  0.2324  0.4726
 9629SOL    HW229572   2.389   2.479   2.806 -0.3834  0.4263 -1.4554
 9630SOL     OW29573   4.168   2.169   3.761 -0.4177  0.4786 -0.5982
 9630SOL    HW129574   4.228   2.108   3.718 -0.6591  0.2229 -0.5787
 9630SOL    HW229575   4.172   2.145   3.854  0.5396  1.4039 -0.3770
 9631SOL     OW29576   6.750   1.685   6.356  0.3405 -0.2810 -0.0570
 9631SOL    HW129577   6.668   1.664   6.401  1.0740 -1.8429  0.6200
 9631SOL    HW229578   6.796   1.743   6.416  0.2568 -0.3803  0.1044
 9632SOL     OW29579   5.103   1.404   4.733  0.0851 -0.4273  0.4684
 9632SOL    HW129580   5.134   1.314   4.745 -0.8095 -0.9514 -0.9465
 9632SOL    HW229581   5.019   1.395   4.688  0.6468  1.1482 -0.9987
 9633SOL     OW29582   1.642   1.606   5.976 -0.1647 -0.3456 -0.2829
 9633SOL    HW129583   1.676   1.589   6.064 -1.5179  0.7643  0.4955
 9633SOL    HW229584   1.547   1.601   5.986 -0.3641  0.7910 -1.4586
 9634SOL     OW29585   2.954   3.282   5.190 -0.0300  0.1644  0.2357
 9634SOL    HW129586   2.882   3.261   5.131  1.1919 -0.3264 -1.1421
 9634SOL    HW229587   2.964   3.377   5.183 -0.0950  0.1468 -0.0792
 9635SOL     OW29588   3.456   2.279   2.731 -0.1921  0.2133  0.4666
 9635SOL    HW129589   3.551   2.286   2.732 -0.2909  2.2368  0.2360
 9635SOL    HW229590   3.429   2.306   2.819 -0.5899  1.0216  0.1105
 9636SOL     OW29591   0.915   5.858   2.242 -0.0503  0.5772  0.1053
 9636SOL    HW129592   0.964   5.939   2.227 -0.8556  0.7168 -2.1723
 9636SOL    HW229593   0.910   5.817   2.156 -1.0329 -1.1204  0.9177
 9637SOL     OW29594   3.501   2.951   3.301 -0.1498  0.0974 -0.1592
 9637SOL    HW129595   3.457   2.999   3.231 -0.0922 -0.6284 -0.7048
 9637SOL    HW229596   3.482   3.001   3.380 -3.5575 -1.1481 -0.0322
 9638SOL     OW29597   0.224   0.803   3.639 -0.1734  0.0880  0.6098
 9638SOL    HW129598   0.284   0.856   3.692 -0.4971  0.4238  0.6439
 9638SOL    HW229599   0.277   0.727   3.613  0.3017  0.4330  0.5421
 9639SOL     OW29600   2.428   4.892   0.582  0.4746  0.0165  0.2017
 9639SOL    HW129601   2.515   4.871   0.547  0.2222 -1.6348  0.4496
 9639SOL    HW229602   2.429   4.856   0.671 -1.0127 -1.6216 -0.3873
 9640SOL     OW29603   5.485   5.994   2.027 -0.6504  0.7293 -0.6341
 9640SOL    HW129604   5.479   6.030   2.115  0.7609  1.5629 -0.8493
 9640SOL    HW229605   5.410   5.934   2.020 -0.7837  0.6493  1.1096
 9641SOL     OW29606   5.631   3.692   4.043  0.2458 -0.3685  0.1990
 9641SOL    HW129607   5.595   3.702   3.955  1.8676 -0.4550 -0.5033
 9641SOL    HW229608   5.702   3.628   4.034  0.8850  0.1237  1.4228
 9642SOL     OW29609   3.515   3.454   4.297  0.2551  0.0647 -0.1194
 9642SOL    HW129610   3.427   3.460   4.335  0.1293 -1.6663 -0.0578
 9642SOL    HW229611   3.569   3.508   4.354 -0.7662  1.2067 -0.1893
 9643SOL     OW29612   5.946   0.387   6.190 -0.5331 -0.3414  0.2973
 9643SOL    HW129613   5.900   0.434   6.119  0.4664  1.0831  0.5511
 9643SOL    HW229614   5.885   0.390   6.264 -1.2608 -1.1492 -0.2477
 9644SOL     OW29615   6.630   0.611   5.254  0.0695  0.3099  0.1679
 9644SOL    HW129616   6.573   0.688   5.254  0.1640  0.4335 -1.8100
 9644SOL    HW229617   6.719   0.646   5.253  0.1433  0.3456 -2.6748
 9645SOL     OW29618   0.737   3.713   0.631  0.2552 -0.3102  0.1515
 9645SOL    HW129619   0.800   3.654   0.673 -0.1999 -1.7709 -1.1119
 9645SOL    HW229620   0.660   3.658   0.615  0.1264  0.3922 -1.8311
 9646SOL     OW29621   3.326   1.085   3.478 -0.7036  0.0605  0.3228
 9646SOL    HW129622   3.261   1.128   3.423 -0.4004  0.7343  0.4765
 9646SOL    HW229623   3.385   1.156   3.504 -0.2567 -0.4358  0.6727
 9647SOL     OW29624   0.414   3.275   0.475 -0.4902  0.5380 -0.2909
 9647SOL    HW129625   0.464   3.243   0.550 -1.3406  2.6208  1.2546
 9647SOL    HW229626   0.323   3.272   0.502 -0.7851  1.7635 -1.0315
 9648SOL     OW29627   2.501   5.746   2.016 -0.4119 -0.2334  0.1932
 9648SOL    HW129628   2.447   5.731   2.093  0.4688 -2.7711  0.4009
 9648SOL    HW229629   2.454   5.703   1.945  0.5375 -1.1431  0.0846
 9649SOL     OW29630   6.264   6.515   2.906  0.1320 -0.8952  0.0814
 9649SOL    HW129631   6.228   6.535   2.992  0.6370  1.1738 -0.1197
 9649SOL    HW229632   6.200   6.457   2.866  0.1961 -2.4272  2.0528
 9650SOL     OW29633   4.901   4.018   3.966 -0.1757  0.3720  0.0590
 9650SOL    HW129634   4.901   4.114   3.967 -1.2526  0.3931 -0.4111
 9650SOL    HW229635   4.984   3.994   4.005 -0.5485  1.4877  1.6594
 9651SOL     OW29636   4.952   3.673   3.182  0.5241 -0.0129  0.4433
 9651SOL    HW129637   4.889   3.620   3.134  0.2628 -0.5195  1.3057
 9651SOL    HW229638   5.036   3.655   3.141  0.3069 -0.4304  0.1845
 9652SOL     OW29639   4.586   6.797   6.111  0.0288 -0.0153 -0.7620
 9652SOL    HW129640   4.671   6.840   6.118  0.9086 -1.6310 -1.0189
 9652SOL    HW229641   4.555   6.790   6.202  0.2279  0.4506 -0.6544
 9653SOL     OW29642   4.122   4.548   0.329  0.0287  0.0602 -0.6943
 9653SOL    HW129643   4.066   4.625   0.332  0.7485  0.6107  3.1578
 9653SOL    HW229644   4.205   4.579   0.293 -0.7109  0.2185 -2.3536
 9654SOL     OW29645   4.731   3.315   1.843 -0.7506 -0.3741 -0.4261
 9654SOL    HW129646   4.780   3.254   1.787 -1.2750 -1.5633  0.3542
 9654SOL    HW229647   4.649   3.329   1.797 -1.7092 -2.3386  0.5447
 9655SOL     OW29648   2.359   6.152   6.657  0.4279 -0.5265  0.6250
 9655SOL    HW129649   2.301   6.205   6.603  1.6651 -0.4095 -0.6309
 9655SOL    HW229650   2.417   6.215   6.700 -1.0895 -0.5319  2.8766
 9656SOL     OW29651   4.317   5.921   1.690 -0.2439 -0.1575 -0.6241
 9656SOL    HW129652   4.364   5.978   1.752 -0.8543 -1.0789  0.7427
 9656SOL    HW229653   4.226   5.949   1.697 -0.4254 -0.7578 -0.5517
 9657SOL     OW29654   4.804   1.750   3.614  0.4265  0.2118 -0.0542
 9657SOL    HW129655   4.831   1.764   3.705  0.2220 -0.2764  0.0827
 9657SOL    HW229656   4.782   1.838   3.582  0.1129  0.3387  0.4972
 9658SOL     OW29657   1.656   6.490   1.056  0.1607 -0.4271 -0.2906
 9658SOL    HW129658   1.696   6.576   1.070 -2.8295  1.2695 -1.0677
 9658SOL    HW229659   1.687   6.463   0.970  1.5861 -0.4308  0.2069
 9659SOL     OW29660   3.176   5.861   0.927  0.0268  0.1671  0.0702
 9659SOL    HW129661   3.214   5.947   0.911 -1.6867  1.0850  0.7349
 9659SOL    HW229662   3.251   5.805   0.948  1.0750  1.7295  0.6257
 9660SOL     OW29663   3.454   5.605   5.633 -0.2326  0.6230 -0.1166
 9660SOL    HW129664   3.509   5.624   5.557 -1.0801  1.9281 -0.4187
 9660SOL    HW229665   3.445   5.688   5.679 -1.4039  0.2956  0.2940
 9661SOL     OW29666   5.725   4.907   3.426  0.4240 -0.0903 -0.0409
 9661SOL    HW129667   5.702   4.829   3.376 -0.2724  0.6541 -0.9256
 9661SOL    HW229668   5.663   4.909   3.499  1.3930 -1.1382  0.8462
 9662SOL     OW29669   5.835   1.872   2.583  0.2882 -0.4929 -0.1517
 9662SOL    HW129670   5.762   1.901   2.637  0.6772  0.6383 -0.2171
 9662SOL    HW229671   5.814   1.781   2.562  0.6772 -1.3391  2.7968
 9663SOL     OW29672   1.538   0.144   3.607  0.1491 -0.1634 -0.0711
 9663SOL    HW129673   1.507   0.214   3.549  0.9963 -2.0874 -3.0299
 9663SOL    HW229674   1.627   0.127   3.578 -0.8170 -4.1091 -1.2588
 9664SOL     OW29675   2.629   1.136   0.147  0.3541 -0.0219 -0.4321
 9664SOL    HW129676   2.575   1.064   0.115  1.6121 -1.5051  0.6104
 9664SOL    HW229677   2.612   1.139   0.241  0.4969  0.9254 -0.4176
 9665SOL     OW29678   6.514   3.474   0.456  0.1747  0.1024 -0.0633
 9665SOL    HW129679   6.429   3.444   0.425  0.6361 -1.1325 -0.1732
 9665SOL    HW229680   6.495   3.522   0.537 -0.4170 -2.4135  1.4063
 9666SOL     OW29681   2.939   2.453   4.008  0.5679 -0.8701  0.3722
 9666SOL    HW129682   3.007   2.504   4.053  1.4741 -1.3627 -0.4023
 9666SOL    HW229683   2.933   2.492   3.921  0.1646 -1.1119  0.2865
 9667SOL     OW29684   3.930   3.792   3.000 -0.3848  0.0839  0.0052
 9667SOL    HW129685   3.862   3.784   3.067 -0.7194  1.6261 -0.1277
 9667SOL    HW229686   3.928   3.884   2.974  0.9323 -0.1123 -0.8788
 9668SOL     OW29687   1.899   1.001   6.152 -0.2438  0.2048  0.2384
 9668SOL    HW129688   1.877   0.931   6.091  0.4896  1.3087 -1.3803
 9668SOL    HW229689   1.815   1.029   6.188 -0.8316  0.2233 -1.0961
 9669SOL     OW29690   6.367   5.018   5.821 -0.1892 -0.4957  0.2305
 9669SOL    HW129691   6.442   5.008   5.764  0.6457 -0.5672  1.3028
 9669SOL    HW229692   6.300   5.060   5.767  0.4007 -1.0050 -0.9097
 9670SOL     OW29693   0.759   3.869   0.090 -0.0940 -0.1338 -0.4004
 9670SOL    HW129694   0.677   3.918   0.084  0.5766  0.8902 -2.8620
 9670SOL    HW229695   0.733   3.778   0.103 -1.4577  0.5503  2.1182
 9671SOL     OW29696   0.419   3.549   0.486 -0.5723 -0.1947 -1.1231
 9671SOL    HW129697   0.408   3.577   0.577  0.5200 -0.5091 -0.8845
 9671SOL    HW229698   0.432   3.454   0.491  1.4201  0.0363 -1.4233
 9672SOL     OW29699   0.891   0.705   2.785 -0.0231  0.1344  0.5271
 9672SOL    HW129700   0.946   0.759   2.728  0.4636 -0.5535  0.3313
 9672SOL    HW229701   0.953   0.656   2.839 -0.4821  1.6001  2.4702
 9673SOL     OW29702   6.855   6.443   3.451  0.1899  0.2070 -0.0938
 9673SOL    HW129703   6.809   6.362   3.471 -1.6522  1.1769 -0.1307
 9673SOL    HW229704   6.802   6.484   3.382 -0.1275  2.3715  1.3261
 9674SOL     OW29705   5.170   1.631   2.589 -0.3920  0.0811 -0.3642
 9674SOL    HW129706   5.123   1.712   2.568  1.4429  1.3424  0.2052
 9674SOL    HW229707   5.181   1.587   2.504 -0.6097  0.8660 -0.8103
 9675SOL     OW29708   5.730   1.618   0.753 -0.1283 -0.0062  0.3095
 9675SOL    HW129709   5.742   1.710   0.775 -1.7123 -0.1069  1.8304
 9675SOL    HW229710   5.764   1.610   0.664  0.2862  1.9820  0.2420
 9676SOL     OW29711   6.287   6.535   2.513  0.4674  0.3201  0.0979
 9676SOL    HW129712   6.244   6.503   2.591  0.8640 -0.5863 -0.0403
 9676SOL    HW229713   6.367   6.577   2.545  0.2754  0.5836  0.2317
 9677SOL     OW29714   0.145   5.130   5.668 -0.3528  0.2548  0.7098
 9677SOL    HW129715   0.189   5.123   5.753 -1.8063  0.3965  1.5074
 9677SOL    HW229716   0.053   5.140   5.690 -1.0170 -1.6556 -0.9375
 9678SOL     OW29717   4.909   1.477   5.256  0.2089  0.1217 -0.7043
 9678SOL    HW129718   4.955   1.441   5.180  0.5831 -1.0090  0.0428
 9678SOL    HW229719   4.919   1.411   5.324  1.8554  2.0608  1.0885
 9679SOL     OW29720   3.233   1.876   0.050 -0.3497 -0.6169  0.0620
 9679SOL    HW129721   3.199   1.799   0.098 -0.6617  0.3547  1.4765
 9679SOL    HW229722   3.207   1.950   0.105 -0.9955  0.6004 -1.8115
 9680SOL     OW29723   4.826   6.678   5.502 -0.3112 -0.0017  0.0230
 9680SOL    HW129724   4.828   6.760   5.551 -0.9320 -1.3003  2.4471
 9680SOL    HW229725   4.733   6.662   5.486 -0.1833 -0.1331 -0.6068
 9681SOL     OW29726   4.904   3.956   1.536 -0.2210  0.4407  0.1588
 9681SOL    HW129727   4.956   3.949   1.456 -1.3112  0.9169 -0.5995
 9681SOL    HW229728   4.915   3.870   1.578  2.0348  0.8686  0.5816
 9682SOL     OW29729   2.235   1.841   5.818  0.2456  0.6522  0.3170
 9682SOL    HW129730   2.195   1.768   5.770  0.0583  0.5006  0.7012
 9682SOL    HW229731   2.164   1.878   5.869  0.5229  0.5932  0.7477
 9683SOL     OW29732   0.284   5.287   2.614  0.2749  0.7756  0.0546
 9683SOL    HW129733   0.359   5.282   2.673  2.3655 -0.2983 -2.5141
 9683SOL    HW229734   0.208   5.292   2.672  2.1689 -0.0951  2.7936
 9684SOL     OW29735   5.209   0.078   1.921 -0.2385 -0.3775 -0.4713
 9684SOL    HW129736   5.242   0.049   2.006  3.6008 -0.7244 -1.8949
 9684SOL    HW229737   5.119   0.046   1.918 -0.0139 -1.7201  2.7879
 9685SOL     OW29738   2.983   3.285   0.588  0.2179 -0.1579 -0.4801
 9685SOL    HW129739   3.061   3.286   0.644  0.2964 -0.0308 -0.5901
 9685SOL    HW229740   2.934   3.209   0.617  2.1494 -2.4945 -2.8291
 9686SOL     OW29741   0.391   3.126   4.824 -0.0921 -0.0824  0.2648
 9686SOL    HW129742   0.408   3.096   4.914  0.2573 -0.3805  0.0994
 9686SOL    HW229743   0.404   3.221   4.828  0.8436 -0.1988  0.3271
 9687SOL     OW29744   2.375   0.049   4.064 -0.0344 -0.0630 -0.0586
 9687SOL    HW129745   2.428  -0.028   4.086  0.7970  1.0124  1.9570
 9687SOL    HW229746   2.311   0.016   4.001 -0.0908 -2.5622  1.1543
 9688SOL     OW29747   3.124   0.186   2.823  0.3999 -0.0262  0.6967
 9688SOL    HW129748   3.031   0.207   2.814  0.9558  2.5991  0.0823
 9688SOL    HW229749   3.147   0.145   2.740 -0.0812 -0.1204  0.6043
 9689SOL     OW29750   2.438   0.425   5.910  0.6971  0.0109  0.5904
 9689SOL    HW129751   2.449   0.496   5.847  0.5637 -1.2590 -0.9298
 9689SOL    HW229752   2.429   0.346   5.856  0.0419 -1.0673  2.1886
 9690SOL     OW29753   1.782   4.289   3.938 -0.0113 -0.2255  0.1279
 9690SOL    HW129754   1.816   4.233   4.008 -0.8516 -1.7064 -0.6140
 9690SOL    HW229755   1.843   4.276   3.865 -0.4804 -0.5625 -0.2074
 9691SOL     OW29756   3.553   2.927   2.902  0.6074 -0.0479  0.2329
 9691SOL    HW129757   3.556   2.874   2.822  1.2158  1.0147 -0.4690
 9691SOL    HW229758   3.557   3.017   2.871  0.0103  0.4064  1.4345
 9692SOL     OW29759   3.553   1.553   6.508  0.1388  0.1992 -0.3179
 9692SOL    HW129760   3.532   1.599   6.590  2.1376 -2.2069  1.7195
 9692SOL    HW229761   3.594   1.620   6.453  1.8541  1.2173  2.0195
 9693SOL     OW29762   3.946   3.246   0.477  0.3170 -0.0992  0.1488
 9693SOL    HW129763   3.879   3.177   0.482 -1.1205  1.3062  1.6412
 9693SOL    HW229764   4.006   3.225   0.549  2.0397 -1.7981 -1.6590
 9694SOL     OW29765   6.638   5.269   5.842 -0.3102 -0.5556  0.1932
 9694SOL    HW129766   6.711   5.329   5.855 -0.3756  0.0884 -2.0046
 9694SOL    HW229767   6.560   5.325   5.841 -0.7584 -1.1162  1.5074
 9695SOL     OW29768   4.210   3.252   0.617 -0.0246  0.4308  0.3802
 9695SOL    HW129769   4.261   3.303   0.554 -0.4372  0.0826 -0.2489
 9695SOL    HW229770   4.249   3.273   0.702  0.6630  0.7665 -0.0075
 9696SOL     OW29771   5.255   1.066   5.071  0.4366  0.1380 -0.1663
 9696SOL    HW129772   5.218   1.111   4.994 -0.0753 -0.1580 -0.0915
 9696SOL    HW229773   5.194   0.996   5.090  0.6739  0.0804  0.3935
 9697SOL     OW29774   2.980   1.984   1.753 -0.2616  0.1959 -0.0676
 9697SOL    HW129775   3.004   2.028   1.671 -3.2942 -0.4293 -1.4345
 9697SOL    HW229776   2.897   2.025   1.778 -0.3735 -0.9780  1.6432
 9698SOL     OW29777   2.493   0.704   0.203 -0.1230  0.2429  0.1149
 9698SOL    HW129778   2.445   0.674   0.126  2.0577 -1.4299 -0.7168
 9698SOL    HW229779   2.585   0.700   0.177  0.7035 -0.3836  2.7761
 9699SOL     OW29780   3.066   4.163   5.723  0.4888 -0.3066 -0.7494
 9699SOL    HW129781   3.123   4.240   5.719 -0.6771  0.5562 -1.4486
 9699SOL    HW229782   3.030   4.155   5.635  0.9357 -1.9551 -0.8122
 9700SOL     OW29783   0.886   0.780   2.164 -0.4287  0.5863 -0.2577
 9700SOL    HW129784   0.866   0.694   2.127  1.3014 -0.0074  0.0689
 9700SOL    HW229785   0.830   0.788   2.241  1.0993 -1.3939  1.1805
 9701SOL     OW29786   2.189   2.612   6.110  0.4170 -0.2033 -0.2425
 9701SOL    HW129787   2.264   2.671   6.118  0.4613  0.1612 -2.6275
 9701SOL    HW229788   2.115   2.662   6.143  0.7129  0.6710 -0.8675
 9702SOL     OW29789   3.867   5.160   1.360  0.0423  0.5063 -0.6879
 9702SOL    HW129790   3.925   5.184   1.288 -0.9327  1.3487 -1.2243
 9702SOL    HW229791   3.830   5.076   1.333 -1.5498  1.5505 -2.0103
 9703SOL     OW29792   5.713   2.127   6.245  0.5638  0.1827  0.3461
 9703SOL    HW129793   5.734   2.082   6.327  0.1903 -1.5860 -0.4879
 9703SOL    HW229794   5.685   2.215   6.273  0.2404 -0.4346  2.1204
 9704SOL     OW29795   1.446   2.136   3.927  0.0844  0.1151  0.2675
 9704SOL    HW129796   1.438   2.052   3.972  0.7345  0.6048  1.3658
 9704SOL    HW229797   1.358   2.174   3.929 -0.7056 -1.3774 -2.0732
 9705SOL     OW29798   0.205   0.388   3.574  0.4490  0.1118  1.2125
 9705SOL    HW129799   0.170   0.474   3.549  1.3573 -0.1473 -1.2279
 9705SOL    HW229800   0.241   0.401   3.662 -0.4730  1.8998  1.3714
 9706SOL     OW29801   2.812   1.419   2.716 -0.4402 -0.0806  0.1003
 9706SOL    HW129802   2.857   1.357   2.773  0.2009  0.2578 -0.0305
 9706SOL    HW229803   2.815   1.502   2.763  0.2160  0.2326 -0.4772
 9707SOL     OW29804   5.846   4.900   0.240  0.5891  0.3694  0.0289
 9707SOL    HW129805   5.761   4.871   0.271  1.3282 -2.0082  0.1024
 9707SOL    HW229806   5.882   4.951   0.312 -0.4073  0.6456  0.3459
 9708SOL     OW29807   6.417   3.898   0.279 -0.9512  0.2588 -0.4804
 9708SOL    HW129808   6.413   3.802   0.279  0.2577  0.1330  1.7601
 9708SOL    HW229809   6.372   3.924   0.360  0.3800  1.4535 -0.0915
 9709SOL     OW29810   6.151   2.555   0.257 -0.1256 -0.4773  0.7751
 9709SOL    HW129811   6.198   2.523   0.180  0.4159 -0.6966  1.1867
 9709SOL    HW229812   6.201   2.631   0.285  0.2522 -0.9758  1.4792
 9710SOL     OW29813   0.012   0.946   1.166 -0.6330  0.5357  0.0957
 9710SOL    HW129814  -0.078   0.916   1.151 -0.2998 -0.4417 -0.0128
 9710SOL    HW229815   0.035   0.912   1.252 -0.3767  0.8324  0.1466
 9711SOL     OW29816   3.874   3.880   6.274  0.7502 -0.5294  0.1824
 9711SOL    HW129817   3.952   3.827   6.257  0.5254 -0.8141  0.0310
 9711SOL    HW229818   3.827   3.881   6.190  1.0225  0.3637  0.0259
 9712SOL     OW29819   1.083   4.390   4.876 -0.6789 -0.5156 -0.4447
 9712SOL    HW129820   1.114   4.390   4.785  2.3210 -1.1251  0.4544
 9712SOL    HW229821   1.080   4.483   4.900  3.8480 -0.3185  0.2729
 9713SOL     OW29822   3.364   1.292   5.111 -0.0636  0.7077  0.5244
 9713SOL    HW129823   3.332   1.377   5.139 -0.4509  0.3374  1.2194
 9713SOL    HW229824   3.395   1.306   5.021  0.3221  1.6816  0.8016
 9714SOL     OW29825   5.545   4.034   1.475 -0.2681  0.0278 -0.0668
 9714SOL    HW129826   5.543   4.059   1.567 -0.6293  0.7626 -0.2641
 9714SOL    HW229827   5.453   4.036   1.447 -0.0769  0.8470 -0.6978
 9715SOL     OW29828   1.744   4.401   1.948 -0.1598  0.0985 -0.3042
 9715SOL    HW129829   1.652   4.424   1.939 -0.5314 -1.3660 -0.4649
 9715SOL    HW229830   1.791   4.472   1.903 -1.2902  0.0288 -1.6746
 9716SOL     OW29831   4.866   4.729   0.972  0.1137 -0.6646  0.1497
 9716SOL    HW129832   4.922   4.740   0.895 -0.0365 -0.6783  0.0371
 9716SOL    HW229833   4.864   4.815   1.013 -1.4684 -0.0875 -1.0079
 9717SOL     OW29834   6.385   4.537   1.362  0.1504 -0.6650 -0.3941
 9717SOL    HW129835   6.456   4.475   1.344  0.4135 -0.2128 -0.9511
 9717SOL    HW229836   6.397   4.607   1.297  0.4770  0.4749  0.8260
 9718SOL     OW29837   5.447   4.587   2.251 -0.2831  0.2137 -0.7151
 9718SOL    HW129838   5.504   4.637   2.192  0.5708  0.6385  0.4385
 9718SOL    HW229839   5.446   4.499   2.213 -0.4985  0.6802 -1.8612
 9719SOL     OW29840   4.843   1.296   4.648  0.8521  0.1634 -0.2452
 9719SOL    HW129841   4.891   1.244   4.713  1.4124  0.3371 -0.5159
 9719SOL    HW229842   4.767   1.242   4.627 -1.2763  1.5571  3.1075
 9720SOL     OW29843   3.265   3.165   6.738 -0.2813 -0.0920 -0.1813
 9720SOL    HW129844   3.173   3.186   6.754  0.0199  1.6051 -0.5425
 9720SOL    HW229845   3.313   3.216   6.804  0.4277 -0.6965 -0.2172
 9721SOL     OW29846   6.383   2.150   1.929 -0.1666  0.4651  0.5310
 9721SOL    HW129847   6.330   2.078   1.965 -2.0690  0.7497 -1.5295
 9721SOL    HW229848   6.320   2.211   1.892  1.5635  1.1355 -1.5431
 9722SOL     OW29849   0.543   4.627   3.718 -0.1255  0.4754  0.2880
 9722SOL    HW129850   0.623   4.629   3.770 -0.8374 -0.6889  1.4796
 9722SOL    HW229851   0.495   4.551   3.750 -0.6358 -0.2723 -2.0449
 9723SOL     OW29852   3.530   4.434   2.253  0.4051 -0.4865 -0.2200
 9723SOL    HW129853   3.613   4.387   2.241  0.6424 -0.1357  0.0354
 9723SOL    HW229854   3.484   4.383   2.320 -0.1929 -1.4742 -1.3417
 9724SOL     OW29855   0.122   3.048   2.106 -0.2788 -0.1793 -0.2258
 9724SOL    HW129856   0.109   3.001   2.189 -0.8275 -0.6098 -0.5503
 9724SOL    HW229857   0.194   3.002   2.063  0.0223  0.0588  0.0188
 9725SOL     OW29858   6.104   4.938   6.044  0.1579  0.1934  0.2197
 9725SOL    HW129859   6.185   4.887   6.040  0.4113  0.5500  0.7422
 9725SOL    HW229860   6.080   4.938   6.137  0.3878  1.3698  0.2936
 9726SOL     OW29861   3.651   5.687   0.439  0.4044 -0.2986  0.1020
 9726SOL    HW129862   3.564   5.723   0.423  1.0034  1.2234  0.1303
 9726SOL    HW229863   3.635   5.597   0.469 -1.2912  0.6160  2.1960
 9727SOL     OW29864   2.805   3.747   1.629 -0.0718  0.0550  0.1005
 9727SOL    HW129865   2.812   3.768   1.722  0.5540 -0.6599  0.2285
 9727SOL    HW229866   2.761   3.662   1.626 -2.5154  1.2448 -0.4005
 9728SOL     OW29867   6.288   1.999   3.550  0.4790 -0.5873  0.2120
 9728SOL    HW129868   6.296   1.964   3.462  1.4608 -1.8404  0.7579
 9728SOL    HW229869   6.372   2.042   3.567 -0.4793  1.5294 -0.2035
 9729SOL     OW29870   3.506   3.303   5.787 -0.3438  0.2299  0.2761
 9729SOL    HW129871   3.427   3.289   5.734 -0.1207 -0.3290  0.0894
 9729SOL    HW229872   3.482   3.375   5.847 -1.2325 -0.4013  0.7031
 9730SOL     OW29873   3.945   2.729   6.462 -0.4413  0.3295  0.2004
 9730SOL    HW129874   3.925   2.677   6.540 -1.4311  0.2133 -0.1138
 9730SOL    HW229875   3.968   2.664   6.396 -0.6703  0.3523  0.0963
 9731SOL     OW29876   4.870   3.680   1.363  0.0165  0.3109  0.3603
 9731SOL    HW129877   4.909   3.630   1.435  2.2217  0.8339 -0.4053
 9731SOL    HW229878   4.861   3.616   1.292 -0.0361  0.3061  0.3716
 9732SOL     OW29879   5.607   6.735   2.935  0.1990 -0.2665  0.6095
 9732SOL    HW129880   5.679   6.674   2.922 -0.5961 -1.6494  2.3294
 9732SOL    HW229881   5.572   6.714   3.021 -0.2527  2.5175  1.2129
 9733SOL     OW29882   2.269   4.262   1.258  0.1669 -0.2006 -0.1927
 9733SOL    HW129883   2.231   4.344   1.229 -0.1423 -0.1712  0.2747
 9733SOL    HW229884   2.324   4.233   1.186  0.4478  0.5282 -0.2698
 9734SOL     OW29885   0.057   6.688   3.552 -0.3522  0.8345  0.5877
 9734SOL    HW129886   0.102   6.732   3.480 -2.7717  1.7509 -0.4745
 9734SOL    HW229887   0.030   6.603   3.516  0.6540  0.1975  1.2850
 9735SOL     OW29888   4.858   3.994   5.170 -0.0298  0.3447  0.4016
 9735SOL    HW129889   4.918   4.064   5.142 -0.4176  0.3165 -0.5506
 9735SOL    HW229890   4.799   4.036   5.232 -1.0002  1.2063 -1.0324
 9736SOL     OW29891   2.358   1.385   0.131 -0.2965  0.1851  0.0752
 9736SOL    HW129892   2.385   1.381   0.223  0.3428 -2.0953 -0.1492
 9736SOL    HW229893   2.440   1.389   0.082 -0.6143  0.5795 -0.4325
 9737SOL     OW29894   3.765   1.251   5.277  0.3123  0.3526  0.1150
 9737SOL    HW129895   3.698   1.245   5.208 -1.3522  2.5382  1.4241
 9737SOL    HW229896   3.720   1.220   5.356  1.8436 -1.0329  0.4965
 9738SOL     OW29897   1.493   2.527   2.664  0.1341  0.0479  0.2192
 9738SOL    HW129898   1.588   2.542   2.659  0.1112  1.0635  2.0293
 9738SOL    HW229899   1.484   2.456   2.728 -0.3689  1.1174  1.3794
 9739SOL     OW29900   1.914   0.225   6.503  0.2049 -0.1102  0.2389
 9739SOL    HW129901   1.837   0.255   6.455  0.2542  0.1434  0.3150
 9739SOL    HW229902   1.974   0.300   6.501  1.2527 -0.9234 -1.5134
 9740SOL     OW29903   4.871   0.064   2.379  0.1704 -0.6287  0.2841
 9740SOL    HW129904   4.921  -0.008   2.416 -0.7722 -0.2736  2.3766
 9740SOL    HW229905   4.857   0.124   2.453  0.3334  1.3730 -1.2168
 9741SOL     OW29906   3.552   0.087   1.188 -0.1047  0.2297 -0.4096
 9741SOL    HW129907   3.611   0.049   1.123  1.1681  0.6100  0.4795
 9741SOL    HW229908   3.577   0.046   1.271  1.4142  2.9868  0.6185
 9742SOL     OW29909   2.988   0.013   5.596 -0.2234 -0.1434  1.0391
 9742SOL    HW129910   2.919   0.023   5.531 -0.5545  0.1911  1.4379
 9742SOL    HW229911   3.050   0.084   5.577  0.7590 -1.2732 -0.2099
 9743SOL     OW29912   0.101   3.556   2.396 -0.0498 -0.2464 -0.2764
 9743SOL    HW129913   0.146   3.571   2.313 -0.0235  1.8033  0.0490
 9743SOL    HW229914   0.018   3.604   2.388  0.7573  1.6072  1.4995
 9744SOL     OW29915   1.081   4.440   1.836  0.1305  0.4381 -0.6980
 9744SOL    HW129916   1.166   4.479   1.816  0.9088 -0.2920  0.9836
 9744SOL    HW229917   1.102   4.359   1.882 -1.4359  1.1381  1.4362
 9745SOL     OW29918   0.363   4.071   6.775  0.0762 -0.2318  0.2755
 9745SOL    HW129919   0.343   4.089   6.866  0.7192 -1.3836  0.6619
 9745SOL    HW229920   0.279   4.075   6.730 -0.5490 -1.5970  1.2594
 9746SOL     OW29921   3.402   1.950   6.207  0.5105  0.1691 -0.0322
 9746SOL    HW129922   3.361   2.028   6.245 -0.1619 -0.1826 -0.0279
 9746SOL    HW229923   3.416   1.972   6.115 -1.4522 -0.3824 -0.5029
 9747SOL     OW29924   5.547   5.227   6.838  0.0411  0.3370  0.5017
 9747SOL    HW129925   5.480   5.231   6.906  1.0355  0.6791  1.4873
 9747SOL    HW229926   5.592   5.144   6.853 -0.2926  0.0045 -0.2916
 9748SOL     OW29927   4.525   4.536   5.012  0.0559  0.4428  0.5195
 9748SOL    HW129928   4.524   4.626   4.979 -3.3893  0.7807  1.1815
 9748SOL    HW229929   4.512   4.545   5.107  0.3160 -0.7598  0.6843
 9749SOL     OW29930   2.986   5.601   6.230  0.6667 -0.3525 -0.0898
 9749SOL    HW129931   2.972   5.635   6.318 -0.0032  0.5985 -0.5427
 9749SOL    HW229932   2.925   5.528   6.222  1.0998 -0.7765  0.4013
 9750SOL     OW29933   5.090   6.770   2.330 -0.1522 -0.6029  0.3356
 9750SOL    HW129934   5.114   6.797   2.419 -0.0279  1.2428 -0.2170
 9750SOL    HW229935   5.045   6.687   2.341 -1.1130  0.1232  2.2364
 9751SOL     OW29936   1.413   2.841   6.447 -0.3074 -0.0906 -0.5529
 9751SOL    HW129937   1.467   2.870   6.521 -0.8020 -1.4665  0.3950
 9751SOL    HW229938   1.323   2.842   6.481 -0.5327 -0.8282 -1.1037
 9752SOL     OW29939   4.574   6.821   2.617 -0.6291 -0.0692  0.1286
 9752SOL    HW129940   4.500   6.785   2.569  0.7068  1.3515 -3.3442
 9752SOL    HW229941   4.546   6.910   2.640 -0.1668  0.3814 -0.9683
 9753SOL     OW29942   4.575   2.709   6.546  0.2547 -0.0871  0.4549
 9753SOL    HW129943   4.591   2.785   6.602  2.3839  0.1249 -0.3317
 9753SOL    HW229944   4.663   2.679   6.521 -0.5833 -0.9712 -1.6748
 9754SOL     OW29945   5.691   1.297   1.275 -0.3786 -0.2213 -0.0545
 9754SOL    HW129946   5.709   1.390   1.291 -1.6421 -0.2665  2.0263
 9754SOL    HW229947   5.599   1.295   1.249 -0.6754 -0.9723  1.0119
 9755SOL     OW29948   0.302   2.157   0.716  0.0774 -0.0057 -0.2607
 9755SOL    HW129949   0.369   2.156   0.647  0.1879  1.3961 -0.2081
 9755SOL    HW229950   0.352   2.162   0.797 -0.0653 -1.1822 -0.0850
 9756SOL     OW29951   3.435   3.767   5.071  0.0089 -0.4039 -0.1331
 9756SOL    HW129952   3.391   3.751   5.155 -2.5963  1.0038 -1.1178
 9756SOL    HW229953   3.418   3.689   5.019  0.8075 -0.8712  0.2802
 9757SOL     OW29954   1.006   3.678   1.022 -0.0767  0.4742  0.8060
 9757SOL    HW129955   0.986   3.599   1.073 -1.8464  0.9325  0.8645
 9757SOL    HW229956   0.921   3.720   1.007  0.6929  1.7095 -0.3232
 9758SOL     OW29957   2.099   0.928   3.038  0.0224  0.8624 -0.0167
 9758SOL    HW129958   2.100   0.999   3.102  0.3358  0.3637  0.5427
 9758SOL    HW229959   2.010   0.894   3.042 -0.1516  1.2804 -0.3476
 9759SOL     OW29960   3.007   5.569   2.407 -0.3116  0.5915 -0.9140
 9759SOL    HW129961   2.912   5.560   2.412 -0.4827  1.0752 -2.5333
 9759SOL    HW229962   3.021   5.660   2.380  0.6387  0.6613 -0.2249
 9760SOL     OW29963   1.545   5.663   0.370 -0.3174  0.0034 -0.0494
 9760SOL    HW129964   1.513   5.746   0.335 -0.6551  0.0992  0.4850
 9760SOL    HW229965   1.466   5.617   0.399 -0.2504 -0.9891 -1.3729
 9761SOL     OW29966   6.007   5.836   0.985  0.3709  0.0027  0.0092
 9761SOL    HW129967   5.948   5.811   0.915 -0.6836 -1.2387  1.2857
 9761SOL    HW229968   6.090   5.856   0.941 -0.0518 -1.4254 -1.5205
 9762SOL     OW29969   3.018   1.873   2.016  0.2722 -0.1391  0.0323
 9762SOL    HW129970   3.042   1.934   2.085 -1.5152 -0.3128  0.8647
 9762SOL    HW229971   3.027   1.923   1.935  3.0686 -0.1378  0.2626
 9763SOL     OW29972   1.557   6.629   5.075 -0.3792 -0.1727 -0.0357
 9763SOL    HW129973   1.533   6.588   5.158 -0.2049 -0.8466 -0.3143
 9763SOL    HW229974   1.599   6.712   5.100  0.5725 -0.8323  0.5858
 9764SOL     OW29975   0.556   4.561   0.386 -0.3625 -0.1122  0.3309
 9764SOL    HW129976   0.506   4.639   0.361 -1.0579  0.2973  2.7163
 9764SOL    HW229977   0.489   4.493   0.400  0.0488 -0.5275  0.3096
 9765SOL     OW29978   2.733   6.476   1.170  0.6351 -0.4197 -0.3144
 9765SOL    HW129979   2.649   6.521   1.169  1.9707  2.3297  1.1547
 9765SOL    HW229980   2.736   6.431   1.255  1.1263  0.5107  0.1683
 9766SOL     OW29981   1.100   1.059   5.859 -0.1952  0.2647  0.1928
 9766SOL    HW129982   1.016   1.023   5.886 -0.0456  0.0273  0.3441
 9766SOL    HW229983   1.159   1.039   5.931 -0.2653  1.4077  0.5837
 9767SOL     OW29984   6.661   0.285   0.165  0.1671 -0.2836 -0.2455
 9767SOL    HW129985   6.633   0.262   0.077 -1.0880  1.8640 -0.4879
 9767SOL    HW229986   6.754   0.302   0.158  0.0053  0.2425 -1.2622
 9768SOL     OW29987   2.437   0.102   3.480  0.0190  0.3357 -0.6055
 9768SOL    HW129988   2.440   0.028   3.420  0.2169 -1.2414  1.2369
 9768SOL    HW229989   2.529   0.124   3.496  0.1098 -1.2052  1.3166
 9769SOL     OW29990   5.676   1.828   2.230 -0.7672 -0.2401  0.1720
 9769SOL    HW129991   5.732   1.774   2.285  0.3559  1.4655  0.8069
 9769SOL    HW229992   5.721   1.834   2.146 -0.5064  0.2814  0.3428
 9770SOL     OW29993   2.098   0.897   4.187  0.5705  0.6149 -0.5968
 9770SOL    HW129994   2.028   0.840   4.157  1.2302 -0.0712 -0.8525
 9770SOL    HW229995   2.097   0.887   4.282 -1.0136  2.2043 -0.3734
 9771SOL     OW29996   2.689   4.900   2.821  0.7969 -0.3837 -0.1195
 9771SOL    HW129997   2.735   4.827   2.864  0.0891 -1.1804 -0.6727
 9771SOL    HW229998   2.632   4.936   2.889  0.3283 -1.0751 -0.1288
 9772SOL     OW29999   3.109   3.578   2.561  0.1611 -0.0750 -0.3117
 9772SOL    HW130000   3.123   3.671   2.578 -1.5831  0.2091 -0.2639
 9772SOL    HW230001   3.126   3.536   2.645  0.0989  0.3039 -0.1064
 9773SOL     OW30002   2.550   2.971   4.183  0.2242  0.3679  0.2554
 9773SOL    HW130003   2.558   2.994   4.276 -0.5711 -0.8075  0.6447
 9773SOL    HW230004   2.497   3.041   4.145 -0.0428  0.5008  0.8550
 9774SOL     OW30005   6.543   6.642   2.567 -0.5199  0.0975 -0.4832
 9774SOL    HW130006   6.616   6.648   2.504 -0.5992  1.2980 -0.4873
 9774SOL    HW230007   6.575   6.687   2.645 -0.6635 -0.8212  0.1137
 9775SOL     OW30008   2.119   6.709   4.344  0.0198 -0.5729 -0.6819
 9775SOL    HW130009   2.025   6.716   4.328  0.3081  0.3255 -2.2088
 9775SOL    HW230010   2.150   6.799   4.346  0.6592 -0.7869  1.3298
 9776SOL     OW30011   4.791   5.858   4.931 -0.1503  0.9486 -0.1077
 9776SOL    HW130012   4.812   5.905   4.851 -4.3667  1.2146 -1.2787
 9776SOL    HW230013   4.792   5.925   4.999  0.5990  1.2803 -0.4262
 9777SOL     OW30014   2.340   5.401   4.353 -0.0585  0.6101 -0.7291
 9777SOL    HW130015   2.413   5.428   4.409 -1.2768  1.3789  0.5543
 9777SOL    HW230016   2.382   5.375   4.271  1.6211  1.3817 -0.1757
 9778SOL     OW30017   3.806   1.903   6.789  0.0685  0.2555 -0.0474
 9778SOL    HW130018   3.817   1.877   6.880  0.3904  0.9378  0.1131
 9778SOL    HW230019   3.810   1.821   6.740  1.8049  0.0423  0.3742
 9779SOL     OW30020   3.292   3.433   0.288 -0.2847  0.4082 -0.0620
 9779SOL    HW130021   3.318   3.404   0.376  0.7242 -1.0510 -0.8012
 9779SOL    HW230022   3.206   3.393   0.274 -0.0942 -0.0242 -0.0293
 9780SOL     OW30023   4.696   0.439   0.259  0.1245  0.1993 -0.6769
 9780SOL    HW130024   4.732   0.415   0.344  1.1116  0.0312 -1.1323
 9780SOL    HW230025   4.761   0.410   0.196 -0.4849  0.5373 -1.4808
 9781SOL     OW30026   2.100   6.145   4.650 -1.1777 -0.6067 -0.0090
 9781SOL    HW130027   2.088   6.074   4.588 -0.4528 -1.0805  0.3710
 9781SOL    HW230028   2.052   6.219   4.613  0.0226 -0.5955 -1.6221
 9782SOL     OW30029   1.900   5.996   2.524  0.6769 -0.4804 -0.0203
 9782SOL    HW130030   1.859   5.914   2.552  0.8883 -0.8006 -0.6318
 9782SOL    HW230031   1.840   6.032   2.458  0.6901 -0.2525  0.0908
 9783SOL     OW30032   3.077   4.749   0.375  0.0491 -0.4143  0.1307
 9783SOL    HW130033   3.067   4.844   0.366  0.3760 -0.4363 -0.6404
 9783SOL    HW230034   3.038   4.727   0.459 -0.3121  0.3634  0.1688
 9784SOL     OW30035   3.855   4.532   2.032 -0.3762 -0.5706  0.4327
 9784SOL    HW130036   3.927   4.551   1.971  0.1056 -2.9113  0.2030
 9784SOL    HW230037   3.889   4.464   2.089 -1.2831  0.6843  2.5669
 9785SOL     OW30038   2.527   1.870   2.083  0.3886  0.5656  0.4962
 9785SOL    HW130039   2.521   1.965   2.089 -0.1260  0.6113 -0.4952
 9785SOL    HW230040   2.616   1.850   2.113  1.1769  1.5416 -1.0478
 9786SOL     OW30041   3.206   6.367   4.050 -0.0925  0.0910 -0.0892
 9786SOL    HW130042   3.223   6.456   4.021 -0.2511 -0.3897 -1.7487
 9786SOL    HW230043   3.289   6.338   4.088  1.1880 -0.2791 -2.9062
 9787SOL     OW30044   4.872   6.438   4.757  0.1735  0.1193  0.1758
 9787SOL    HW130045   4.882   6.451   4.663 -0.2433 -2.4521 -0.3115
 9787SOL    HW230046   4.783   6.404   4.767  0.7573 -1.1797  1.2587
 9788SOL     OW30047   5.425   3.232   2.354 -0.3495  0.1149 -0.3572
 9788SOL    HW130048   5.416   3.316   2.309  0.6999 -0.3069 -1.4142
 9788SOL    HW230049   5.515   3.230   2.385  0.1881 -1.3285 -1.8830
 9789SOL     OW30050   3.297   5.464   1.288 -0.2676  0.0666 -0.0641
 9789SOL    HW130051   3.337   5.458   1.201  1.0826  0.2715  0.5219
 9789SOL    HW230052   3.356   5.519   1.338 -0.6347 -0.6535  1.2087
 9790SOL     OW30053   4.290   0.345   3.309 -0.2099  0.4950 -0.2196
 9790SOL    HW130054   4.373   0.304   3.334 -0.9139 -2.5777 -2.2758
 9790SOL    HW230055   4.312   0.437   3.296  2.7857 -0.0970 -0.1605
 9791SOL     OW30056   1.361   3.880   6.533  0.2781  0.4157 -0.2773
 9791SOL    HW130057   1.304   3.957   6.525  1.2645  1.1277 -0.5990
 9791SOL    HW230058   1.329   3.820   6.465  0.1789  0.9836 -0.7452
 9792SOL     OW30059   3.337   4.184   1.259 -0.1157 -0.3878 -0.1221
 9792SOL    HW130060   3.376   4.125   1.324 -0.1828 -0.8513 -0.5017
 9792SOL    HW230061   3.353   4.142   1.175 -0.0865  0.1825 -0.4045
 9793SOL     OW30062   2.180   5.822   5.056 -0.0730 -0.2068 -0.3517
 9793SOL    HW130063   2.233   5.842   4.979  0.2813 -1.8078 -0.5673
 9793SOL    HW230064   2.121   5.897   5.065  2.1951  1.6697 -0.0852
 9794SOL     OW30065   0.511   5.896   1.101  0.1313 -0.4936  0.3175
 9794SOL    HW130066   0.423   5.921   1.129 -0.6606  0.4716 -2.6171
 9794SOL    HW230067   0.500   5.865   1.011  2.9495  1.2687 -0.7972
 9795SOL     OW30068   0.532   4.384   3.940 -0.0293  0.0115  0.6084
 9795SOL    HW130069   0.524   4.306   3.994 -1.1529  0.9601  1.8866
 9795SOL    HW230070   0.568   4.451   3.999  0.1060  0.6928 -0.2247
 9796SOL     OW30071   5.145   5.483   3.013  0.6999 -0.2682  0.4405
 9796SOL    HW130072   5.074   5.420   2.999 -0.8089  1.6037 -0.7184
 9796SOL    HW230073   5.217   5.449   2.959  0.5128 -1.8384  1.1186
 9797SOL     OW30074   3.637   5.158   0.669 -0.0853  1.0098 -0.5602
 9797SOL    HW130075   3.718   5.174   0.619  0.4527  1.1816  0.3442
 9797SOL    HW230076   3.572   5.137   0.602  0.8070  0.4405 -1.2849
 9798SOL     OW30077   0.367   0.747   4.573  0.2599  0.5625 -0.8930
 9798SOL    HW130078   0.355   0.773   4.481 -2.1704  0.2602 -0.7291
 9798SOL    HW230079   0.285   0.703   4.596  0.9214  0.4017  1.3603
 9799SOL     OW30080   3.493   5.669   0.799 -0.1243  0.3198  0.0834
 9799SOL    HW130081   3.561   5.663   0.865  0.9385 -0.6248 -1.0321
 9799SOL    HW230082   3.411   5.663   0.847  0.5936  0.8264  1.4013
 9800SOL     OW30083   4.658   0.176   5.895 -0.0715 -0.6108 -0.4193
 9800SOL    HW130084   4.642   0.249   5.955  0.2808 -0.9497  0.1048
 9800SOL    HW230085   4.749   0.152   5.911  0.0838 -0.5835 -1.2401
 9801SOL     OW30086   3.464   1.322   3.509 -0.1511  0.2477 -0.0605
 9801SOL    HW130087   3.375   1.355   3.512 -0.9576 -1.5947 -1.6456
 9801SOL    HW230088   3.491   1.330   3.418 -0.1400 -2.6107 -0.3941
 9802SOL     OW30089   5.303   0.072   3.958 -0.1748  0.2340  0.1790
 9802SOL    HW130090   5.350  -0.005   3.990 -2.3707 -1.1510  0.2875
 9802SOL    HW230091   5.298   0.059   3.863  2.7552  2.2693 -0.3907
 9803SOL     OW30092   6.668   3.819   0.734  0.1107  0.0060  0.0043
 9803SOL    HW130093   6.679   3.832   0.828  0.4486  0.0166 -0.0355
 9803SOL    HW230094   6.720   3.890   0.695  0.2588 -0.2117 -0.1928
 9804SOL     OW30095   1.441   6.771   3.678  0.7067 -0.0367  0.6521
 9804SOL    HW130096   1.495   6.714   3.732  1.4861 -0.9199 -0.9697
 9804SOL    HW230097   1.494   6.849   3.664  0.8266 -0.1334  0.5559
 9805SOL     OW30098   2.130   3.034   6.051  0.2075 -0.1082 -0.3326
 9805SOL    HW130099   2.101   3.105   5.993 -0.7433 -0.8646 -0.8339
 9805SOL    HW230100   2.126   2.955   5.996 -0.2963 -0.7825  0.6294
 9806SOL     OW30101   0.610   4.319   5.537 -0.1096 -0.3347  0.1794
 9806SOL    HW130102   0.638   4.317   5.629 -1.0462 -0.2003  0.4745
 9806SOL    HW230103   0.689   4.345   5.489  0.8478 -1.9867  0.7536
 9807SOL     OW30104   1.752   3.208   0.942  0.1602  0.0033 -0.7118
 9807SOL    HW130105   1.742   3.225   1.035  0.4821  0.1141 -0.6931
 9807SOL    HW230106   1.737   3.114   0.932  1.6384 -0.3093 -0.3057
 9808SOL     OW30107   6.169   0.686   3.115  0.1625  0.2868  0.2132
 9808SOL    HW130108   6.137   0.776   3.118 -0.1139  0.1632  1.6530
 9808SOL    HW230109   6.092   0.633   3.134  0.3397 -0.2652 -0.5626
 9809SOL     OW30110   6.418   1.185   3.538 -0.0034 -0.3144 -0.1721
 9809SOL    HW130111   6.427   1.196   3.443  0.0934 -0.3980 -0.1721
 9809SOL    HW230112   6.391   1.272   3.569 -0.1264 -0.3116 -0.2877
 9810SOL     OW30113   1.915   2.152   1.101  0.5355  0.0783 -0.4369
 9810SOL    HW130114   1.833   2.200   1.113  0.8300  1.0561 -2.0300
 9810SOL    HW230115   1.977   2.194   1.161  0.6355  1.3557 -1.4014
 9811SOL     OW30116   3.460   6.725   4.385 -0.5075 -0.4161 -0.3210
 9811SOL    HW130117   3.475   6.698   4.295  0.5716 -0.7718 -0.0430
 9811SOL    HW230118   3.546   6.747   4.419 -1.0025  0.5551  0.3752
 9812SOL     OW30119   4.306   2.643   6.494 -0.2923 -0.1179 -0.7491
 9812SOL    HW130120   4.277   2.714   6.551  0.2968 -1.8674  1.9310
 9812SOL    HW230121   4.401   2.641   6.505 -0.4228 -2.4868  0.9150
 9813SOL     OW30122   3.749   3.782   4.772 -0.2669 -0.0671 -0.0606
 9813SOL    HW130123   3.778   3.861   4.727 -0.2957 -0.2738 -0.4391
 9813SOL    HW230124   3.660   3.802   4.802 -0.4698 -0.1485 -0.6132
 9814SOL     OW30125   6.508   4.559   1.764  0.2298  0.4696 -0.3518
 9814SOL    HW130126   6.450   4.498   1.810  0.9994 -0.5855 -0.7515
 9814SOL    HW230127   6.540   4.618   1.832 -1.0344  0.8612 -0.0689
 9815SOL     OW30128   6.530   5.053   1.993 -0.3551  0.9673 -0.1126
 9815SOL    HW130129   6.478   4.983   2.032 -2.2143  1.8425 -0.9142
 9815SOL    HW230130   6.561   5.105   2.068  0.4642 -0.2737  0.4429
 9816SOL     OW30131   6.165   3.658   2.719  0.3110 -0.3847  0.1979
 9816SOL    HW130132   6.126   3.571   2.724 -1.0182  0.1515 -0.3193
 9816SOL    HW230133   6.112   3.711   2.779  0.4980  0.2665 -0.2024
 9817SOL     OW30134   2.165   2.830   1.180  0.3730  0.0024  0.2303
 9817SOL    HW130135   2.260   2.813   1.184  0.3187 -0.8900 -1.3547
 9817SOL    HW230136   2.157   2.925   1.192  1.3403 -0.0551  1.6211
 9818SOL     OW30137   3.434   2.768   2.703  0.2715 -0.0865  0.2212
 9818SOL    HW130138   3.391   2.839   2.655  0.5160  1.5183  2.2306
 9818SOL    HW230139   3.467   2.710   2.635 -1.0042  1.0736 -1.4856
 9819SOL     OW30140   1.309   0.941   6.358 -0.1213  0.4819 -0.4780
 9819SOL    HW130141   1.319   1.025   6.404  0.4056  0.7393 -1.0601
 9819SOL    HW230142   1.217   0.940   6.331 -0.0205  1.0681 -0.8519
 9820SOL     OW30143   5.580   1.351   3.091 -0.1283 -0.2048 -0.0019
 9820SOL    HW130144   5.578   1.430   3.146 -0.4522  0.8169 -1.4395
 9820SOL    HW230145   5.507   1.361   3.031 -0.3675 -1.7779 -0.0104
 9821SOL     OW30146   6.158   6.409   4.226 -0.1087 -0.2939 -0.0326
 9821SOL    HW130147   6.110   6.460   4.161  0.2927 -0.3420 -0.3672
 9821SOL    HW230148   6.111   6.426   4.308 -0.2546  0.2493 -0.2198
 9822SOL     OW30149   4.000   2.494   4.346 -0.2130  0.1039 -0.0637
 9822SOL    HW130150   4.025   2.416   4.394 -0.0909 -0.0201 -0.3283
 9822SOL    HW230151   3.968   2.554   4.414 -1.7441 -0.7249 -0.0205
 9823SOL     OW30152   6.498   2.951   0.373  0.3295 -0.1368  0.1747
 9823SOL    HW130153   6.437   2.879   0.358 -1.1749  1.2154 -0.4756
 9823SOL    HW230154   6.573   2.931   0.317  1.9683 -3.3642  3.1518
 9824SOL     OW30155   2.936   6.782   2.900  0.1838 -0.3877  0.4104
 9824SOL    HW130156   2.949   6.837   2.977  1.6858 -0.6610  0.3816
 9824SOL    HW230157   2.854   6.735   2.917 -1.2514  1.9186  0.3629
 9825SOL     OW30158   4.883   0.702   0.952  0.0726 -0.3433 -0.1253
 9825SOL    HW130159   4.843   0.688   1.037 -0.2188 -0.6562 -0.3095
 9825SOL    HW230160   4.944   0.774   0.965  1.1276 -1.3699  0.6943
 9826SOL     OW30161   5.925   5.845   2.874  0.6467 -0.9057  0.5369
 9826SOL    HW130162   5.965   5.782   2.814  1.3926 -1.0336  1.1494
 9826SOL    HW230163   5.853   5.797   2.915  0.0468 -0.7783 -0.3234
 9827SOL     OW30164   6.495   4.597   3.803  0.4074 -0.9419 -0.1129
 9827SOL    HW130165   6.474   4.627   3.714 -0.4161 -0.1791  0.3224
 9827SOL    HW230166   6.417   4.551   3.832 -0.6915  1.7143  1.4401
 9828SOL     OW30167   0.770   5.588   2.560  0.2084 -0.1583  0.1610
 9828SOL    HW130168   0.845   5.561   2.507  0.4120  0.6872  0.0027
 9828SOL    HW230169   0.737   5.667   2.517 -1.5856 -1.2258 -0.5211
 9829SOL     OW30170   3.142   6.153   5.054 -0.1689 -0.1569 -0.3748
 9829SOL    HW130171   3.064   6.184   5.008  0.2171  0.4753 -0.6090
 9829SOL    HW230172   3.179   6.231   5.095  0.7410 -0.3091 -0.8696
 9830SOL     OW30173   4.725   0.356   5.630 -0.5993 -0.1655 -0.4822
 9830SOL    HW130174   4.709   0.289   5.696  0.5105  0.4963  0.5012
 9830SOL    HW230175   4.651   0.349   5.570 -2.2027 -0.1284  1.3896
 9831SOL     OW30176   0.336   1.273   2.967  0.1092  0.7224  0.5058
 9831SOL    HW130177   0.401   1.343   2.971  1.4009 -0.3139 -0.9952
 9831SOL    HW230178   0.260   1.314   2.925  1.0062  1.1582 -0.7767
 9832SOL     OW30179   1.122   1.424   5.539 -0.4340 -0.2740 -0.8037
 9832SOL    HW130180   1.156   1.347   5.584 -1.3664  0.5370  1.4451
 9832SOL    HW230181   1.157   1.498   5.588 -1.5552  0.6646 -1.3619
 9833SOL     OW30182   1.653   1.317   3.516 -0.0530 -0.4129  0.0375
 9833SOL    HW130183   1.653   1.407   3.482  1.0852  0.1728  1.4778
 9833SOL    HW230184   1.674   1.327   3.609  1.3771 -2.2520 -0.0439
 9834SOL     OW30185   2.220   1.771   1.610 -0.0288 -0.3207 -0.0657
 9834SOL    HW130186   2.305   1.814   1.607 -1.7637  3.5745 -1.0308
 9834SOL    HW230187   2.194   1.775   1.702  1.3328 -2.9800  0.5292
 9835SOL     OW30188   5.147   6.860   2.705  0.2576 -0.5553 -0.2135
 9835SOL    HW130189   5.208   6.835   2.635  2.2420 -2.4107  2.0285
 9835SOL    HW230190   5.198   6.852   2.785 -2.2628  0.3715  1.5986
 9836SOL     OW30191   1.164   0.038   2.261  0.5870  0.1679  0.0666
 9836SOL    HW130192   1.153   0.061   2.353 -2.4448  0.9025 -0.3654
 9836SOL    HW230193   1.160   0.122   2.215  0.1022 -0.3415 -0.8463
 9837SOL     OW30194   4.028   5.155   1.632 -0.5422 -0.2231 -0.2608
 9837SOL    HW130195   3.969   5.146   1.707 -1.3219  1.1916 -0.6721
 9837SOL    HW230196   3.970   5.155   1.556 -0.0168  0.9943 -0.6859
 9838SOL     OW30197   3.405   2.415   6.786  0.2865  0.2239  0.3111
 9838SOL    HW130198   3.465   2.387   6.718 -1.2426 -0.0697 -0.9811
 9838SOL    HW230199   3.456   2.412   6.867  2.2533  0.9107 -0.8455
 9839SOL     OW30200   4.963   5.337   4.648 -0.4010 -0.0233 -0.2080
 9839SOL    HW130201   5.032   5.400   4.628 -0.9709  0.6908  0.0058
 9839SOL    HW230202   4.896   5.389   4.693 -0.0045 -1.1888  1.8282
 9840SOL     OW30203   4.665   3.450   2.063  0.0531  0.3074  0.5157
 9840SOL    HW130204   4.706   3.394   1.998 -0.6771 -1.0428  1.1832
 9840SOL    HW230205   4.719   3.440   2.141  0.5414  1.4018  0.3413
 9841SOL     OW30206   1.362   5.496   1.265  0.0868 -0.0962  0.5304
 9841SOL    HW130207   1.339   5.405   1.250  0.1318 -0.0637  0.2672
 9841SOL    HW230208   1.449   5.506   1.228 -0.2098  0.2339 -0.0911
 9842SOL     OW30209   1.511   0.494   1.531  0.5783 -0.1012 -0.2295
 9842SOL    HW130210   1.426   0.536   1.521  1.0479  1.2446  1.0161
 9842SOL    HW230211   1.574   0.555   1.493  1.0199 -1.0252 -1.0310
 9843SOL     OW30212   4.719   4.696   3.565  0.0026 -1.0172 -0.3750
 9843SOL    HW130213   4.691   4.769   3.621  0.4121 -0.8533 -0.3819
 9843SOL    HW230214   4.701   4.618   3.617  0.5596 -0.8568  0.0752
 9844SOL     OW30215   0.215   2.715   2.194  1.3353  0.1720 -0.2497
 9844SOL    HW130216   0.176   2.658   2.128  1.7133  0.7296 -0.9645
 9844SOL    HW230217   0.235   2.796   2.148  0.9596  0.8343  0.7164
 9845SOL     OW30218   3.590   4.466   1.950 -0.2743 -0.5595  0.5850
 9845SOL    HW130219   3.552   4.554   1.941  0.3092 -0.4374 -0.8294
 9845SOL    HW230220   3.684   4.481   1.949 -0.1720 -1.2212  0.1187
 9846SOL     OW30221   1.781   0.548   4.995  0.1490  0.6658  0.3322
 9846SOL    HW130222   1.840   0.622   5.012 -0.7840  1.5080  0.0263
 9846SOL    HW230223   1.807   0.481   5.058 -0.1233  1.9145  1.8414
 9847SOL     OW30224   6.162   1.018   3.478  0.3670 -0.5262 -0.3165
 9847SOL    HW130225   6.229   1.081   3.502  1.0938 -1.1634 -0.6149
 9847SOL    HW230226   6.178   0.943   3.535 -0.0463 -0.7083 -0.4358
 9848SOL     OW30227   1.542   0.817   6.312 -0.5622  0.6755 -0.0597
 9848SOL    HW130228   1.538   0.813   6.216  0.9745  3.5148 -0.3695
 9848SOL    HW230229   1.461   0.862   6.337 -0.7167  0.4124 -0.0912
 9849SOL     OW30230   2.845   0.700   0.376 -0.0662  0.3026  0.0891
 9849SOL    HW130231   2.823   0.781   0.331  0.4988  0.0261 -0.7292
 9849SOL    HW230232   2.776   0.688   0.441  0.4349  2.0052  1.0012
 9850SOL     OW30233   6.001   0.382   4.177  0.2526 -0.1755  0.1758
 9850SOL    HW130234   5.986   0.471   4.210 -1.2209 -0.5789  0.6851
 9850SOL    HW230235   5.932   0.369   4.112  2.9786  0.5145 -3.1003
 9851SOL     OW30236   3.781   2.457   5.709  0.0094  0.0521  0.2898
 9851SOL    HW130237   3.698   2.414   5.731  0.2635  0.4874  2.3470
 9851SOL    HW230238   3.765   2.550   5.729  1.0503  0.1020  0.9865
 9852SOL     OW30239   5.819   1.807   1.976  0.5881 -0.2534 -0.0962
 9852SOL    HW130240   5.787   1.756   1.902 -0.4423 -1.0608  0.8828
 9852SOL    HW230241   5.840   1.893   1.938  0.5922 -0.8085 -1.4127
 9853SOL     OW30242   3.056   1.693   6.163 -0.2868 -0.0425  0.2873
 9853SOL    HW130243   3.106   1.742   6.228  1.3497 -3.8845  2.2735
 9853SOL    HW230244   2.965   1.701   6.192 -0.2416  2.4906 -0.0892
 9854SOL     OW30245   4.372   5.353   3.579 -0.2226  0.3716 -0.2430
 9854SOL    HW130246   4.402   5.373   3.490  0.4789  0.4104  0.0011
 9854SOL    HW230247   4.362   5.258   3.580  2.1564  0.0690  0.3533
 9855SOL     OW30248   1.131   1.054   4.171  0.2993 -0.0110 -0.4583
 9855SOL    HW130249   1.064   1.121   4.178 -0.0299 -0.3449 -0.3869
 9855SOL    HW230250   1.128   1.026   4.080  1.2586  0.9103 -0.7895
 9856SOL     OW30251   0.474   2.853   0.057  0.3301  0.1682 -0.3308
 9856SOL    HW130252   0.502   2.779   0.004  1.9406 -0.2717  1.0746
 9856SOL    HW230253   0.537   2.858   0.128 -0.5261  2.0651  0.3764
 9857SOL     OW30254   2.841   5.163   6.035 -0.1255  0.5089 -0.2369
 9857SOL    HW130255   2.890   5.189   5.956  0.5587  0.0544  0.0323
 9857SOL    HW230256   2.909   5.145   6.100 -0.4199 -3.2345 -0.7593
 9858SOL     OW30257   4.320   3.904   4.022  0.5462 -0.5291 -1.0388
 9858SOL    HW130258   4.388   3.963   4.055 -0.9709 -0.1751  1.7240
 9858SOL    HW230259   4.359   3.817   4.027  1.0319 -0.2678 -0.1451
 9859SOL     OW30260   4.244   5.697   4.576  0.5307  0.6033  0.7546
 9859SOL    HW130261   4.272   5.632   4.512 -0.1140  1.0271  0.0219
 9859SOL    HW230262   4.324   5.744   4.599  0.8008  0.3253  0.3921
 9860SOL     OW30263   0.137   0.786   2.252 -0.8305 -0.3176  0.6005
 9860SOL    HW130264   0.148   0.691   2.249 -2.4424 -0.5265  0.5016
 9860SOL    HW230265   0.053   0.799   2.297 -1.0060  1.0261 -0.0704
 9861SOL     OW30266   0.313   5.506   6.236 -0.2377 -0.5726  0.1349
 9861SOL    HW130267   0.226   5.526   6.271 -0.5880  0.9058 -1.4302
 9861SOL    HW230268   0.348   5.591   6.208  1.4793 -1.2191  0.1792
 9862SOL     OW30269   5.372   6.640   6.831 -0.5288 -0.5773 -0.0843
 9862SOL    HW130270   5.298   6.591   6.867 -1.3566  0.6879  0.0021
 9862SOL    HW230271   5.426   6.661   6.907 -1.7161  1.1540  0.3443
 9863SOL     OW30272   4.526   1.998   1.952 -0.0205  0.0188  0.0200
 9863SOL    HW130273   4.433   1.981   1.942  0.4141 -3.4336  0.4853
 9863SOL    HW230274   4.539   2.006   2.046  0.2589 -0.7379  0.0588
 9864SOL     OW30275   2.448   1.547   2.590  0.3139  0.0124  0.2955
 9864SOL    HW130276   2.534   1.507   2.581  0.3126 -0.1151  0.7946
 9864SOL    HW230277   2.415   1.513   2.673  0.2543  0.9180  0.6547
 9865SOL     OW30278   1.303   5.104   4.665  0.1187 -0.0239  0.0284
 9865SOL    HW130279   1.343   5.020   4.684 -1.2304 -0.9375 -0.9755
 9865SOL    HW230280   1.377   5.165   4.655  1.0778 -0.7956  1.8798
 9866SOL     OW30281   1.281   4.575   1.022  0.0539  0.2268  0.1143
 9866SOL    HW130282   1.220   4.613   1.085 -0.4210 -1.5281  0.7593
 9866SOL    HW230283   1.232   4.504   0.981  1.2925 -0.4734 -0.1859
 9867SOL     OW30284   1.491   4.058   2.875 -0.4446 -0.1883  0.0640
 9867SOL    HW130285   1.531   4.058   2.962 -0.5068 -0.9623  0.1024
 9867SOL    HW230286   1.503   4.147   2.843 -0.4994  0.1328  0.9018
 9868SOL     OW30287   4.021   6.699   0.406 -0.6448  0.8076 -0.5335
 9868SOL    HW130288   3.979   6.654   0.479  2.1301  0.6749  1.1151
 9868SOL    HW230289   4.104   6.653   0.393  0.3065  2.7021 -1.7169
 9869SOL     OW30290   4.310   0.635   5.161  0.4927  0.9868  0.0766
 9869SOL    HW130291   4.287   0.543   5.144 -1.3563  0.8210  2.8488
 9869SOL    HW230292   4.238   0.668   5.214  1.7668  3.6898  0.2731
 9870SOL     OW30293   2.429   2.409   5.308 -0.3985  0.5392 -0.8724
 9870SOL    HW130294   2.451   2.472   5.377 -0.9259  0.8720 -1.0008
 9870SOL    HW230295   2.350   2.444   5.268 -0.4687  0.0015 -1.2166
 9871SOL     OW30296   5.543   0.847   6.584  0.2076  0.7154  0.0436
 9871SOL    HW130297   5.467   0.902   6.566 -1.5986 -1.4393  0.6569
 9871SOL    HW230298   5.603   0.864   6.511 -2.0482  0.4769 -1.9861
 9872SOL     OW30299   0.003   4.935   5.479 -0.6747 -0.4391  0.7494
 9872SOL    HW130300   0.089   4.915   5.442 -0.1805  1.8248  0.5684
 9872SOL    HW230301  -0.055   4.871   5.439  0.4798 -0.3643 -1.1512
 9873SOL     OW30302   1.954   6.852   6.582  1.1690 -0.1596  0.1223
 9873SOL    HW130303   1.925   6.936   6.547  1.5918 -0.2116 -0.3614
 9873SOL    HW230304   1.982   6.802   6.505  1.6771 -0.4422  0.4868
 9874SOL     OW30305   6.804   0.292   2.885 -0.0110 -0.8051 -1.0245
 9874SOL    HW130306   6.757   0.340   2.953  1.8872 -0.6661  0.2473
 9874SOL    HW230307   6.809   0.202   2.918  2.6187 -0.3463  0.0548
 9875SOL     OW30308   0.087   3.424   0.021 -0.0270  0.0999 -0.4252
 9875SOL    HW130309   0.018   3.487   0.042 -0.0902  0.1214 -0.6901
 9875SOL    HW230310   0.160   3.448   0.078 -0.7950 -0.9367  1.0281
 9876SOL     OW30311   1.141   2.038   3.709 -0.0863 -0.1030 -0.0572
 9876SOL    HW130312   1.135   2.106   3.777 -0.7308  0.9569 -1.1233
 9876SOL    HW230313   1.066   1.982   3.724 -0.7610  0.6751 -0.4246
 9877SOL     OW30314   2.059   4.598   4.882 -0.4424 -0.3636 -0.0730
 9877SOL    HW130315   2.041   4.565   4.794 -0.6433 -2.8429  0.8313
 9877SOL    HW230316   2.100   4.684   4.867 -0.6204 -0.6290 -2.5548
 9878SOL     OW30317   6.710   0.121   1.386 -0.1865  0.7795  0.2334
 9878SOL    HW130318   6.670   0.134   1.300 -1.7910  0.7722  0.9458
 9878SOL    HW230319   6.751   0.034   1.380 -0.3800  0.7335 -0.4893
 9879SOL     OW30320   4.802   2.900   4.389  0.2848  0.2140  0.3979
 9879SOL    HW130321   4.848   2.983   4.402  0.3467  0.1314  0.7026
 9879SOL    HW230322   4.870   2.840   4.357  0.4027  0.0792  0.8926
 9880SOL     OW30323   5.714   5.624   2.174  0.5801  0.0706  0.0382
 9880SOL    HW130324   5.775   5.551   2.182 -0.1361 -0.3457  2.2964
 9880SOL    HW230325   5.635   5.595   2.218  0.4551  2.3800  1.5014
 9881SOL     OW30326   3.102   4.144   2.605 -0.1987 -0.0694 -0.3173
 9881SOL    HW130327   3.030   4.178   2.659 -0.8806 -0.7644 -0.7534
 9881SOL    HW230328   3.181   4.180   2.644 -0.7849  0.6509  0.2277
 9882SOL     OW30329   1.878   2.166   4.929  0.6389  0.1874 -0.9923
 9882SOL    HW130330   1.839   2.213   4.855 -0.8712  0.2426 -0.1993
 9882SOL    HW230331   1.888   2.076   4.898 -0.6210  0.0571 -1.0513
 9883SOL     OW30332   3.426   0.827   6.398  0.0415  0.0735  0.2540
 9883SOL    HW130333   3.363   0.842   6.328 -0.6945  0.2811  0.9493
 9883SOL    HW230334   3.416   0.734   6.420  0.6824 -0.1305 -0.3047
 9884SOL     OW30335   1.050   1.208   0.702  0.3756  0.1975  0.1621
 9884SOL    HW130336   1.117   1.213   0.634  0.6466 -0.0705  0.4058
 9884SOL    HW230337   0.999   1.130   0.678  1.5154 -0.9207  1.1912
 9885SOL     OW30338   0.854   3.187   6.657 -0.0117 -0.3055  0.0997
 9885SOL    HW130339   0.854   3.282   6.663  0.0154 -0.1639 -1.6863
 9885SOL    HW230340   0.918   3.159   6.722  2.6528  1.1165 -1.7384
 9886SOL     OW30341   1.166   3.516   3.737 -0.4792  0.5496  0.0694
 9886SOL    HW130342   1.127   3.431   3.718 -3.0570  1.3445  1.3237
 9886SOL    HW230343   1.224   3.533   3.663 -0.5472 -1.8855 -0.6269
 9887SOL     OW30344   1.556   0.040   1.286 -0.0666  0.4534  0.3602
 9887SOL    HW130345   1.619   0.094   1.334  1.2528 -0.7162 -0.0015
 9887SOL    HW230346   1.525   0.098   1.216  2.2082  0.4655 -0.7433
 9888SOL     OW30347   1.568   2.712   2.093 -0.1689  0.2840 -0.6568
 9888SOL    HW130348   1.598   2.734   2.181  0.0789  1.1684 -0.9584
 9888SOL    HW230349   1.613   2.630   2.072 -1.3454 -0.7540  0.5978
 9889SOL     OW30350   3.799   3.474   3.905  0.1230 -0.0950  0.6430
 9889SOL    HW130351   3.721   3.421   3.925 -0.9033  1.1472  0.0789
 9889SOL    HW230352   3.825   3.446   3.817 -1.7216  1.7487 -0.5829
 9890SOL     OW30353   0.940   2.224   6.601 -0.1334 -0.4445  0.2457
 9890SOL    HW130354   0.955   2.309   6.559 -1.4342  0.0095  0.6695
 9890SOL    HW230355   1.027   2.197   6.631  0.7124 -0.3771 -1.9398
 9891SOL     OW30356   4.524   1.884   0.038 -0.3550 -0.0366  0.5157
 9891SOL    HW130357   4.493   1.971   0.015  1.8047  0.4406 -0.8032
 9891SOL    HW230358   4.469   1.858   0.112 -2.2795  1.6484 -0.2426
 9892SOL     OW30359   2.411   2.181   6.381  0.1978  0.1652  0.0920
 9892SOL    HW130360   2.347   2.252   6.387  1.1468  0.9082  2.2443
 9892SOL    HW230361   2.489   2.222   6.344  0.6498  0.2093  1.0585
 9893SOL     OW30362   2.268   2.240   0.335 -0.5256 -0.0623 -0.0516
 9893SOL    HW130363   2.234   2.152   0.317 -3.0352  0.1343  2.8842
 9893SOL    HW230364   2.195   2.299   0.314  0.2414  1.0661  0.3711
 9894SOL     OW30365   3.555   4.239   0.598  0.2198  0.2489  0.7555
 9894SOL    HW130366   3.476   4.186   0.588  1.0373 -1.2282  1.7775
 9894SOL    HW230367   3.573   4.238   0.692 -0.0384  2.8657  0.9211
 9895SOL     OW30368   6.488   4.745   2.641  0.0147 -0.0980  0.1479
 9895SOL    HW130369   6.523   4.741   2.730  1.2053 -3.3333 -0.3400
 9895SOL    HW230370   6.523   4.826   2.605  1.5910  0.0201  1.8273
 9896SOL     OW30371   5.790   1.978   4.318  0.5401 -0.5244  0.7094
 9896SOL    HW130372   5.711   2.021   4.350  1.3444  2.2591 -0.6948
 9896SOL    HW230373   5.759   1.917   4.251 -0.4203  1.9451 -1.2422
 9897SOL     OW30374   3.044   6.060   2.174  0.3472  0.0005  0.4227
 9897SOL    HW130375   3.076   6.139   2.130 -0.1464  1.0188  1.8356
 9897SOL    HW230376   3.050   5.992   2.107  1.5966  1.0340 -0.5705
 9898SOL     OW30377   2.257   4.434   2.158  0.0215  0.6743 -0.7098
 9898SOL    HW130378   2.318   4.429   2.232 -0.5877  0.5243 -0.2038
 9898SOL    HW230379   2.294   4.375   2.093 -0.5447 -0.9041  0.3295
 9899SOL     OW30380   3.524   2.432   0.140 -0.6466 -0.6941  0.3142
 9899SOL    HW130381   3.550   2.403   0.227 -0.5055  0.2498  0.5918
 9899SOL    HW230382   3.519   2.527   0.146 -0.2213 -0.5797 -0.8139
 9900SOL     OW30383   2.220   1.821   2.978 -0.1131  0.0776  0.1974
 9900SOL    HW130384   2.176   1.768   3.044 -0.5936  0.0110 -0.1666
 9900SOL    HW230385   2.280   1.877   3.027  1.1992 -1.5323  0.5136
 9901SOL     OW30386   3.638   1.949   4.509 -0.2252  0.0507  0.1779
 9901SOL    HW130387   3.624   1.994   4.592  0.7196  1.1848 -0.2457
 9901SOL    HW230388   3.733   1.938   4.504 -0.0819  1.5843 -1.5260
 9902SOL     OW30389   5.220   1.354   4.414  0.0288 -0.7581  0.0479
 9902SOL    HW130390   5.265   1.303   4.346  0.6704 -0.0012 -0.1150
 9902SOL    HW230391   5.283   1.357   4.486  0.3651  0.5345 -0.2795
 9903SOL     OW30392   1.844   3.476   5.978 -0.2338  0.3745  0.4264
 9903SOL    HW130393   1.856   3.571   5.969 -1.3256  0.6194  1.3262
 9903SOL    HW230394   1.901   3.451   6.051  0.7947  0.1472 -0.4251
 9904SOL     OW30395   0.584   4.986   3.143 -0.4691  0.1018  0.0300
 9904SOL    HW130396   0.575   4.896   3.176 -0.2055  0.1034  0.1088
 9904SOL    HW230397   0.626   5.033   3.214 -1.5890  0.5535  0.4247
 9905SOL     OW30398   2.193   5.506   2.559  0.2563  0.1295 -0.0245
 9905SOL    HW130399   2.165   5.443   2.625 -0.8386 -0.7598 -1.2950
 9905SOL    HW230400   2.198   5.589   2.606 -1.3327 -0.3082  0.9950
 9906SOL     OW30401   5.415   1.909   3.935  0.6669 -1.0645  0.7315
 9906SOL    HW130402   5.323   1.917   3.963  0.8187  0.3971  0.8708
 9906SOL    HW230403   5.463   1.889   4.015  0.6391 -0.5114  0.8854
 9907SOL     OW30404   6.441   0.835   4.863  0.0873 -0.0883  0.1819
 9907SOL    HW130405   6.393   0.906   4.905  0.1882 -0.0703  0.2672
 9907SOL    HW230406   6.374   0.771   4.840 -0.0375  0.1621 -0.1560
 9908SOL     OW30407   0.052   0.377   1.547  0.6620 -0.1969 -0.0209
 9908SOL    HW130408   0.121   0.425   1.501  1.2701 -1.1038 -0.0816
 9908SOL    HW230409   0.097   0.337   1.622  0.5374 -2.0274 -0.8822
 9909SOL     OW30410   5.692   0.329   4.369 -0.4070  0.1669  0.2489
 9909SOL    HW130411   5.673   0.417   4.336 -0.1510  0.1708  0.1067
 9909SOL    HW230412   5.767   0.341   4.427  0.6134 -0.1831 -0.9672
 9910SOL     OW30413   6.073   6.825   1.180 -0.5239 -0.1586  0.2607
 9910SOL    HW130414   5.992   6.783   1.151 -0.4054 -0.5923  0.5527
 9910SOL    HW230415   6.044   6.897   1.236 -0.6947 -1.0643  1.3784
 9911SOL     OW30416   6.744   3.022   1.646  0.2497 -0.1367 -0.3897
 9911SOL    HW130417   6.782   2.963   1.712 -0.2131  0.9221  0.8661
 9911SOL    HW230418   6.742   2.969   1.566  0.7485 -1.4996  0.4466
 9912SOL     OW30419   0.629   4.546   2.672  0.1481  0.3741  0.3800
 9912SOL    HW130420   0.654   4.459   2.702  1.1943  0.6004  0.1847
 9912SOL    HW230421   0.538   4.536   2.644  0.3071 -0.6906  0.2007
 9913SOL     OW30422   2.407   2.773   6.082  0.2924 -0.3685 -0.2398
 9913SOL    HW130423   2.499   2.752   6.098 -0.0781 -0.5645  1.9277
 9913SOL    HW230424   2.394   2.859   6.121 -1.3955 -2.1774  3.8069
 9914SOL     OW30425   4.862   6.024   1.976 -0.3144  0.0143  0.1262
 9914SOL    HW130426   4.909   6.084   1.918  0.6033  0.3901  1.2407
 9914SOL    HW230427   4.897   6.041   2.063 -2.1888 -0.0065  0.9477
 9915SOL     OW30428   3.570   5.598   1.769  0.0679  0.0069 -0.1748
 9915SOL    HW130429   3.663   5.598   1.747 -0.1977 -1.7238 -1.5529
 9915SOL    HW230430   3.561   5.531   1.837 -0.4988 -1.8871 -2.0161
 9916SOL     OW30431   1.757   4.152   2.085  0.3756 -0.2132 -0.2339
 9916SOL    HW130432   1.847   4.128   2.108  0.9119  1.6022 -0.3038
 9916SOL    HW230433   1.767   4.226   2.026 -1.1523 -1.0692 -1.6274
 9917SOL     OW30434   0.088   1.818   4.214 -0.2093 -0.2209  0.9594
 9917SOL    HW130435   0.018   1.840   4.275 -1.5526 -0.4390 -0.4291
 9917SOL    HW230436   0.101   1.724   4.225  2.2895  0.2964  3.5897
 9918SOL     OW30437   5.105   5.627   0.598  0.2427  0.3627  0.1223
 9918SOL    HW130438   5.094   5.547   0.547 -0.9688  0.4073  0.2914
 9918SOL    HW230439   5.152   5.687   0.539 -1.0510  0.3862 -0.9203
 9919SOL     OW30440   3.406   3.322   0.031 -0.0928 -0.5852  0.0239
 9919SOL    HW130441   3.350   3.334   0.108 -2.4017  0.9776 -1.7616
 9919SOL    HW230442   3.475   3.389   0.041  0.5287 -1.3991  1.4152
 9920SOL     OW30443   5.534   0.023   1.859 -0.2540  0.5407  0.1805
 9920SOL    HW130444   5.450  -0.023   1.859 -0.6391  1.2254  1.0116
 9920SOL    HW230445   5.597  -0.043   1.889 -0.8929  0.6589  1.9286
 9921SOL     OW30446   3.627   1.548   5.094  0.1499  0.0852 -0.0727
 9921SOL    HW130447   3.581   1.617   5.045 -1.0209 -1.7628 -1.7043
 9921SOL    HW230448   3.564   1.522   5.162  0.7818  0.9030  0.8543
 9922SOL     OW30449   1.587   1.984   0.363 -0.0610  0.2078 -0.1394
 9922SOL    HW130450   1.605   2.075   0.387  0.5231  0.2717 -0.8083
 9922SOL    HW230451   1.498   1.986   0.328  0.2659  0.6805 -0.9606
 9923SOL     OW30452   2.365   3.735   2.329 -0.1291  0.2503  0.2533
 9923SOL    HW130453   2.423   3.704   2.399 -0.6447  0.2060  0.6760
 9923SOL    HW230454   2.282   3.753   2.374 -0.2038  1.0810 -0.1980
 9924SOL     OW30455   3.801   3.281   1.299  0.3056  0.6063  0.3296
 9924SOL    HW130456   3.725   3.312   1.249  0.1511 -1.4363 -0.8354
 9924SOL    HW230457   3.764   3.255   1.383 -0.2029  0.2394  0.0056
 9925SOL     OW30458   3.795   4.987   4.240  0.2401  0.0756  0.4567
 9925SOL    HW130459   3.859   5.056   4.258 -0.2852  0.2228  1.8714
 9925SOL    HW230460   3.768   4.955   4.326 -1.8954  0.2883 -0.0669
 9926SOL     OW30461   6.768   1.217   1.743 -0.3524 -0.1095  0.0751
 9926SOL    HW130462   6.679   1.233   1.712  0.4631  1.3294 -1.7392
 9926SOL    HW230463   6.819   1.201   1.663  1.4098  1.2960  0.8300
 9927SOL     OW30464   5.318   5.239   3.560 -0.2211  0.2055 -0.4105
 9927SOL    HW130465   5.296   5.222   3.652  0.7770 -2.3561 -0.5525
 9927SOL    HW230466   5.394   5.297   3.563 -0.3208  0.3039  0.3652
 9928SOL     OW30467   5.997   2.768   2.714 -0.3094 -0.3686  0.2099
 9928SOL    HW130468   6.004   2.862   2.730  0.7584 -0.4674  0.4123
 9928SOL    HW230469   5.993   2.761   2.618 -0.9212 -0.0895  0.2142
 9929SOL     OW30470   5.125   3.959   3.011  0.2449 -0.0813 -0.7253
 9929SOL    HW130471   5.194   3.982   2.949  1.4199 -0.6781  0.3131
 9929SOL    HW230472   5.063   4.032   3.006  0.9252  0.4470 -1.7107
 9930SOL     OW30473   6.746   4.770   2.374 -0.2440  0.2648  0.0297
 9930SOL    HW130474   6.777   4.829   2.306 -0.2286 -0.8200 -0.9200
 9930SOL    HW230475   6.688   4.709   2.329 -1.4670  0.4602  1.2605
 9931SOL     OW30476   0.404   0.829   3.281  0.3458  0.1875 -0.1590
 9931SOL    HW130477   0.442   0.897   3.337 -0.4354  0.0523  0.5468
 9931SOL    HW230478   0.398   0.870   3.195 -0.8438  1.3085  0.4214
 9932SOL     OW30479   5.542   0.807   5.969  0.0907  0.2360 -0.4013
 9932SOL    HW130480   5.527   0.787   5.876  4.4215 -1.5234 -0.9734
 9932SOL    HW230481   5.608   0.876   5.968  0.1605  0.2347  1.3956
 9933SOL     OW30482   3.018   0.955   6.727  0.0544 -0.2425 -0.3418
 9933SOL    HW130483   2.983   1.012   6.796 -0.1889  1.7837 -2.0463
 9933SOL    HW230484   3.103   0.992   6.706  0.3208 -1.1137 -0.8460
 9934SOL     OW30485   4.271   4.152   5.868 -0.3124 -0.0274  0.4508
 9934SOL    HW130486   4.232   4.065   5.870 -0.8489  0.1714 -0.6982
 9934SOL    HW230487   4.323   4.157   5.949  1.0347 -1.9973 -0.2313
 9935SOL     OW30488   2.320   6.135   4.904 -0.4667  0.0515 -0.2375
 9935SOL    HW130489   2.341   6.225   4.929  0.4929  0.3465 -1.9199
 9935SOL    HW230490   2.225   6.129   4.915 -0.4249  0.9805  0.7472
 9936SOL     OW30491   2.314   4.049   6.308  0.7776 -0.3332  0.2904
 9936SOL    HW130492   2.319   4.017   6.218 -0.2935  1.5610 -0.4977
 9936SOL    HW230493   2.395   4.018   6.349  1.2428 -1.3236 -1.2630
 9937SOL     OW30494   6.668   2.469   0.430 -0.4312  0.7405 -1.0018
 9937SOL    HW130495   6.661   2.521   0.350 -1.6262  2.2212  0.0048
 9937SOL    HW230496   6.686   2.533   0.499  2.4102 -0.6648 -0.2454
 9938SOL     OW30497   0.900   6.748   3.109 -0.0004  0.3487  0.3717
 9938SOL    HW130498   0.980   6.798   3.097  0.5351 -0.2680  1.2117
 9938SOL    HW230499   0.903   6.681   3.041  0.1904  0.3291  0.3998
 9939SOL     OW30500   1.589   6.368   5.741 -0.6351 -0.5550  0.2500
 9939SOL    HW130501   1.588   6.344   5.648 -0.4252 -0.6078  0.2596
 9939SOL    HW230502   1.676   6.342   5.771 -1.1165 -1.6544  0.7544
 9940SOL     OW30503   2.800   1.535   5.074 -0.0679 -0.2367 -0.1642
 9940SOL    HW130504   2.872   1.479   5.101  0.7638  1.0803  0.4686
 9940SOL    HW230505   2.758   1.562   5.156 -1.5326 -1.2582 -0.5324
 9941SOL     OW30506   2.247   2.107   1.422  0.2143  0.0600 -0.1699
 9941SOL    HW130507   2.168   2.119   1.370  1.0690  0.8097 -1.3485
 9941SOL    HW230508   2.281   2.022   1.395 -0.2587 -0.3250  0.4399
 9942SOL     OW30509   3.184   5.489   0.510 -0.4564  0.2908 -0.2292
 9942SOL    HW130510   3.200   5.426   0.581 -1.8349  1.6711  1.4016
 9942SOL    HW230511   3.253   5.554   0.521  1.8511 -1.4685 -2.7852
 9943SOL     OW30512   6.455   6.459   5.150  0.0851  0.0192 -0.4448
 9943SOL    HW130513   6.467   6.367   5.174 -0.4404  0.2882  0.9401
 9943SOL    HW230514   6.518   6.507   5.203 -1.2064  0.6450  0.5958
 9944SOL     OW30515   4.924   0.413   3.853  0.2426 -0.6823  0.5018
 9944SOL    HW130516   4.973   0.375   3.926  2.4772  0.4114 -0.3414
 9944SOL    HW230517   4.834   0.416   3.884  1.1456  0.0232  3.3516
 9945SOL     OW30518   2.910   5.705   6.492 -0.1439  0.0855  0.2645
 9945SOL    HW130519   2.932   5.792   6.526 -1.6481  1.4206 -1.8783
 9945SOL    HW230520   2.821   5.689   6.523  0.7528 -1.6048  2.1785
 9946SOL     OW30521   3.250   5.696   2.918 -0.3574  0.2081  0.3120
 9946SOL    HW130522   3.202   5.642   2.855  0.2498 -0.2406  0.2285
 9946SOL    HW230523   3.325   5.730   2.869 -0.8536  1.3342  0.2951
 9947SOL     OW30524   3.313   0.208   1.090  0.3288 -0.3994  0.1437
 9947SOL    HW130525   3.333   0.294   1.127 -0.9968 -0.4054  0.9088
 9947SOL    HW230526   3.397   0.161   1.094  0.8877  0.5881  0.4317
 9948SOL     OW30527   3.094   5.191   3.302 -0.4916 -0.5476  0.0828
 9948SOL    HW130528   3.091   5.153   3.390 -0.9330 -2.2994 -0.6328
 9948SOL    HW230529   3.042   5.130   3.249 -1.9487  1.5278 -1.0193
 9949SOL     OW30530   4.069   6.722   2.194 -0.0896 -0.0804 -0.4233
 9949SOL    HW130531   4.005   6.693   2.258 -0.0825  1.5562  0.3561
 9949SOL    HW230532   4.075   6.649   2.132 -1.5771 -0.8668  0.3080
 9950SOL     OW30533   4.293   5.241   4.215  0.4296  0.5439 -0.5741
 9950SOL    HW130534   4.338   5.318   4.180  0.4037  0.5926 -0.4996
 9950SOL    HW230535   4.364   5.179   4.233  0.6013  1.0854  0.7196
 9951SOL     OW30536   3.920   5.650   2.564  0.4914  0.3388  0.5519
 9951SOL    HW130537   3.847   5.689   2.611 -1.4971 -2.8249  0.3260
 9951SOL    HW230538   3.977   5.724   2.543 -1.8224  2.7236  2.1095
 9952SOL     OW30539   3.969   1.783   4.130 -0.5447 -0.5181 -0.0822
 9952SOL    HW130540   3.918   1.821   4.058  0.8997 -1.1540 -1.4777
 9952SOL    HW230541   4.054   1.762   4.092 -0.1836 -2.1306  1.4857
 9953SOL     OW30542   3.541   0.490   5.804  0.1968  0.0638  0.1158
 9953SOL    HW130543   3.549   0.527   5.717  1.4861 -2.9875 -1.2167
 9953SOL    HW230544   3.447   0.483   5.819 -0.0417  1.2137 -0.7190
 9954SOL     OW30545   6.890   3.855   5.362  0.0935 -0.1107  0.4680
 9954SOL    HW130546   6.883   3.950   5.373  0.5101 -0.1763  1.3900
 9954SOL    HW230547   6.951   3.827   5.431 -0.6707 -1.1525  0.7453
 9955SOL     OW30548   3.017   1.127   0.316 -0.4668 -0.1980  0.4440
 9955SOL    HW130549   3.017   1.063   0.388 -0.7791 -0.7988 -0.0817
 9955SOL    HW230550   3.101   1.172   0.325  0.0813 -1.1839  0.3885
 9956SOL     OW30551   3.738   4.528   3.485  0.6080  0.0916  0.0865
 9956SOL    HW130552   3.643   4.516   3.479  0.2649  1.3840  1.9128
 9956SOL    HW230553   3.764   4.473   3.559  1.4224 -0.8044 -0.8453
 9957SOL     OW30554   5.882   6.434   1.036 -1.1511  0.4319 -0.1941
 9957SOL    HW130555   5.840   6.389   1.109 -0.0090 -0.1393  0.1330
 9957SOL    HW230556   5.970   6.396   1.031 -0.4932  1.9215 -0.5549
 9958SOL     OW30557   4.874   1.357   4.184 -0.1002 -0.2930 -0.3486
 9958SOL    HW130558   4.951   1.337   4.132 -0.3377 -2.9375  0.1660
 9958SOL    HW230559   4.908   1.369   4.273 -0.1610 -0.1097 -0.3487
 9959SOL     OW30560   0.115   4.352   5.849  0.3719 -0.1595 -0.1429
 9959SOL    HW130561   0.098   4.346   5.943 -1.6515  1.8265 -0.2936
 9959SOL    HW230562   0.055   4.288   5.810 -1.1774  1.2577 -0.2034
 9960SOL     OW30563   6.516   2.009   4.246 -0.3335 -0.1136 -0.4494
 9960SOL    HW130564   6.458   2.056   4.306 -2.0732 -2.0651 -0.4824
 9960SOL    HW230565   6.471   2.011   4.162  0.2292 -0.6759 -0.7742
 9961SOL     OW30566   4.711   4.185   0.142 -0.7644 -0.7542 -0.3433
 9961SOL    HW130567   4.633   4.170   0.196 -2.6499  0.2991 -2.6093
 9961SOL    HW230568   4.711   4.280   0.126  2.4007 -0.2883  1.4987
 9962SOL     OW30569   6.397   3.069   1.101  0.3375 -0.1488  0.2745
 9962SOL    HW130570   6.422   3.074   1.193 -0.2433 -2.1185  0.5756
 9962SOL    HW230571   6.433   2.987   1.070 -0.8736 -0.3088 -0.7994
 9963SOL     OW30572   1.140   6.044   1.311 -0.1580 -0.2152  0.4242
 9963SOL    HW130573   1.105   6.028   1.398 -1.5783 -0.4025 -0.1462
 9963SOL    HW230574   1.108   6.131   1.288 -0.3927 -0.4498 -0.1704
 9964SOL     OW30575   5.416   5.443   0.209  0.7536 -0.4839  0.6199
 9964SOL    HW130576   5.418   5.354   0.244  0.9707 -1.5467 -1.9022
 9964SOL    HW230577   5.508   5.464   0.188  0.6144  0.0267  0.4864
 9965SOL     OW30578   3.631   1.473   1.625 -0.3945 -0.1201 -0.4666
 9965SOL    HW130579   3.668   1.415   1.691  0.2252  1.3818  0.5732
 9965SOL    HW230580   3.591   1.415   1.561  0.5307 -1.6867  0.3218
 9966SOL     OW30581   2.041   4.111   1.161 -0.7993  0.5906 -0.1590
 9966SOL    HW130582   2.023   4.155   1.077 -0.0789  0.5807 -0.3200
 9966SOL    HW230583   2.119   4.154   1.194 -0.4136 -0.1878 -0.0396
 9967SOL     OW30584   2.517   2.272   2.480  0.2107  0.2057  0.2217
 9967SOL    HW130585   2.468   2.192   2.461 -1.2594  0.6622  1.7937
 9967SOL    HW230586   2.520   2.276   2.576  0.5764  1.8396  0.1726
 9968SOL     OW30587   2.844   6.527   6.674 -0.3420 -0.5231 -0.2684
 9968SOL    HW130588   2.783   6.454   6.682 -0.6631 -0.2807 -0.4666
 9968SOL    HW230589   2.831   6.578   6.754 -0.5985 -0.3243 -0.4347
 9969SOL     OW30590   5.281   3.861   3.633 -0.5161 -0.1847 -0.2404
 9969SOL    HW130591   5.225   3.892   3.705 -0.7846 -1.1350 -0.0321
 9969SOL    HW230592   5.220   3.849   3.560 -0.5221 -0.8541 -0.1254
 9970SOL     OW30593   5.756   3.927   4.171 -0.0609 -0.1234  0.7098
 9970SOL    HW130594   5.722   3.863   4.109 -4.1365  1.2721  1.2119
 9970SOL    HW230595   5.816   3.981   4.119 -1.3511 -0.5542 -1.3538
 9971SOL     OW30596   6.688   4.114   0.706 -0.3295  0.3737 -0.1225
 9971SOL    HW130597   6.597   4.129   0.732  0.2647  0.4815  2.0943
 9971SOL    HW230598   6.739   4.133   0.784  1.5413 -0.6643 -1.0109
 9972SOL     OW30599   0.033   0.848   4.312 -0.2510 -0.3271 -0.5615
 9972SOL    HW130600  -0.006   0.823   4.228  0.0927  1.6222 -1.3525
 9972SOL    HW230601   0.123   0.816   4.306  0.3444  1.4127 -1.7860
 9973SOL     OW30602   5.426   0.443   0.254 -0.3279  0.2331 -0.4017
 9973SOL    HW130603   5.419   0.347   0.259 -1.3503  0.3482  1.3551
 9973SOL    HW230604   5.344   0.471   0.213 -0.9688  0.4368  0.9602
 9974SOL     OW30605   4.941   0.580   4.624 -0.3382 -0.2535 -0.2582
 9974SOL    HW130606   4.855   0.547   4.597 -0.4662 -0.1525  0.0204
 9974SOL    HW230607   4.975   0.513   4.683 -1.2570  0.7765  1.5403
 9975SOL     OW30608   3.518   1.073   5.158 -0.2578  0.2410  0.2580
 9975SOL    HW130609   3.480   1.158   5.134  1.4372  0.6763 -1.0410
 9975SOL    HW230610   3.505   1.019   5.080  0.7477  0.0400  0.2248
 9976SOL     OW30611   4.427   4.372   4.286  0.4409 -0.1280 -0.0796
 9976SOL    HW130612   4.359   4.404   4.226 -0.3418 -0.9726  0.3349
 9976SOL    HW230613   4.417   4.277   4.284  1.2772 -0.2318  0.3865
 9977SOL     OW30614   0.813   4.393   3.253  0.3740  0.6970 -0.0620
 9977SOL    HW130615   0.813   4.404   3.348 -0.4060 -0.1649  0.0638
 9977SOL    HW230616   0.782   4.303   3.240 -1.5148  1.4489 -1.1765
 9978SOL     OW30617   1.861   4.414   2.924 -0.2681  0.1335 -0.5957
 9978SOL    HW130618   1.956   4.424   2.929 -0.2299  0.4672 -1.6818
 9978SOL    HW230619   1.844   4.389   2.833 -1.2011 -0.1970 -0.3478
 9979SOL     OW30620   0.849   4.798   0.802  0.1414 -0.1885  0.1887
 9979SOL    HW130621   0.760   4.832   0.816  0.2824  0.0940  0.3955
 9979SOL    HW230622   0.847   4.710   0.839  0.1692  0.1077  0.9219
 9980SOL     OW30623   3.391   1.255   2.649  0.5583 -0.5832  0.5468
 9980SOL    HW130624   3.438   1.173   2.662 -0.9440 -1.8879 -1.5780
 9980SOL    HW230625   3.321   1.253   2.714  1.6474 -0.0339  1.7680
 9981SOL     OW30626   1.789   0.337   0.294  0.1380  0.5749  0.8354
 9981SOL    HW130627   1.812   0.341   0.201 -2.0610 -0.5700  0.1624
 9981SOL    HW230628   1.803   0.426   0.326  2.2707  0.6680 -0.1996
 9982SOL     OW30629   3.368   0.717   6.715  0.7101  0.2776  0.4457
 9982SOL    HW130630   3.307   0.671   6.772  1.6071  0.1292  1.3165
 9982SOL    HW230631   3.375   0.662   6.637 -0.0325  0.1545  0.4610
 9983SOL     OW30632   2.385   3.117   3.817  0.2237 -0.6491 -0.5773
 9983SOL    HW130633   2.447   3.064   3.768  0.5161  0.0620 -0.9906
 9983SOL    HW230634   2.339   3.168   3.750 -0.0605 -0.3910 -0.1915
 9984SOL     OW30635   4.869   1.170   0.859 -0.2881  0.6702 -0.3723
 9984SOL    HW130636   4.929   1.098   0.878  0.8032  1.8482  0.7796
 9984SOL    HW230637   4.786   1.127   0.840  0.4204 -0.9037 -0.0667
 9985SOL     OW30638   4.111   2.694   5.220 -0.3690  0.2586  0.3823
 9985SOL    HW130639   4.045   2.652   5.275 -2.3583  1.9369 -0.6049
 9985SOL    HW230640   4.128   2.778   5.261 -0.4240  0.7134 -0.4991
 9986SOL     OW30641   1.180   2.063   1.327  0.1015  0.2341 -0.2255
 9986SOL    HW130642   1.085   2.055   1.334  0.2004 -1.1572 -0.2704
 9986SOL    HW230643   1.194   2.132   1.262 -0.8584  1.0122  0.3673
 9987SOL     OW30644   5.932   0.791   6.783 -0.4983  0.2902 -0.0766
 9987SOL    HW130645   5.898   0.828   6.865 -1.3490 -0.1218 -0.2349
 9987SOL    HW230646   5.877   0.715   6.766 -0.5491  0.5607 -1.2118
 9988SOL     OW30647   2.320   1.408   6.019  0.5359 -0.6631  0.1128
 9988SOL    HW130648   2.260   1.334   6.027 -2.7441  1.9452  2.8476
 9988SOL    HW230649   2.287   1.458   5.945  0.6327 -0.2082  0.3761
 9989SOL     OW30650   6.230   6.119   2.431 -0.6045  0.0986  1.0195
 9989SOL    HW130651   6.175   6.115   2.509 -0.8269  0.0265  0.8564
 9989SOL    HW230652   6.194   6.054   2.372 -0.3614  0.0706  0.9013
 9990SOL     OW30653   4.209   4.997   4.302  0.8734 -0.2686 -0.3401
 9990SOL    HW130654   4.215   4.945   4.222 -3.6748 -0.2191 -0.9556
 9990SOL    HW230655   4.221   5.088   4.272  1.4281 -0.3935 -0.5199
 9991SOL     OW30656   5.823   0.377   4.890  0.1799 -0.3160  0.1995
 9991SOL    HW130657   5.892   0.333   4.840 -1.0433 -0.5296 -1.3669
 9991SOL    HW230658   5.752   0.312   4.895 -0.5901  0.5128  0.2452
 9992SOL     OW30659   2.858   1.047   3.127 -0.1013  0.0835 -0.6090
 9992SOL    HW130660   2.822   0.982   3.066  1.0074 -0.7134 -0.4567
 9992SOL    HW230661   2.831   1.016   3.213 -1.2302  0.9275 -0.6347
 9993SOL     OW30662   0.526   6.850   3.404  0.1565 -0.1472 -0.0526
 9993SOL    HW130663   0.611   6.818   3.375  0.0433 -0.9662  0.4922
 9993SOL    HW230664   0.473   6.771   3.415 -1.0047  0.4033 -1.3739
 9994SOL     OW30665   1.985   3.506   2.533 -0.2625  0.1188  0.1209
 9994SOL    HW130666   1.997   3.472   2.622  0.1062  0.2436  0.1223
 9994SOL    HW230667   1.897   3.542   2.532  0.4207  1.9211  1.0359
 9995SOL     OW30668   0.126   0.289   5.317 -0.2508 -0.5521 -0.5035
 9995SOL    HW130669   0.093   0.318   5.402 -0.7265 -0.2128 -0.7982
 9995SOL    HW230670   0.221   0.298   5.323 -0.1961 -1.5901  0.3803
 9996SOL     OW30671   4.084   1.677   0.618 -0.6114 -0.0071 -0.0689
 9996SOL    HW130672   4.020   1.728   0.568  1.1957  1.6585 -0.8302
 9996SOL    HW230673   4.077   1.711   0.707 -1.7908 -0.9025  0.2040
 9997SOL     OW30674   5.904   4.105   4.029 -0.2078  0.4511 -0.3815
 9997SOL    HW130675   5.860   4.177   3.983  1.6283  0.4725 -2.2888
 9997SOL    HW230676   5.981   4.146   4.068 -0.6739  0.0172  1.0532
 9998SOL     OW30677   1.687   5.087   3.413 -0.7401 -0.6397  0.7471
 9998SOL    HW130678   1.721   4.998   3.414 -0.1967 -0.4322  0.9420
 9998SOL    HW230679   1.760   5.141   3.444  0.1586  0.2754 -2.5424
 9999SOL     OW30680   4.308   6.810   6.547 -0.1221 -0.6964  0.0891
 9999SOL    HW130681   4.249   6.834   6.618 -0.1425 -0.2485 -0.0738
 9999SOL    HW230682   4.268   6.732   6.508  0.2180 -1.3129  0.9491
10000SOL     OW30683   2.119   5.914   5.695  0.0342 -0.2346 -0.4719
10000SOL    HW130684   2.083   5.911   5.784  1.0137  1.0439 -0.0052
10000SOL    HW230685   2.132   5.822   5.672 -1.3297 -0.6354  0.2383
10001SOL     OW30686   2.086   2.029   6.597  0.4971 -0.3680  0.6885
10001SOL    HW130687   2.121   2.007   6.511 -1.8986 -2.8919  0.2145
10001SOL    HW230688   2.056   2.120   6.588 -1.0298 -1.0058 -1.7202
10002SOL     OW30689   1.887   5.176   0.371  0.2217  0.2047 -0.2257
10002SOL    HW130690   1.947   5.223   0.429 -0.9746  0.2829  1.0004
10002SOL    HW230691   1.936   5.166   0.289  1.4936  1.2023  0.3725
10003SOL     OW30692   1.376   4.571   1.464 -0.5144  0.2077 -0.4295
10003SOL    HW130693   1.463   4.532   1.458  0.2641  1.5351  1.2694
10003SOL    HW230694   1.321   4.518   1.405  1.0272 -1.7960 -0.1691
10004SOL     OW30695   6.888   4.742   4.138 -0.5420  0.0840  0.1665
10004SOL    HW130696   6.935   4.823   4.158 -0.5919  0.0187  0.5748
10004SOL    HW230697   6.825   4.766   4.071  0.6048 -0.0015 -0.9687
10005SOL     OW30698   6.058   4.924   3.041 -0.1865  0.2444  0.0532
10005SOL    HW130699   6.035   4.852   3.099 -0.1007 -0.7294 -1.0958
10005SOL    HW230700   6.062   5.001   3.099 -0.1744 -0.6734  1.3088
10006SOL     OW30701   0.974   5.058   3.384 -0.0642 -0.3908  0.5382
10006SOL    HW130702   0.925   4.989   3.340 -0.5159  0.3329 -0.1300
10006SOL    HW230703   1.065   5.045   3.356 -0.1997 -0.5193  0.1532
10007SOL     OW30704   1.694   3.228   4.333 -0.3658 -0.0597  0.1927
10007SOL    HW130705   1.610   3.273   4.322 -0.7380 -0.5297  1.0353
10007SOL    HW230706   1.760   3.297   4.330 -0.8658  0.4383  0.6244
10008SOL     OW30707   5.348   5.276   1.765  0.0862  0.4556 -0.5932
10008SOL    HW130708   5.403   5.202   1.789  1.0016  0.8210 -1.4590
10008SOL    HW230709   5.344   5.272   1.669 -1.7503  0.2078 -0.5375
10009SOL     OW30710   3.856   6.407   6.554  0.4379 -0.0666  0.2146
10009SOL    HW130711   3.818   6.329   6.595  1.1164 -0.3442  0.3289
10009SOL    HW230712   3.916   6.442   6.620 -0.8062  1.2954  0.6709
10010SOL     OW30713   5.935   0.051   1.836  0.4468  0.7526  0.8776
10010SOL    HW130714   5.878  -0.024   1.824  0.3522  0.8502  0.7146
10010SOL    HW230715   6.022   0.014   1.850  0.3706  0.6089  0.9600
10011SOL     OW30716   3.312   1.420   1.596 -0.1059 -0.3153  0.1978
10011SOL    HW130717   3.272   1.404   1.510  0.5838 -1.0352 -0.0019
10011SOL    HW230718   3.317   1.333   1.635 -0.5588  0.0315  1.0409
10012SOL     OW30719   3.071   4.342   3.655  0.8182 -0.5932 -0.6032
10012SOL    HW130720   3.020   4.270   3.692  0.3044 -0.0374 -0.2258
10012SOL    HW230721   3.160   4.327   3.688  0.2410  0.2778  1.4503
10013SOL     OW30722   2.880   5.018   2.506  0.0069 -0.1806 -0.0665
10013SOL    HW130723   2.804   4.975   2.466  0.4037 -0.2864 -0.7263
10013SOL    HW230724   2.946   5.020   2.436 -0.1029  1.7904 -0.1821
10014SOL     OW30725   0.571   6.640   2.474 -0.5276 -0.0724  0.3868
10014SOL    HW130726   0.515   6.705   2.516 -2.0803 -0.4849 -0.9347
10014SOL    HW230727   0.518   6.606   2.402  0.9745 -1.4071 -0.1460
10015SOL     OW30728   5.586   4.585   0.313 -0.9196 -1.0791  0.4362
10015SOL    HW130729   5.512   4.526   0.300 -0.3195 -1.4076 -1.9090
10015SOL    HW230730   5.579   4.649   0.242  0.5330 -0.5660  0.7176
10016SOL     OW30731   0.848   1.426   2.584 -0.4851  0.1099  0.6320
10016SOL    HW130732   0.849   1.332   2.606  1.4771 -0.0515  0.0162
10016SOL    HW230733   0.808   1.430   2.498  1.2205 -0.4290 -0.2265
10017SOL     OW30734   4.964   6.337   2.062 -0.3214  0.3213 -0.3209
10017SOL    HW130735   4.912   6.409   2.098 -1.2628  0.7898 -2.5054
10017SOL    HW230736   4.949   6.340   1.968  1.7398 -1.0939 -0.7676
10018SOL     OW30737   5.187   3.799   6.257 -0.2709 -0.1289  0.3076
10018SOL    HW130738   5.246   3.873   6.271 -0.0796 -0.6048  2.2087
10018SOL    HW230739   5.207   3.771   6.167  1.9538  0.1198  0.6473
10019SOL     OW30740   5.378   0.956   1.415  0.3403  0.1065 -0.2870
10019SOL    HW130741   5.315   0.895   1.378 -0.5049  0.9483 -0.3020
10019SOL    HW230742   5.329   1.000   1.486  1.0668  0.4274  0.0268
10020SOL     OW30743   4.489   5.043   4.221  0.0327  0.6318 -0.0288
10020SOL    HW130744   4.569   5.063   4.269 -0.0185  0.2696  0.2180
10020SOL    HW230745   4.503   4.954   4.187 -0.6614  0.1622  0.8725
10021SOL     OW30746   2.971   6.662   6.189 -0.5292 -0.0783 -0.0759
10021SOL    HW130747   2.916   6.590   6.157  0.8115 -0.3382 -2.0148
10021SOL    HW230748   2.951   6.669   6.282 -0.8412 -2.8440  0.1350
10022SOL     OW30749   5.515   3.114   0.082  0.1645  0.2899  0.2750
10022SOL    HW130750   5.510   3.038   0.024  2.6539  1.2238 -1.3445
10022SOL    HW230751   5.596   3.102   0.131  0.5670  1.8058  0.0596
10023SOL     OW30752   5.356   1.214   4.239 -0.0614 -0.1228  0.1289
10023SOL    HW130753   5.405   1.194   4.159  1.5669  0.4527  0.9505
10023SOL    HW230754   5.417   1.195   4.310 -1.3601 -0.2727  1.2428
10024SOL     OW30755   2.077   4.563   6.345  0.5223  0.1951 -0.4379
10024SOL    HW130756   2.144   4.507   6.384 -0.6011 -0.0545  1.2084
10024SOL    HW230757   2.042   4.510   6.273  0.8289 -0.4201 -0.1478
10025SOL     OW30758   4.815   4.373   6.421  0.2501 -0.3112  0.4060
10025SOL    HW130759   4.805   4.417   6.506 -2.2646 -0.1581  0.0838
10025SOL    HW230760   4.833   4.282   6.444 -1.6327 -0.5358  1.1827
10026SOL     OW30761   4.711   2.331   0.119  0.6976 -0.3773  0.8451
10026SOL    HW130762   4.659   2.336   0.040  0.6751  0.2022  0.8955
10026SOL    HW230763   4.802   2.325   0.089  0.6407 -0.8458  0.7667
10027SOL     OW30764   3.022   4.547   0.186 -0.3961  0.0698 -0.6144
10027SOL    HW130765   3.033   4.627   0.238 -0.2537 -0.9481  1.0190
10027SOL    HW230766   2.928   4.538   0.174 -0.3455  1.2164 -2.0637
10028SOL     OW30767   5.439   4.491   4.128 -0.2192 -0.3010  0.2890
10028SOL    HW130768   5.369   4.516   4.068 -0.8437  1.7354  1.7713
10028SOL    HW230769   5.419   4.536   4.210  1.3766 -1.8359  1.6225
10029SOL     OW30770   5.768   4.250   2.093 -0.2484  0.0311 -0.2252
10029SOL    HW130771   5.815   4.225   2.173 -0.0138  1.8868  0.2728
10029SOL    HW230772   5.824   4.218   2.022  1.8761  2.1462  0.3500
10030SOL     OW30773   6.556   4.271   6.580 -0.2353 -0.5133  0.0451
10030SOL    HW130774   6.468   4.300   6.555  0.2931  2.8565  1.5479
10030SOL    HW230775   6.542   4.193   6.633 -2.1849 -0.8632 -0.9096
10031SOL     OW30776   0.891   1.549   6.166 -0.3062 -0.6622 -0.0252
10031SOL    HW130777   0.906   1.454   6.160 -0.6301 -0.5913 -2.8050
10031SOL    HW230778   0.979   1.586   6.180 -0.2926 -1.3614  2.2244
10032SOL     OW30779   2.786   5.560   2.090 -0.9358 -0.0841  0.1683
10032SOL    HW130780   2.792   5.655   2.093 -0.7201  0.2441 -4.1581
10032SOL    HW230781   2.877   5.530   2.096 -0.7482  0.2163 -0.9458
10033SOL     OW30782   0.665   0.797   2.346 -1.0606 -0.5452 -0.3201
10033SOL    HW130783   0.647   0.722   2.402 -1.6468  0.7421  1.3138
10033SOL    HW230784   0.594   0.797   2.282 -0.8506 -1.5797 -0.5575
10034SOL     OW30785   5.787   1.456   6.463  0.3823  0.3237 -0.6961
10034SOL    HW130786   5.873   1.414   6.467  0.6913  0.9487  2.5613
10034SOL    HW230787   5.805   1.546   6.435  1.0326  0.7973  1.1157
10035SOL     OW30788   0.846   0.850   4.352 -0.5899 -0.0658 -0.3386
10035SOL    HW130789   0.917   0.792   4.325  1.1048  1.9623 -0.5229
10035SOL    HW230790   0.795   0.865   4.272 -0.4984 -0.5731 -0.4942
10036SOL     OW30791   1.099   4.271   2.694 -0.1477 -0.2353  0.7788
10036SOL    HW130792   1.085   4.327   2.618  0.0744 -0.1360  0.8112
10036SOL    HW230793   1.082   4.327   2.769  0.3561 -0.1277  0.8183
10037SOL     OW30794   2.961   5.943   2.652 -0.4462  0.2610  0.5410
10037SOL    HW130795   2.893   5.910   2.711 -1.7114 -0.5951 -1.2977
10037SOL    HW230796   2.999   5.865   2.612  1.7409  0.7214  1.5713
10038SOL     OW30797   1.456   0.340   3.438  0.5168 -0.2411 -0.1571
10038SOL    HW130798   1.510   0.415   3.463  0.0566 -0.2855  1.0538
10038SOL    HW230799   1.387   0.376   3.383 -0.4905  0.4886  1.5074
10039SOL     OW30800   1.197   0.061   6.484  0.2097 -0.0989  0.0413
10039SOL    HW130801   1.215   0.065   6.578 -1.2630  2.5243  0.3054
10039SOL    HW230802   1.194   0.153   6.456  0.0316 -0.7983 -2.4592
10040SOL     OW30803   5.794   0.815   3.379  0.0093  0.1395 -0.0125
10040SOL    HW130804   5.712   0.844   3.340 -0.5440 -1.1722  0.1491
10040SOL    HW230805   5.848   0.895   3.383 -1.4692  1.1573  0.4843
10041SOL     OW30806   3.158   2.734   2.450  0.1485  0.1142 -0.2146
10041SOL    HW130807   3.153   2.697   2.538 -0.5124  1.4862  0.3508
10041SOL    HW230808   3.236   2.790   2.452  0.3922 -0.1987 -0.6562
10042SOL     OW30809   4.914   6.880   6.493 -0.3607  0.2599  0.6327
10042SOL    HW130810   4.870   6.798   6.515 -1.7483  0.3469 -1.5003
10042SOL    HW230811   4.849   6.948   6.512 -0.1252  0.6371  0.1233
10043SOL     OW30812   5.847   1.653   3.595 -0.6137  0.2891 -0.3609
10043SOL    HW130813   5.886   1.740   3.583  0.3406 -0.0252  0.3396
10043SOL    HW230814   5.840   1.643   3.690 -1.5257 -0.0552 -0.4564
10044SOL     OW30815   1.886   4.038   0.589 -0.0111 -0.0512  0.5330
10044SOL    HW130816   1.812   4.088   0.624  1.0317  1.2615  0.9652
10044SOL    HW230817   1.925   3.996   0.666 -0.2762 -0.7036  0.3132
10045SOL     OW30818   3.609   5.743   5.414 -0.1544  0.4648 -0.5106
10045SOL    HW130819   3.549   5.696   5.356  0.1392  1.1274 -1.3742
10045SOL    HW230820   3.552   5.796   5.470 -0.4102  0.3271 -0.6386
10046SOL     OW30821   5.362   5.810   3.686 -0.0465  0.7163 -0.3331
10046SOL    HW130822   5.442   5.823   3.737  1.7970 -1.6806 -2.2904
10046SOL    HW230823   5.394   5.785   3.599 -2.9384 -0.5470 -1.1508
10047SOL     OW30824   3.893   0.481   3.997 -0.0777  0.2652  0.1158
10047SOL    HW130825   3.883   0.557   3.939 -2.5700  0.5892  0.8670
10047SOL    HW230826   3.852   0.507   4.079  1.5664 -0.9174  1.3782
10048SOL     OW30827   1.851   2.100   4.519 -0.1342 -0.3143  0.0890
10048SOL    HW130828   1.777   2.135   4.569  0.8340 -0.4640  1.6618
10048SOL    HW230829   1.908   2.175   4.504  0.6059 -0.6709  1.0713
10049SOL     OW30830   6.760   4.527   4.216  0.1448 -0.1902  0.0305
10049SOL    HW130831   6.807   4.597   4.172  0.2707 -0.8042 -0.8426
10049SOL    HW230832   6.798   4.447   4.181  1.4854 -0.7464  2.5847
10050SOL     OW30833   0.699   1.840   5.287 -0.3351  0.0195  0.5472
10050SOL    HW130834   0.643   1.879   5.220 -0.2405  1.4957  1.2737
10050SOL    HW230835   0.708   1.749   5.261 -2.2833 -0.0327 -0.1115
10051SOL     OW30836   0.285   1.625   1.981  0.2717 -0.4053  0.4380
10051SOL    HW130837   0.315   1.690   1.918 -1.6051 -0.2621 -0.3865
10051SOL    HW230838   0.240   1.675   2.049  1.2262 -0.6563  1.2812
10052SOL     OW30839   2.831   6.230   2.880 -0.1260  0.5453 -0.1572
10052SOL    HW130840   2.907   6.172   2.871 -0.2171  0.5514 -1.0503
10052SOL    HW230841   2.777   6.211   2.803 -0.3492  1.5439 -0.2597
10053SOL     OW30842   1.105   6.775   4.091  0.0682 -0.0670 -0.1452
10053SOL    HW130843   1.199   6.783   4.073  0.0064 -0.4256 -0.6463
10053SOL    HW230844   1.093   6.818   4.176  0.9777 -1.5861  0.7973
10054SOL     OW30845   6.278   5.050   0.968  0.0377  0.2101 -0.0730
10054SOL    HW130846   6.224   4.975   0.993  1.3131 -1.5638 -2.3338
10054SOL    HW230847   6.237   5.083   0.888 -0.0692  1.4984  0.4858
10055SOL     OW30848   6.754   5.831   1.485 -0.1568 -0.1483  0.6175
10055SOL    HW130849   6.810   5.754   1.487  0.4810  0.2860  0.1316
10055SOL    HW230850   6.665   5.797   1.495  0.1885 -0.8506  1.3373
10056SOL     OW30851   3.662   1.654   6.879 -0.2015  0.4382  0.0131
10056SOL    HW130852   3.697   1.709   6.949 -0.0944  1.4105 -0.7675
10056SOL    HW230853   3.739   1.611   6.842  0.2150  2.3470 -1.5086
10057SOL     OW30854   4.417   3.876   5.181  0.1921  0.1958 -0.0890
10057SOL    HW130855   4.364   3.817   5.234 -0.3427  0.6782 -0.0838
10057SOL    HW230856   4.434   3.951   5.238 -1.0497  1.0851 -0.8383
10058SOL     OW30857   1.472   3.173   5.554  0.1390  0.0326  0.3658
10058SOL    HW130858   1.381   3.156   5.527 -0.1099  0.4481  0.9216
10058SOL    HW230859   1.490   3.104   5.617 -0.1174  0.5027  0.9623
10059SOL     OW30860   0.555   4.159   0.821  0.5081  0.4685  0.8791
10059SOL    HW130861   0.574   4.249   0.848 -0.7076  0.9475  0.2593
10059SOL    HW230862   0.638   4.112   0.830  1.1849  1.6780  1.1198
10060SOL     OW30863   0.456   5.726   1.772  0.8456  0.3353  0.4294
10060SOL    HW130864   0.467   5.814   1.807 -1.3640  0.5443  0.7250
10060SOL    HW230865   0.434   5.672   1.849 -0.2445  0.0339 -0.0746
10061SOL     OW30866   5.027   1.566   2.800 -0.6657 -0.5243 -0.1107
10061SOL    HW130867   5.038   1.475   2.825  2.8827 -0.2342 -0.2049
10061SOL    HW230868   5.078   1.575   2.719 -0.3257  1.7088  0.2984
10062SOL     OW30869   5.559   1.194   5.654 -0.6211  0.5966 -0.3184
10062SOL    HW130870   5.618   1.195   5.729 -3.7133  0.0897  2.3182
10062SOL    HW230871   5.525   1.284   5.648 -1.6892  0.2375  0.0641
10063SOL     OW30872   3.573   4.106   2.858  0.5829 -0.1177  0.3527
10063SOL    HW130873   3.642   4.089   2.922  0.4175  1.2273  0.9320
10063SOL    HW230874   3.533   4.021   2.842  1.8432 -0.7802  0.6145
10064SOL     OW30875   3.738   6.768   5.812  0.3664  0.4366 -0.6412
10064SOL    HW130876   3.802   6.821   5.765  0.8863 -0.8079 -1.4025
10064SOL    HW230877   3.749   6.680   5.776 -1.7028  0.1565 -0.7135
10065SOL     OW30878   3.009   3.261   6.780  0.0597  0.5311 -0.0388
10065SOL    HW130879   2.956   3.341   6.773 -0.3583  0.3243  0.6462
10065SOL    HW230880   2.982   3.222   6.863 -0.5012 -0.8831 -0.8601
10066SOL     OW30881   4.446   0.172   2.524  0.8030  0.1490  0.5701
10066SOL    HW130882   4.488   0.211   2.447  2.1906 -0.7440  0.8328
10066SOL    HW230883   4.471   0.229   2.596  1.8205 -0.5276  0.7674
10067SOL     OW30884   6.133   2.483   3.270 -0.5023  0.1061 -0.0775
10067SOL    HW130885   6.165   2.393   3.267 -1.3665 -0.2330  0.3659
10067SOL    HW230886   6.096   2.499   3.183 -2.0308 -0.6372  0.3951
10068SOL     OW30887   4.304   3.797   3.272  0.1637  0.5493  0.0702
10068SOL    HW130888   4.388   3.783   3.315  0.1232  0.8990  0.2733
10068SOL    HW230889   4.307   3.889   3.244  0.9995 -0.1460 -2.4476
10069SOL     OW30890   1.642   0.315   4.207  0.0543 -0.8632 -0.0355
10069SOL    HW130891   1.731   0.325   4.241  0.3813  1.4109 -1.3947
10069SOL    HW230892   1.591   0.288   4.283  1.6043 -0.5568  1.1711
10070SOL     OW30893   0.204   3.357   3.070 -0.3173  0.2679 -0.1243
10070SOL    HW130894   0.166   3.405   3.144  0.7734 -1.0593  1.3822
10070SOL    HW230895   0.272   3.415   3.036 -0.8163  0.8859 -0.0834
10071SOL     OW30896   6.859   3.858   6.031  0.4098  0.2396 -0.2526
10071SOL    HW130897   6.835   3.928   5.971 -1.7982  1.8199  2.2496
10071SOL    HW230898   6.779   3.840   6.081  2.1295 -0.7357  2.3964
10072SOL     OW30899   0.195   1.794   2.188 -0.7383 -0.0085  0.2452
10072SOL    HW130900   0.273   1.817   2.238 -0.1281 -0.5961 -0.4167
10072SOL    HW230901   0.137   1.751   2.252  1.0226 -2.9959  0.0277
10073SOL     OW30902   6.840   2.442   6.629  0.4787  0.5614  0.4364
10073SOL    HW130903   6.759   2.467   6.584  1.2331  0.8305 -0.8396
10073SOL    HW230904   6.880   2.376   6.571 -0.3792 -2.0478  2.6319
10074SOL     OW30905   3.461   2.047   2.252  0.3085 -0.3216 -0.3357
10074SOL    HW130906   3.550   2.025   2.225  0.1442  0.1396 -1.2861
10074SOL    HW230907   3.471   2.086   2.339  0.9032 -1.3657  0.0766
10075SOL     OW30908   4.767   1.903   1.203  0.3903 -0.0041 -0.1942
10075SOL    HW130909   4.723   1.960   1.141  0.8016 -0.0124 -0.4948
10075SOL    HW230910   4.713   1.908   1.282  0.0220  0.2240 -0.4572
10076SOL     OW30911   1.041   2.382   5.357  0.0426  0.2601  0.3098
10076SOL    HW130912   0.962   2.330   5.376 -0.5716  0.9814 -0.1796
10076SOL    HW230913   1.007   2.466   5.326  1.0182  1.0521  1.3181
10077SOL     OW30914   6.829   0.008   1.972  0.2673  0.0064 -0.1340
10077SOL    HW130915   6.753   0.008   2.029  0.6709  1.0614  0.4294
10077SOL    HW230916   6.793   0.018   1.884 -0.3047 -0.8069 -0.0048
10078SOL     OW30917   0.811   1.318   6.045  0.5367 -0.7084  0.9120
10078SOL    HW130918   0.818   1.309   5.950  0.0150  0.8320  0.6982
10078SOL    HW230919   0.809   1.228   6.078 -0.8961 -1.3173 -0.6668
10079SOL     OW30920   3.944   4.384   3.366 -0.0899 -0.1426  0.5781
10079SOL    HW130921   3.951   4.434   3.284  2.7071  1.6217  1.7364
10079SOL    HW230922   3.867   4.421   3.410  0.0435  0.8815 -0.0155
10080SOL     OW30923   4.464   0.165   5.147 -0.1966 -0.3964 -0.5964
10080SOL    HW130924   4.417   0.107   5.206 -0.4217 -0.3996 -0.7787
10080SOL    HW230925   4.555   0.159   5.175 -0.3057 -0.3784 -0.2342
10081SOL     OW30926   1.131   2.078   6.858  0.0317  0.1140 -0.0641
10081SOL    HW130927   1.197   2.141   6.828 -0.3090  0.3825 -0.2655
10081SOL    HW230928   1.140   2.004   6.798  1.3319 -0.6184  0.9772
10082SOL     OW30929   6.211   0.865   2.837  0.0334 -0.3864  0.0490
10082SOL    HW130930   6.278   0.918   2.879  2.4401 -2.6530 -0.7145
10082SOL    HW230931   6.147   0.847   2.906  0.7366  0.9625  1.0707
10083SOL     OW30932   3.265   3.302   1.346  0.3709  0.0549 -0.2587
10083SOL    HW130933   3.248   3.240   1.418  0.1685  1.0700  0.5861
10083SOL    HW230934   3.323   3.254   1.287  2.7720  0.0627  1.8984
10084SOL     OW30935   5.084   3.189   6.045 -0.4221 -0.0035  0.0563
10084SOL    HW130936   5.049   3.245   5.976 -1.2406  0.4294  0.7988
10084SOL    HW230937   5.044   3.223   6.126 -0.2266 -1.0945  0.6246
10085SOL     OW30938   4.610   4.130   4.855 -0.5661  0.1267 -0.6930
10085SOL    HW130939   4.689   4.091   4.893 -0.0651  0.3334 -1.5174
10085SOL    HW230940   4.555   4.055   4.833 -0.2141 -0.0535 -0.9592
10086SOL     OW30941   1.318   3.246   4.913 -0.5800 -0.4120 -0.6147
10086SOL    HW130942   1.276   3.328   4.939 -2.0119 -1.8986  2.2384
10086SOL    HW230943   1.249   3.196   4.871 -0.6144 -1.3541  0.5288
10087SOL     OW30944   1.981   5.426   3.655  0.3375  0.4240  1.3518
10087SOL    HW130945   2.024   5.475   3.585  2.2712 -1.0534  1.4167
10087SOL    HW230946   2.049   5.415   3.722 -0.2605 -1.5611  1.7067
10088SOL     OW30947   3.203   2.570   1.178 -0.0501 -0.1824 -0.0112
10088SOL    HW130948   3.114   2.591   1.204  0.4947  0.5024  1.3880
10088SOL    HW230949   3.218   2.482   1.213  0.4786  0.5015  1.5693
10089SOL     OW30950   2.578   6.388   4.523 -0.2677  0.5545  0.0304
10089SOL    HW130951   2.532   6.353   4.447  0.0496 -1.3553  0.6582
10089SOL    HW230952   2.517   6.375   4.596  0.6445 -0.6202  0.6132
10090SOL     OW30953   4.543   6.240   6.306 -0.1117 -0.4470 -0.3104
10090SOL    HW130954   4.448   6.244   6.294 -0.1098  0.6448 -0.0702
10090SOL    HW230955   4.570   6.160   6.261 -1.0883 -0.5365 -0.7535
10091SOL     OW30956   2.495   5.259   0.956 -0.2625  0.2135  0.7261
10091SOL    HW130957   2.543   5.278   0.876  0.3232 -0.1755  0.9770
10091SOL    HW230958   2.543   5.186   0.996 -1.2276 -0.3739  0.8463
10092SOL     OW30959   6.092   4.324   1.272  0.3372  0.6817  0.0843
10092SOL    HW130960   6.113   4.329   1.179 -2.4479 -0.6601 -0.7149
10092SOL    HW230961   6.136   4.244   1.301  1.0939  1.0266 -0.0684
10093SOL     OW30962   6.301   5.640   1.219  0.1978 -0.2783  0.1887
10093SOL    HW130963   6.370   5.585   1.182 -0.3896 -1.4049  0.7065
10093SOL    HW230964   6.287   5.604   1.307 -1.7380 -0.7514 -0.2600
10094SOL     OW30965   2.874   2.088   2.159  0.6250 -0.2789  0.1245
10094SOL    HW130966   2.961   2.124   2.142  0.9984  0.1349  2.4962
10094SOL    HW230967   2.844   2.133   2.238 -0.5247 -2.4359  1.0139
10095SOL     OW30968   4.288   3.277   4.053  0.4539 -0.2518  0.1946
10095SOL    HW130969   4.214   3.285   4.113  1.5657  2.7721  1.3449
10095SOL    HW230970   4.252   3.233   3.976 -2.6463  1.4607  0.5221
10096SOL     OW30971   5.258   5.535   1.571 -0.4052  0.0762 -0.2728
10096SOL    HW130972   5.180   5.591   1.570 -0.5426 -0.1211 -0.7019
10096SOL    HW230973   5.303   5.559   1.652  0.5634  2.2272 -1.3707
10097SOL     OW30974   2.875   0.364   3.034  0.4014 -0.2201  0.1937
10097SOL    HW130975   2.867   0.358   2.939 -0.0929 -1.1779  0.2899
10097SOL    HW230976   2.807   0.306   3.069  0.0496  0.7362  1.1474
10098SOL     OW30977   2.145   0.428   4.966 -0.3266 -0.0609  0.1284
10098SOL    HW130978   2.078   0.410   5.032  1.5735 -1.0478  1.8758
10098SOL    HW230979   2.220   0.461   5.015  0.2868  1.7251 -1.8402
10099SOL     OW30980   0.693   1.163   4.067  0.1124 -0.3489  0.1038
10099SOL    HW130981   0.661   1.210   3.991  1.4277 -0.3084 -0.4520
10099SOL    HW230982   0.695   1.071   4.040  0.9155 -0.2958 -0.0605
10100SOL     OW30983   4.109   1.080   0.833 -0.4231  0.3282  0.1984
10100SOL    HW130984   4.201   1.108   0.829 -0.2727  0.1279  1.7976
10100SOL    HW230985   4.059   1.162   0.835 -0.2671  0.4383 -0.2774
10101SOL     OW30986   2.183   0.657   5.721 -0.1381 -0.3018 -0.3997
10101SOL    HW130987   2.140   0.627   5.801 -1.5034 -1.1732 -1.4099
10101SOL    HW230988   2.167   0.751   5.718  0.6710 -0.1113  0.7668
10102SOL     OW30989   5.377   2.834   1.542  0.0692  0.4113  0.4383
10102SOL    HW130990   5.407   2.859   1.455  1.1622 -1.0344  0.3646
10102SOL    HW230991   5.432   2.884   1.602  0.2330  0.3993  0.2974
10103SOL     OW30992   6.759   3.434   3.419 -0.0349 -0.2075 -0.0235
10103SOL    HW130993   6.745   3.363   3.482  0.2548 -1.1475 -0.9967
10103SOL    HW230994   6.734   3.397   3.334 -1.1564  1.2760 -0.3917
10104SOL     OW30995   6.696   4.667   0.983 -0.0495 -0.4262 -0.2928
10104SOL    HW130996   6.707   4.577   0.953  0.1651 -0.9809  1.3225
10104SOL    HW230997   6.754   4.718   0.927 -0.4738 -1.2231 -1.4996
10105SOL     OW30998   6.484   3.805   3.297  0.5767  0.0602  0.1397
10105SOL    HW130999   6.417   3.863   3.332 -0.6864 -1.1004 -0.2535
10105SOL    HW231000   6.565   3.857   3.299 -0.3552  1.5496  0.4605
10106SOL     OW31001   6.369   0.975   5.897 -0.4887  0.1604  0.0942
10106SOL    HW131002   6.456   0.981   5.858 -0.2016  1.0303  0.8305
10106SOL    HW231003   6.373   0.897   5.953 -0.6790 -0.6763 -1.0134
10107SOL     OW31004   6.635   1.351   3.241  0.4262  0.6038  0.0119
10107SOL    HW131005   6.688   1.276   3.215  1.0507  0.8928  0.4231
10107SOL    HW231006   6.545   1.319   3.236  0.4774  0.6571 -2.5291
10108SOL     OW31007   3.384   2.082   5.458  0.7761  0.1464  0.0980
10108SOL    HW131008   3.356   2.143   5.390  1.8458  0.1825 -0.3269
10108SOL    HW231009   3.419   2.007   5.411 -0.7239 -0.9235  0.6170
10109SOL     OW31010   3.096   3.843   1.843 -0.8008  0.4625  0.0441
10109SOL    HW131011   3.129   3.884   1.923  0.1479 -1.1678  0.5372
10109SOL    HW231012   3.002   3.835   1.857 -0.5069 -0.9530  1.6074
10110SOL     OW31013   1.562   3.589   6.406 -0.6072 -0.4540 -0.8446
10110SOL    HW131014   1.607   3.558   6.327  3.5620  1.5034  0.4953
10110SOL    HW231015   1.537   3.679   6.385 -0.8302 -0.4083 -0.3884
10111SOL     OW31016   6.844   4.715   2.772 -0.5407  0.0881  0.2143
10111SOL    HW131017   6.781   4.669   2.828 -1.3822  0.5603 -0.3162
10111SOL    HW231018   6.845   4.804   2.807  1.1550 -0.3055  1.2992
10112SOL     OW31019   2.572   4.627   6.779  0.1525 -0.0899  0.2078
10112SOL    HW131020   2.588   4.705   6.833  1.7886 -0.3365  0.1380
10112SOL    HW231021   2.558   4.557   6.842  2.3732 -0.4427  0.4029
10113SOL     OW31022   1.085   5.809   0.100 -0.9075  0.0871 -0.4700
10113SOL    HW131023   0.998   5.818   0.140 -0.4138  1.2608  0.3919
10113SOL    HW231024   1.129   5.744   0.154 -0.3597  1.4223  0.7286
10114SOL     OW31025   6.189   5.560   0.820  0.4146 -0.1671 -0.2343
10114SOL    HW131026   6.148   5.513   0.893  0.7432  0.7466  0.5516
10114SOL    HW231027   6.280   5.530   0.821  0.7149  0.7461  0.4995
10115SOL     OW31028   6.528   1.573   4.811 -0.2494 -0.4433 -0.1413
10115SOL    HW131029   6.433   1.580   4.818 -0.4130 -0.3776 -1.9933
10115SOL    HW231030   6.545   1.564   4.717  1.6372  0.7167  0.0230
10116SOL     OW31031   3.718   5.751   2.701  0.0854 -0.0350 -0.6166
10116SOL    HW131032   3.625   5.773   2.694  0.8439  3.1099 -2.7203
10116SOL    HW231033   3.742   5.774   2.790 -1.0037 -0.4796 -0.1814
10117SOL     OW31034   5.970   2.590   3.991  0.2411  0.0370  0.5500
10117SOL    HW131035   5.991   2.666   3.937 -0.9873 -1.3268 -2.0473
10117SOL    HW231036   5.876   2.598   4.008 -0.5163 -1.9851 -1.9111
10118SOL     OW31037   0.651   0.902   3.953 -0.2244 -0.4549 -0.1804
10118SOL    HW131038   0.621   0.895   4.043  1.7664 -0.4956  0.5286
10118SOL    HW231039   0.700   0.821   3.937 -1.7066 -1.0885 -1.7945
10119SOL     OW31040   3.177   2.919   3.306  0.4625 -0.8610  0.2024
10119SOL    HW131041   3.239   2.941   3.236  1.1418 -1.4097  0.6303
10119SOL    HW231042   3.200   2.830   3.332 -0.0687 -0.8187  0.8371
10120SOL     OW31043   4.417   3.032   5.361  0.1906 -0.0306 -0.1245
10120SOL    HW131044   4.457   3.049   5.276  2.4889  0.3160  0.9521
10120SOL    HW231045   4.346   2.970   5.343 -0.6579  1.5115 -2.5184
10121SOL     OW31046   2.109   3.432   0.387 -0.3977  0.0331  0.3289
10121SOL    HW131047   2.098   3.506   0.447 -2.0699  0.7457 -0.7783
10121SOL    HW231048   2.164   3.466   0.316 -1.4402  0.3468 -0.3467
10122SOL     OW31049   3.777   5.014   5.343 -0.5011  0.3593  0.7878
10122SOL    HW131050   3.751   4.953   5.274 -2.1317  1.1020  0.6925
10122SOL    HW231051   3.830   5.080   5.298  0.4197 -0.4235  0.7049
10123SOL     OW31052   4.509   1.709   4.323  0.2509  0.3120  0.4295
10123SOL    HW131053   4.439   1.675   4.378  0.4555 -0.4883  0.2070
10123SOL    HW231054   4.586   1.658   4.347  0.8812  1.4655  0.9733
10124SOL     OW31055   4.275   2.191   5.991  0.0073  0.3203 -0.3574
10124SOL    HW131056   4.366   2.207   6.015 -0.3059  0.8451  0.5126
10124SOL    HW231057   4.268   2.095   5.989  0.3477  0.2592  0.5283
10125SOL     OW31058   0.339   0.216   4.168  0.2589 -0.0970 -0.4444
10125SOL    HW131059   0.370   0.306   4.181  2.7726 -0.7246 -1.5451
10125SOL    HW231060   0.356   0.172   4.252  0.1369  0.1492 -0.2899
10126SOL     OW31061   6.177   1.390   4.006 -0.2200 -0.3263 -0.8112
10126SOL    HW131062   6.214   1.451   4.069  0.3777 -0.6002 -0.8877
10126SOL    HW231063   6.223   1.307   4.022 -0.6845 -0.6312 -1.0210
10127SOL     OW31064   1.119   6.515   0.367  0.2108 -0.1376 -0.0518
10127SOL    HW131065   1.044   6.574   0.367  0.1513 -0.2135 -0.0471
10127SOL    HW231066   1.158   6.525   0.280 -0.2538 -0.6688 -0.3235
10128SOL     OW31067   1.847   0.685   5.683  0.1962 -0.2854 -0.5762
10128SOL    HW131068   1.817   0.708   5.595 -0.1069 -0.2939 -0.4762
10128SOL    HW231069   1.885   0.767   5.717  1.4028 -0.5852 -1.1542
10129SOL     OW31070   6.187   0.412   3.512  0.6253 -0.8047 -0.5458
10129SOL    HW131071   6.247   0.412   3.587  0.6794 -0.7468 -0.5888
10129SOL    HW231072   6.199   0.327   3.470  1.8046 -0.2189 -1.4558
10130SOL     OW31073   1.650   1.053   1.568  0.3356  0.2306  0.3026
10130SOL    HW131074   1.692   1.048   1.482 -0.1957 -0.7521  0.0867
10130SOL    HW231075   1.680   1.136   1.604  0.2928  0.8260 -0.9785
10131SOL     OW31076   4.895   5.739   0.715 -0.2874 -0.1996  0.2154
10131SOL    HW131077   4.971   5.699   0.672 -0.1805  1.7483 -1.5452
10131SOL    HW231078   4.932   5.802   0.776 -0.4847 -0.3738  0.5175
10132SOL     OW31079   0.741   4.507   2.999  0.1543 -0.6586 -0.0081
10132SOL    HW131080   0.765   4.477   3.087  0.3907 -0.8079 -0.1226
10132SOL    HW231081   0.649   4.532   3.007  0.5029  0.4845  0.5824
10133SOL     OW31082   1.364   6.814   4.045  0.0373 -0.1191  0.3345
10133SOL    HW131083   1.433   6.766   4.089 -0.1276  0.8072  1.6531
10133SOL    HW231084   1.391   6.906   4.051 -0.7599  0.1557 -0.1198
10134SOL     OW31085   6.127   5.563   0.112 -0.4560 -0.2591 -0.3840
10134SOL    HW131086   6.089   5.649   0.095 -2.2662 -0.8281  0.5016
10134SOL    HW231087   6.090   5.537   0.197  2.2644 -0.7338  0.7557
10135SOL     OW31088   2.454   0.835   1.670  0.2600 -0.0314 -0.5110
10135SOL    HW131089   2.382   0.884   1.629 -1.1832 -1.5101  0.1390
10135SOL    HW231090   2.500   0.901   1.722 -2.2905  0.5372  1.2398
10136SOL     OW31091   4.636   4.192   1.277  0.4537  0.3381 -0.3633
10136SOL    HW131092   4.628   4.112   1.328  0.1339  0.7173  0.1945
10136SOL    HW231093   4.599   4.170   1.191  1.4498 -0.4398 -0.5970
10137SOL     OW31094   4.017   0.263   4.487 -0.0154  0.1546 -0.5363
10137SOL    HW131095   3.977   0.305   4.411 -2.7297  0.6225  1.0422
10137SOL    HW231096   3.999   0.322   4.560  1.7654 -0.6905  0.6536
10138SOL     OW31097   3.307   3.301   5.246 -0.0943 -1.0243  0.1161
10138SOL    HW131098   3.237   3.324   5.185  0.5031 -2.8194 -1.3554
10138SOL    HW231099   3.270   3.231   5.301  0.5583 -2.1447 -0.8202
10139SOL     OW31100   4.186   3.093   1.448 -0.2751 -0.4463 -0.1718
10139SOL    HW131101   4.195   3.010   1.402 -1.7977 -0.3346 -0.7121
10139SOL    HW231102   4.178   3.068   1.540  0.8114 -0.7848 -0.1567
10140SOL     OW31103   4.561   0.227   6.814 -0.7210  0.6008 -0.3208
10140SOL    HW131104   4.557   0.307   6.866  1.8318  0.8805 -0.4277
10140SOL    HW231105   4.508   0.246   6.736  0.3815  2.4795 -0.6718
10141SOL     OW31106   5.659   0.452   0.710  0.0536  0.0045 -0.2023
10141SOL    HW131107   5.732   0.509   0.687 -0.4757  0.8505  0.1774
10141SOL    HW231108   5.601   0.454   0.634  0.3695 -0.6033 -0.4712
10142SOL     OW31109   0.289   1.030   1.166  0.0563  0.1427 -0.3181
10142SOL    HW131110   0.201   0.996   1.149 -0.1341 -0.2672  1.3108
10142SOL    HW231111   0.346   0.973   1.115 -0.5563 -0.2019 -0.6349
10143SOL     OW31112   3.791   5.289   5.251  0.1461  0.0995  0.3123
10143SOL    HW131113   3.850   5.322   5.318  2.2035  0.6671 -1.6741
10143SOL    HW231114   3.848   5.249   5.186 -1.8959 -2.4371 -0.1125
10144SOL     OW31115   6.750   3.819   1.728 -0.7462 -0.1838 -0.3851
10144SOL    HW131116   6.757   3.733   1.768 -3.2485 -0.6549 -0.7997
10144SOL    HW231117   6.703   3.872   1.793  0.9467  0.9717 -0.0426
10145SOL     OW31118   4.834   4.638   6.887  0.4193 -0.5010  0.0344
10145SOL    HW131119   4.863   4.615   6.798  0.9834  0.5703 -0.0774
10145SOL    HW231120   4.785   4.719   6.876 -1.7933 -1.7156  0.3818
10146SOL     OW31121   3.411   3.672   4.628  0.0691 -0.2543 -0.3021
10146SOL    HW131122   3.473   3.734   4.589  0.3956 -0.9199 -0.8594
10146SOL    HW231123   3.395   3.607   4.560  0.3492 -1.2242  0.5288
10147SOL     OW31124   1.966   5.348   4.713 -0.9706  0.3088  0.6984
10147SOL    HW131125   1.896   5.341   4.649 -0.9749 -2.0184  0.8441
10147SOL    HW231126   2.045   5.323   4.665 -0.5740  0.9573  1.0079
10148SOL     OW31127   5.339   6.207   0.943  0.4798 -0.1007 -0.3415
10148SOL    HW131128   5.273   6.175   0.881 -0.4827 -1.3860  1.2621
10148SOL    HW231129   5.375   6.285   0.901 -2.0915  0.7076 -1.2735
10149SOL     OW31130   1.769   6.126   3.545 -0.1321 -0.1184  0.5719
10149SOL    HW131131   1.701   6.192   3.558  0.0332  0.2065 -0.1761
10149SOL    HW231132   1.733   6.065   3.481 -0.2384 -0.7018  1.1761
10150SOL     OW31133   1.028   2.258   0.710  0.7429 -0.7109 -0.6371
10150SOL    HW131134   1.100   2.241   0.772 -1.2531 -0.7826  1.8517
10150SOL    HW231135   1.014   2.174   0.666  2.0123 -0.7493 -1.0079
10151SOL     OW31136   0.219   1.730   1.176 -1.0422 -0.4284  0.0984
10151SOL    HW131137   0.232   1.825   1.174 -2.1599 -0.2539  0.5099
10151SOL    HW231138   0.304   1.694   1.150 -1.2235  0.7017 -2.3594
10152SOL     OW31139   3.109   4.008   6.181  0.2309  0.1385  0.2669
10152SOL    HW131140   3.055   4.070   6.132  1.6428  1.9680  0.9018
10152SOL    HW231141   3.062   3.925   6.174 -1.6029  1.1899 -0.8692
10153SOL     OW31142   1.605   0.710   2.408 -0.4620 -0.2809 -0.4405
10153SOL    HW131143   1.515   0.704   2.441 -0.0754  1.7476  1.1918
10153SOL    HW231144   1.622   0.804   2.404  1.5848 -0.6377 -0.7963
10154SOL     OW31145   6.770   2.477   4.161 -0.0586  0.6439 -0.1842
10154SOL    HW131146   6.843   2.463   4.100  0.7075 -0.5608  0.9717
10154SOL    HW231147   6.735   2.389   4.176 -0.3315  0.9432  0.9908
10155SOL     OW31148   4.207   1.249   6.020  0.2519  0.6523 -0.2928
10155SOL    HW131149   4.199   1.342   6.001 -2.4020  0.5714 -0.0142
10155SOL    HW231150   4.141   1.233   6.088 -0.5694 -1.7120 -1.5149
10156SOL     OW31151   3.953   5.908   3.141  0.2381 -0.2559 -0.0626
10156SOL    HW131152   4.013   5.970   3.182 -1.1336  0.4188  1.0041
10156SOL    HW231153   3.938   5.841   3.208 -0.4148 -0.2619 -0.2085
10157SOL     OW31154   0.701   6.056   1.203  0.0006  0.4962 -0.1517
10157SOL    HW131155   0.622   6.008   1.178  0.5609 -0.7468  0.4236
10157SOL    HW231156   0.771   5.991   1.204  0.4589  0.9451  2.2975
10158SOL     OW31157   6.099   1.840   4.316  0.2916  0.0288  0.2530
10158SOL    HW131158   6.027   1.840   4.253 -0.5341  0.6073  1.1649
10158SOL    HW231159   6.078   1.912   4.377  1.8729  0.5122  0.2767
10159SOL     OW31160   2.249   2.585   6.690 -0.0922 -0.5993  0.2270
10159SOL    HW131161   2.274   2.666   6.734  1.5386  0.1787 -1.9044
10159SOL    HW231162   2.155   2.594   6.675 -0.3237 -0.0729  1.8231
10160SOL     OW31163   6.533   5.886   6.406 -0.6826 -0.0118 -0.4584
10160SOL    HW131164   6.554   5.810   6.352 -1.0682  0.4424 -1.2744
10160SOL    HW231165   6.504   5.952   6.343 -2.4145  0.1097  0.4138
10161SOL     OW31166   6.792   4.809   5.162  0.3552 -0.0227  0.0824
10161SOL    HW131167   6.741   4.890   5.155 -0.6217 -0.7748 -2.5246
10161SOL    HW231168   6.876   4.837   5.199  0.1260  2.2291 -0.9261
10162SOL     OW31169   5.983   2.190   0.190  0.3293  0.4354  0.4000
10162SOL    HW131170   6.079   2.200   0.193  0.4448 -0.3572 -0.1899
10162SOL    HW231171   5.959   2.227   0.105  0.0950  0.7252  0.5922
10163SOL     OW31172   4.738   6.657   6.589  0.4104  0.6205 -0.5183
10163SOL    HW131173   4.652   6.616   6.575  1.4727 -2.9411  1.9716
10163SOL    HW231174   4.745   6.664   6.684  1.6069  4.1306 -0.7273
10164SOL     OW31175   4.450   0.503   4.243  0.1928  0.2093 -0.2830
10164SOL    HW131176   4.497   0.426   4.212 -0.3056 -0.1266 -0.2177
10164SOL    HW231177   4.464   0.569   4.175 -0.1170 -0.2251 -0.7803
10165SOL     OW31178   1.240   2.898   2.454  1.1187 -0.4110 -0.9006
10165SOL    HW131179   1.182   2.973   2.463  0.1709 -1.1894 -0.3709
10165SOL    HW231180   1.314   2.918   2.512 -0.1677 -0.8494  0.9586
10166SOL     OW31181   5.214   0.894   4.351 -0.1317  0.2151 -0.7757
10166SOL    HW131182   5.181   0.804   4.343 -0.2525 -0.1393  2.6075
10166SOL    HW231183   5.306   0.887   4.325 -0.8535 -0.1167 -3.6982
10167SOL     OW31184   4.501   5.783   1.126  0.1533 -0.4632  0.5423
10167SOL    HW131185   4.432   5.837   1.087  0.8359 -1.0241 -1.5618
10167SOL    HW231186   4.461   5.697   1.138  0.4614 -0.7775 -0.6384
10168SOL     OW31187   3.803   4.945   5.589  0.1079  0.1371 -0.3384
10168SOL    HW131188   3.720   4.909   5.620 -0.3539 -0.7318 -2.3699
10168SOL    HW231189   3.784   4.974   5.500  2.1996 -1.0023 -1.2245
10169SOL     OW31190   1.617   0.016   0.125 -0.3670 -0.0848 -0.0319
10169SOL    HW131191   1.583   0.101   0.152 -0.5933  0.0017 -0.5847
10169SOL    HW231192   1.580  -0.045   0.189  0.2356  0.2915  0.6930
10170SOL     OW31193   6.646   1.060   2.456 -0.4442 -0.5034 -0.6174
10170SOL    HW131194   6.637   0.976   2.500 -0.1523  0.3413  1.1277
10170SOL    HW231195   6.741   1.071   2.443 -0.3679  0.1359  0.3840
10171SOL     OW31196   1.778   6.445   0.821  0.1776  0.7834  0.3273
10171SOL    HW131197   1.818   6.531   0.811 -1.2535  1.4296 -0.0503
10171SOL    HW231198   1.791   6.403   0.736  1.7519  0.2033  0.8144
10172SOL     OW31199   0.064   2.242   6.476  0.2876  0.0201  0.1513
10172SOL    HW131200   0.149   2.206   6.502  0.4567  1.0203  1.0297
10172SOL    HW231201   0.078   2.272   6.386  0.8357  0.0811  0.2508
10173SOL     OW31202   4.075   0.686   5.290 -0.2084  0.2862  0.2179
10173SOL    HW131203   4.032   0.620   5.345 -0.3462  1.3277  1.4132
10173SOL    HW231204   4.065   0.768   5.339  3.4396  0.5798  0.8134
10174SOL     OW31205   4.165   3.658   0.805  0.0761 -0.0873  0.2644
10174SOL    HW131206   4.136   3.571   0.779 -0.1247 -0.5613  1.9500
10174SOL    HW231207   4.085   3.711   0.806  0.2580  0.2409 -1.1477
10175SOL     OW31208   5.367   0.668   1.916  0.5384  0.1501 -0.3656
10175SOL    HW131209   5.353   0.636   1.826 -0.6471  0.1058 -0.1780
10175SOL    HW231210   5.459   0.697   1.917  0.8847 -0.8513 -1.2780
10176SOL     OW31211   4.227   3.040   6.394 -0.0109  0.7933 -0.4322
10176SOL    HW131212   4.142   3.002   6.373  1.2587 -1.2154 -2.3759
10176SOL    HW231213   4.243   3.104   6.324  1.0869 -0.6487 -1.5680
10177SOL     OW31214   4.178   1.823   0.084 -0.6035 -0.3630  0.5095
10177SOL    HW131215   4.136   1.743   0.115  1.8992 -1.5675  1.0277
10177SOL    HW231216   4.142   1.836  -0.004 -0.0074 -2.9171 -0.1866
10178SOL     OW31217   6.618   0.614   1.524 -0.5614  0.3354 -0.2355
10178SOL    HW131218   6.651   0.534   1.482 -0.7080 -0.1294  0.5238
10178SOL    HW231219   6.570   0.659   1.454  0.4338  0.3089 -0.9715
10179SOL     OW31220   6.348   5.918   4.004 -0.0233  0.0694  0.2996
10179SOL    HW131221   6.275   5.902   3.944  1.6237  1.1623 -2.1463
10179SOL    HW231222   6.320   5.994   4.056 -0.5670  0.6173 -0.7586
10180SOL     OW31223   2.553   5.474   4.497  0.6038 -0.0583  0.0843
10180SOL    HW131224   2.579   5.535   4.565  0.5535  0.1022 -0.0382
10180SOL    HW231225   2.613   5.400   4.506  0.1349 -0.3683  0.7653
10181SOL     OW31226   3.588   1.354   4.075  0.3232  0.1359 -0.1304
10181SOL    HW131227   3.571   1.269   4.034 -1.3216  0.6407 -0.6090
10181SOL    HW231228   3.544   1.417   4.018  1.8035  1.3625  0.0294
10182SOL     OW31229   1.634   2.250   0.465 -0.1808  0.2347  0.0428
10182SOL    HW131230   1.677   2.250   0.551  1.0884  1.1981 -0.5640
10182SOL    HW231231   1.567   2.319   0.472 -0.5035 -0.1111  0.4399
10183SOL     OW31232   6.332   0.930   2.231  0.5517 -0.4225 -0.4941
10183SOL    HW131233   6.327   0.988   2.307  2.2816 -2.0841  1.0147
10183SOL    HW231234   6.242   0.899   2.218  0.0517  0.6821  0.2053
10184SOL     OW31235   1.445   0.414   2.640 -0.1034  0.9211  0.1883
10184SOL    HW131236   1.415   0.505   2.641 -2.5644  0.2453 -1.8135
10184SOL    HW231237   1.386   0.368   2.699 -0.1616  0.3049 -0.3283
10185SOL     OW31238   5.929   3.799   1.708 -0.3037 -0.3287 -0.1410
10185SOL    HW131239   5.903   3.891   1.708  0.2736 -0.1438  0.9912
10185SOL    HW231240   5.903   3.767   1.794 -0.3482 -1.1940 -0.4631
10186SOL     OW31241   2.960   6.734   1.209  0.4116  0.6410  0.6895
10186SOL    HW131242   2.952   6.655   1.155 -1.6271 -0.1014  1.9834
10186SOL    HW231243   3.045   6.771   1.184  1.5896 -2.1090  0.2319
10187SOL     OW31244   4.164   0.818   4.192  0.2514 -0.4031 -0.3634
10187SOL    HW131245   4.071   0.837   4.179  0.1609  0.7951  1.7326
10187SOL    HW231246   4.166   0.756   4.265  1.1387  0.6440  0.5351
10188SOL     OW31247   1.104   5.255   2.823  0.4874 -0.4629 -0.0007
10188SOL    HW131248   1.041   5.236   2.754 -1.7887 -1.0877  2.1268
10188SOL    HW231249   1.119   5.349   2.816  0.9818 -0.6190 -1.7916
10189SOL     OW31250   0.576   3.612   5.160  0.7207  0.1719  0.4181
10189SOL    HW131251   0.532   3.696   5.146  1.0832  0.2676 -0.2038
10189SOL    HW231252   0.609   3.616   5.249 -1.7322 -0.4617  1.4466
10190SOL     OW31253   6.628   5.707   6.207 -0.5554  0.1522  0.5010
10190SOL    HW131254   6.568   5.646   6.164  1.1218 -1.1975 -0.0516
10190SOL    HW231255   6.662   5.761   6.135 -1.3947  1.2190  0.8724
10191SOL     OW31256   2.611   3.929   0.531 -0.1479 -0.1738 -0.9177
10191SOL    HW131257   2.585   3.979   0.454 -1.3332  2.6614  1.1509
10191SOL    HW231258   2.534   3.930   0.588 -0.0650 -4.0523 -0.4585
10192SOL     OW31259   3.945   2.335   2.633 -0.1857 -0.0348  0.8700
10192SOL    HW131260   3.884   2.381   2.576 -0.2287  0.2713  1.1562
10192SOL    HW231261   3.945   2.386   2.714  2.5481  1.6522 -0.0526
10193SOL     OW31262   3.402   2.152   4.170 -0.4360  0.4560 -0.3822
10193SOL    HW131263   3.374   2.110   4.089  0.7813 -0.4462 -0.3592
10193SOL    HW231264   3.462   2.089   4.211 -1.1924  0.7893  1.3348
10194SOL     OW31265   3.671   4.457   6.192 -0.0694 -0.2824 -0.1224
10194SOL    HW131266   3.683   4.445   6.098 -0.0475  0.4176 -0.2112
10194SOL    HW231267   3.612   4.386   6.218 -0.8772  0.1145 -0.8385
10195SOL     OW31268   6.027   5.351   5.840  0.8849 -0.5613 -0.3623
10195SOL    HW131269   5.997   5.312   5.922 -2.0848 -0.5157 -1.3243
10195SOL    HW231270   5.966   5.319   5.774  1.7501  1.2863 -2.1652
10196SOL     OW31271   5.706   2.642   4.073  0.1021 -0.4057 -0.0158
10196SOL    HW131272   5.699   2.732   4.041 -0.9923 -0.0767  1.0500
10196SOL    HW231273   5.706   2.650   4.168  2.4104 -1.4037  0.1382
10197SOL     OW31274   0.337   3.712   0.034  0.2228  0.4014 -0.1740
10197SOL    HW131275   0.326   3.666   0.117  0.0975  0.2048 -0.2969
10197SOL    HW231276   0.366   3.644  -0.027 -0.6999  0.3185 -0.5403
10198SOL     OW31277   3.777   6.506   4.297  0.6092 -0.0367  0.4493
10198SOL    HW131278   3.722   6.551   4.233  0.8759  0.7217  0.7418
10198SOL    HW231279   3.804   6.426   4.253  0.1533  0.0994 -0.0945
10199SOL     OW31280   5.790   5.114   5.785  0.0164  0.3863 -0.1746
10199SOL    HW131281   5.706   5.075   5.758 -0.2282  1.9507 -1.8239
10199SOL    HW231282   5.852   5.042   5.779 -0.7457 -0.1984 -1.4014
10200SOL     OW31283   0.305   0.683   3.068  0.3046  0.2135 -0.2865
10200SOL    HW131284   0.226   0.736   3.076  0.2266 -0.0040  0.3931
10200SOL    HW231285   0.340   0.678   3.157 -1.0320 -2.9212  0.1741
10201SOL     OW31286   4.759   6.674   2.431  0.8793 -0.4827 -0.2149
10201SOL    HW131287   4.844   6.692   2.471  1.3987  1.5488 -2.0467
10201SOL    HW231288   4.696   6.713   2.492  1.3950 -0.4117  0.2857
10202SOL     OW31289   2.365   2.054   0.961 -0.3540 -0.2950 -0.5891
10202SOL    HW131290   2.284   2.005   0.972  0.3441 -0.7894  4.2956
10202SOL    HW231291   2.425   1.991   0.920 -0.2712 -2.9259  3.0671
10203SOL     OW31292   3.150   5.317   4.277 -0.3004 -0.2912 -0.2156
10203SOL    HW131293   3.170   5.391   4.334  1.1026 -0.0262 -0.9907
10203SOL    HW231294   3.235   5.290   4.242 -0.6298 -2.8770  0.7445
10204SOL     OW31295   3.284   2.006   4.739  0.0235 -0.0052 -0.8167
10204SOL    HW131296   3.325   2.093   4.739  1.4826 -0.6469  0.3362
10204SOL    HW231297   3.193   2.022   4.716  0.5792  1.6710 -2.0008
10205SOL     OW31298   2.458   4.764   6.200  0.4466  0.6099 -0.1588
10205SOL    HW131299   2.428   4.843   6.245  2.4684  0.1977  2.1941
10205SOL    HW231300   2.536   4.792   6.152  1.0373  0.1582  0.4977
10206SOL     OW31301   0.505   6.239   6.876  0.2429 -0.0623 -0.7043
10206SOL    HW131302   0.537   6.279   6.795  1.0768  0.4223 -0.1587
10206SOL    HW231303   0.513   6.309   6.941 -1.8642  0.0410 -0.4929
10207SOL     OW31304   3.487   4.953   6.130 -0.0526 -0.0294  0.2854
10207SOL    HW131305   3.481   4.887   6.199 -1.7608 -0.0503  0.1520
10207SOL    HW231306   3.581   4.970   6.121  0.2398 -0.2762  2.3681
10208SOL     OW31307   0.922   1.719   2.883  0.0096  0.1169 -0.4559
10208SOL    HW131308   0.970   1.794   2.849  0.6312  0.1694  0.5019
10208SOL    HW231309   0.833   1.752   2.897  0.4293  0.8800  0.5612
10209SOL     OW31310   0.187   1.693   0.502 -0.1700  0.1556 -1.0116
10209SOL    HW131311   0.098   1.666   0.524 -0.3080 -0.2718 -2.0375
10209SOL    HW231312   0.188   1.787   0.520  0.3968 -0.4462  2.8506
10210SOL     OW31313   5.532   6.040   4.031  0.0187  0.1373 -0.3599
10210SOL    HW131314   5.461   6.016   4.091  1.1479 -0.7562  0.6646
10210SOL    HW231315   5.550   5.960   3.981  1.0566  0.0200  0.1849
10211SOL     OW31316   2.844   5.863   5.869  0.6329 -0.0522  0.3918
10211SOL    HW131317   2.933   5.861   5.835  0.4028 -3.1252 -0.3799
10211SOL    HW231318   2.854   5.868   5.964  1.6359 -0.2768  0.3082
10212SOL     OW31319   1.853   4.851   0.784  0.7851 -0.0687  0.3462
10212SOL    HW131320   1.864   4.765   0.742 -1.5642 -0.3478  0.1451
10212SOL    HW231321   1.833   4.910   0.711  2.3100  0.6782  0.4955
10213SOL     OW31322   0.919   1.988   0.330 -0.0507 -0.1405  0.0255
10213SOL    HW131323   0.974   2.032   0.266 -1.3675  2.7431  0.6902
10213SOL    HW231324   0.882   1.913   0.283 -0.1562  1.2591 -2.3000
10214SOL     OW31325   5.543   3.296   1.265 -0.5250 -0.2873 -0.2453
10214SOL    HW131326   5.504   3.331   1.346 -0.1293 -0.0801 -0.1438
10214SOL    HW231327   5.615   3.240   1.295 -0.6488 -0.5534 -0.4410
10215SOL     OW31328   3.500   2.475   4.999  0.3624  0.1716 -0.4108
10215SOL    HW131329   3.576   2.514   4.956  0.2815 -0.0729 -0.7795
10215SOL    HW231330   3.525   2.385   5.016  0.0116 -0.0207 -0.8909
10216SOL     OW31331   6.777   3.881   4.195 -0.1030  0.0103  0.2302
10216SOL    HW131332   6.725   3.826   4.254  1.6001 -0.0727  1.7377
10216SOL    HW231333   6.758   3.971   4.222  0.5426 -0.0222  0.8261
10217SOL     OW31334   0.747   4.843   4.114  0.3378 -0.6737  0.2181
10217SOL    HW131335   0.694   4.810   4.186  0.3487  0.9527  1.0226
10217SOL    HW231336   0.722   4.936   4.107 -2.2823 -1.4225 -4.1489
10218SOL     OW31337   2.362   0.684   3.271  0.3713 -0.0734  0.5998
10218SOL    HW131338   2.428   0.719   3.331  1.7000 -0.4123 -0.5849
10218SOL    HW231339   2.375   0.735   3.191  1.1723 -2.0185 -0.5947
10219SOL     OW31340   6.702   0.978   0.504  0.0440 -0.1524 -0.4351
10219SOL    HW131341   6.644   1.050   0.479  0.1962 -0.0574 -0.5134
10219SOL    HW231342   6.694   0.915   0.433  0.4657  0.1111 -0.7238
10220SOL     OW31343   5.574   3.083   4.269  0.1660  0.1248  0.2488
10220SOL    HW131344   5.527   3.161   4.241  1.1330  0.8820  0.6756
10220SOL    HW231345   5.614   3.107   4.353  0.1645 -0.9571  0.5836
10221SOL     OW31346   4.836   4.076   0.889  0.0620 -0.6403  0.3464
10221SOL    HW131347   4.845   4.087   0.984 -1.0477  0.7938  0.3268
10221SOL    HW231348   4.766   4.012   0.880  0.4109 -1.0462  0.4900
10222SOL     OW31349   2.365   6.505   3.695 -0.1064 -0.3932  0.3890
10222SOL    HW131350   2.443   6.561   3.702  1.1907 -2.0515 -0.2362
10222SOL    HW231351   2.313   6.547   3.626  1.7043 -0.8542 -1.3661
10223SOL     OW31352   0.877   4.620   1.849 -0.4470 -0.0925 -0.1506
10223SOL    HW131353   0.925   4.538   1.839 -0.6137 -0.0817 -1.1342
10223SOL    HW231354   0.917   4.662   1.925 -0.1909 -0.9627  0.2078
10224SOL     OW31355   1.115   4.728   2.951  0.4431  0.0399  0.0057
10224SOL    HW131356   1.041   4.787   2.965  0.2525  0.0931 -1.1091
10224SOL    HW231357   1.172   4.774   2.888  2.2666  0.7104  2.0300
10225SOL     OW31358   5.005   5.359   0.080  0.1558  0.6184  0.3760
10225SOL    HW131359   5.004   5.284   0.140 -1.3300 -0.0273 -0.3763
10225SOL    HW231360   5.051   5.327   0.003 -2.4969 -0.4328 -0.9116
10226SOL     OW31361   5.894   6.498   4.374 -0.1079 -0.2526 -0.0680
10226SOL    HW131362   5.942   6.440   4.433 -0.4294 -0.7148 -0.2540
10226SOL    HW231363   5.821   6.445   4.342 -1.2339  0.6809  0.8601
10227SOL     OW31364   2.608   6.537   5.895  0.0236  0.0697 -0.5483
10227SOL    HW131365   2.584   6.621   5.934  0.5378  0.1822 -0.4643
10227SOL    HW231366   2.593   6.549   5.801 -1.5188 -0.3050 -0.3669
10228SOL     OW31367   6.455   1.747   2.657  0.1691  0.2366  1.0490
10228SOL    HW131368   6.457   1.651   2.653  1.0447  0.2938 -1.1917
10228SOL    HW231369   6.547   1.773   2.662 -0.0578  0.9619  1.5592
10229SOL     OW31370   1.375   4.500   4.493  0.3362  0.0998 -0.1878
10229SOL    HW131371   1.369   4.512   4.588 -0.7313 -1.2035 -0.0534
10229SOL    HW231372   1.466   4.520   4.472  0.3717  1.3274  0.9573
10230SOL     OW31373   5.412   2.368   1.390 -0.3297 -0.0872 -0.6900
10230SOL    HW131374   5.475   2.334   1.326 -1.0379 -0.8643 -0.9883
10230SOL    HW231375   5.402   2.297   1.454 -0.3985  0.2911 -0.2794
10231SOL     OW31376   0.262   4.214   1.043 -0.4912 -0.8797 -0.1296
10231SOL    HW131377   0.241   4.121   1.032  1.4601 -1.2577 -1.2406
10231SOL    HW231378   0.294   4.221   1.133 -2.1452 -0.9356  0.4826
10232SOL     OW31379   0.931   1.155   3.488  0.2928 -0.1592  0.4531
10232SOL    HW131380   0.837   1.164   3.505 -0.1049  0.1996 -1.6755
10232SOL    HW231381   0.973   1.199   3.562 -1.2741  1.7974  0.2578
10233SOL     OW31382   2.939   4.408   2.337  0.4658 -0.7355 -0.2322
10233SOL    HW131383   2.950   4.365   2.252  0.0260  0.5303 -0.9604
10233SOL    HW231384   3.011   4.375   2.390  0.8940 -1.3742 -1.1816
10234SOL     OW31385   1.231   3.817   5.544 -0.3371 -0.0054  0.3646
10234SOL    HW131386   1.188   3.871   5.477 -0.3276  0.6037  0.8375
10234SOL    HW231387   1.261   3.740   5.497  1.1001  1.1285 -0.6990
10235SOL     OW31388   5.875   0.016   2.159  0.3699 -0.3246 -0.5261
10235SOL    HW131389   5.803   0.079   2.164 -1.6720 -2.5818  0.2106
10235SOL    HW231390   5.885  -0.001   2.066  0.0696  0.1089 -0.6442
10236SOL     OW31391   6.153   3.674   1.597 -0.1621 -0.2911 -0.8164
10236SOL    HW131392   6.072   3.711   1.633 -0.6157  1.2022 -3.1359
10236SOL    HW231393   6.222   3.708   1.654 -0.9927  0.2409 -0.0995
10237SOL     OW31394   2.720   2.452   1.695  0.2193 -0.3178 -0.2090
10237SOL    HW131395   2.748   2.441   1.786  0.7890  1.5460 -0.1095
10237SOL    HW231396   2.797   2.428   1.643  0.8859  1.3279 -0.0574
10238SOL     OW31397   2.372   4.203   2.003  0.2151  0.0176 -0.0385
10238SOL    HW131398   2.423   4.177   2.080  0.3841 -1.0219 -0.4788
10238SOL    HW231399   2.429   4.179   1.929 -0.7379 -0.7918 -0.5287
10239SOL     OW31400   4.564   2.377   5.288 -0.2997  0.1126 -0.1132
10239SOL    HW131401   4.527   2.289   5.279  0.0059  0.0759 -1.2523
10239SOL    HW231402   4.489   2.435   5.280 -0.7071 -0.0342  1.9714
10240SOL     OW31403   6.321   3.896   3.027 -0.3185 -0.1345 -0.0839
10240SOL    HW131404   6.255   3.831   3.048 -1.7925  1.1256 -0.5975
10240SOL    HW231405   6.365   3.914   3.110 -0.6666 -0.9356  0.2799
10241SOL     OW31406   3.903   4.806   4.834  0.2590  0.2922 -0.0227
10241SOL    HW131407   3.990   4.831   4.803  0.2059  0.6457  0.1115
10241SOL    HW231408   3.912   4.714   4.857  1.2539  0.8889  2.2515
10242SOL     OW31409   5.101   0.542   3.105  0.1323 -0.2125  0.1927
10242SOL    HW131410   5.152   0.574   3.031 -0.2475 -0.2501 -0.0880
10242SOL    HW231411   5.041   0.478   3.067 -1.2654  1.0310  0.2522
10243SOL     OW31412   4.533   4.821   0.695  0.2185 -0.2826  0.4916
10243SOL    HW131413   4.623   4.850   0.713 -0.4592  1.0776  1.9347
10243SOL    HW231414   4.530   4.809   0.600  1.6807  0.4924  0.3135
10244SOL     OW31415   0.250   6.220   0.090  0.1794  0.2181  0.0321
10244SOL    HW131416   0.327   6.203   0.035  1.5074 -1.9294  2.3512
10244SOL    HW231417   0.218   6.133   0.113 -2.4456  1.0823 -0.1189
10245SOL     OW31418   4.284   3.427   5.153 -0.3505  0.1490  0.5902
10245SOL    HW131419   4.273   3.345   5.106  1.7132  0.3905 -0.4349
10245SOL    HW231420   4.286   3.402   5.246  1.0860 -1.0945  0.2581
10246SOL     OW31421   3.741   0.218   0.421 -0.3932  0.5410 -0.5751
10246SOL    HW131422   3.693   0.182   0.497  0.5325 -0.0548 -0.2589
10246SOL    HW231423   3.672   0.253   0.364 -1.2791 -0.9169 -0.4538
10247SOL     OW31424   5.911   4.197   1.863  0.5256  0.0967  0.5684
10247SOL    HW131425   5.992   4.147   1.852  0.3579 -0.1466  0.4252
10247SOL    HW231426   5.892   4.231   1.776  0.7035  0.5151  0.6892
10248SOL     OW31427   3.363   6.288   5.798 -0.5006 -0.0588  0.0446
10248SOL    HW131428   3.330   6.372   5.832  0.6378  0.2633  0.4036
10248SOL    HW231429   3.292   6.226   5.814 -1.1817  0.7453  0.1955
10249SOL     OW31430   2.202   4.294   1.806  0.3081  0.3669 -0.3195
10249SOL    HW131431   2.281   4.329   1.846 -0.4950  1.6446  0.2094
10249SOL    HW231432   2.219   4.297   1.712  0.8855  0.6276 -0.2103
10250SOL     OW31433   0.148   6.828   4.380 -0.3355  0.5424 -0.2238
10250SOL    HW131434   0.068   6.795   4.337 -0.0870  1.0918 -1.1189
10250SOL    HW231435   0.120   6.848   4.470 -0.9033 -0.4462 -0.1615
10251SOL     OW31436   6.036   2.626   4.599 -0.5223  0.3353 -0.1189
10251SOL    HW131437   5.976   2.574   4.651 -1.6568  2.5964  0.9315
10251SOL    HW231438   5.981   2.686   4.550  0.8295  2.3173  0.6776
10252SOL     OW31439   3.610   4.165   2.079  0.3222  0.4649  0.4402
10252SOL    HW131440   3.616   4.069   2.084 -1.3623  0.2709 -0.3968
10252SOL    HW231441   3.638   4.196   2.165 -1.0778 -0.9075  1.4353
10253SOL     OW31442   2.115   4.598   1.744  0.3093  0.1038  0.1566
10253SOL    HW131443   2.089   4.683   1.711  1.5809 -0.2031 -1.7784
10253SOL    HW231444   2.085   4.597   1.835 -0.5833  2.2090 -0.0728
10254SOL     OW31445   3.303   4.390   0.923  0.4730 -0.1236 -0.1076
10254SOL    HW131446   3.229   4.336   0.893  0.3349 -0.3520  0.6244
10254SOL    HW231447   3.378   4.332   0.920  1.1624  0.7488 -3.1866
10255SOL     OW31448   3.213   0.432   0.350  0.1562  0.2425 -0.1533
10255SOL    HW131449   3.160   0.477   0.285 -0.3449  1.3819  0.9969
10255SOL    HW231450   3.150   0.400   0.414  0.7500  0.6221  0.6467
10256SOL     OW31451   2.961   1.618   2.337 -0.0300  0.6169 -0.4653
10256SOL    HW131452   3.049   1.590   2.313  0.0476  1.0619 -0.6991
10256SOL    HW231453   2.972   1.704   2.377 -0.3386  0.5971 -0.3299
10257SOL     OW31454   0.383   5.820   6.369  0.1852  0.1502  0.0821
10257SOL    HW131455   0.396   5.883   6.298  0.4101  0.0535  0.0372
10257SOL    HW231456   0.445   5.750   6.351 -0.6617 -0.5163 -0.3681
10258SOL     OW31457   0.245   0.044   0.259 -0.1484  0.5464  0.2113
10258SOL    HW131458   0.214   0.114   0.316  0.7241 -0.1937  1.6482
10258SOL    HW231459   0.269   0.089   0.178 -2.9511  1.4031 -0.2467
10259SOL     OW31460   4.264   1.997   1.823 -0.1082 -0.2730 -0.7882
10259SOL    HW131461   4.236   1.917   1.778  1.6909 -1.0614 -0.6043
10259SOL    HW231462   4.267   2.063   1.754 -1.3551 -0.4131 -0.9967
10260SOL     OW31463   1.389   3.916   2.651  0.0899 -0.5016 -0.3709
10260SOL    HW131464   1.392   3.972   2.728 -1.3246  0.3620 -0.8836
10260SOL    HW231465   1.369   3.976   2.579  1.7506 -1.2276 -1.4906
10261SOL     OW31466   5.408   5.811   4.482 -0.0009  0.0994  0.3841
10261SOL    HW131467   5.362   5.779   4.405 -1.2502 -0.3733  1.2959
10261SOL    HW231468   5.388   5.746   4.551 -0.7230  1.6275  1.6736
10262SOL     OW31469   5.432   6.861   4.697  0.4444  0.1076  0.1220
10262SOL    HW131470   5.468   6.773   4.689  0.0041 -0.0446 -0.1970
10262SOL    HW231471   5.482   6.913   4.633 -1.9680 -0.7651 -2.7095
10263SOL     OW31472   6.106   3.583   6.258 -0.0274  0.1386 -0.0015
10263SOL    HW131473   6.123   3.506   6.312  2.0902  0.1280 -0.6040
10263SOL    HW231474   6.105   3.656   6.320  0.9817 -0.0406  0.2374
10264SOL     OW31475   2.538   4.504   4.510 -0.0660 -0.2979 -0.1319
10264SOL    HW131476   2.598   4.429   4.518  0.4429 -0.0051 -1.0287
10264SOL    HW231477   2.451   4.467   4.525  0.3142 -0.7426  1.1376
10265SOL     OW31478   0.544   3.785   0.393  0.4615  0.3785 -0.6577
10265SOL    HW131479   0.505   3.704   0.425  2.4065  0.0920  1.2389
10265SOL    HW231480   0.525   3.849   0.462  0.8689  0.9557 -1.0728
10266SOL     OW31481   5.661   2.975   6.144 -0.0288 -0.8668  0.0639
10266SOL    HW131482   5.592   2.931   6.195 -1.7521  0.9109 -0.6054
10266SOL    HW231483   5.694   2.907   6.085 -4.7156 -0.8262 -3.1253
10267SOL     OW31484   3.890   0.907   1.050 -1.1294  0.3086  0.4704
10267SOL    HW131485   3.968   0.876   1.005 -2.3140  0.8662 -2.2256
10267SOL    HW231486   3.840   0.828   1.070 -1.4672  0.0865 -1.0870
10268SOL     OW31487   0.169   5.704   0.237  0.0895 -0.3977  0.1668
10268SOL    HW131488   0.187   5.640   0.306 -1.1048  0.5885  1.4723
10268SOL    HW231489   0.172   5.654   0.156 -2.0963 -2.4347  1.2090
10269SOL     OW31490   1.720   4.762   2.179  0.3498 -0.0018 -0.2154
10269SOL    HW131491   1.678   4.805   2.105 -0.0571  1.9417  1.0720
10269SOL    HW231492   1.809   4.797   2.179  0.2258  0.3257  0.4390
10270SOL     OW31493   0.729   1.435   3.864 -0.2744 -0.0008  0.7050
10270SOL    HW131494   0.799   1.402   3.920 -0.6540 -0.7536  0.7419
10270SOL    HW231495   0.771   1.501   3.809  0.4496 -0.4013  0.7712
10271SOL     OW31496   1.536   5.930   2.196 -0.2523  0.5332  0.1074
10271SOL    HW131497   1.472   5.930   2.267  0.1531  2.1514  0.5286
10271SOL    HW231498   1.519   6.012   2.149  0.6268  0.3410 -0.5721
10272SOL     OW31499   2.539   5.500   2.171 -0.1434 -0.8174  0.0214
10272SOL    HW131500   2.590   5.490   2.091  0.0931  0.7053 -0.0573
10272SOL    HW231501   2.595   5.554   2.228 -2.1579  2.2774 -0.6547
10273SOL     OW31502   2.334   1.406   0.631  0.0205  1.0930 -0.0165
10273SOL    HW131503   2.258   1.352   0.656  0.3516 -0.0289 -1.3302
10273SOL    HW231504   2.370   1.436   0.715 -0.7231  0.0229  0.7205
10274SOL     OW31505   1.441   3.361   4.259  0.2778  0.3782  0.2085
10274SOL    HW131506   1.388   3.439   4.277 -0.5784  0.5227 -2.5287
10274SOL    HW231507   1.488   3.381   4.178  1.6545 -1.1984  0.5460
10275SOL     OW31508   3.237   3.504   4.046  0.0143  0.1390 -0.5245
10275SOL    HW131509   3.177   3.485   3.973  0.4951 -0.7988 -0.6854
10275SOL    HW231510   3.198   3.580   4.089  0.1255  1.2108 -2.2157
10276SOL     OW31511   1.371   4.169   2.084  0.2774  0.1480 -0.0838
10276SOL    HW131512   1.434   4.170   2.156 -0.5163 -1.6441  0.7019
10276SOL    HW231513   1.405   4.103   2.024 -0.2147  0.0514 -0.2596
10277SOL     OW31514   2.003   1.828   3.950  0.0796 -0.0098  0.0037
10277SOL    HW131515   2.066   1.891   3.986  0.2595 -0.0420 -0.2519
10277SOL    HW231516   2.047   1.792   3.873  0.4294 -1.2536  0.7584
10278SOL     OW31517   6.318   3.552   4.473  0.3491  0.6375 -0.2286
10278SOL    HW131518   6.252   3.517   4.412 -1.1527  0.3432  1.4869
10278SOL    HW231519   6.286   3.639   4.495  1.2893  1.0400 -0.4127
10279SOL     OW31520   2.433   5.188   0.543 -0.5780  0.2505  0.6274
10279SOL    HW131521   2.384   5.266   0.569 -1.5376 -0.1415  0.0301
10279SOL    HW231522   2.388   5.115   0.585 -0.6567 -0.1402 -0.1075
10280SOL     OW31523   5.272   6.392   4.518  0.7131 -0.1460 -0.4738
10280SOL    HW131524   5.289   6.385   4.424 -0.4602  2.0656 -0.9176
10280SOL    HW231525   5.201   6.457   4.525 -0.6749 -1.7427  1.8214
10281SOL     OW31526   0.311   6.373   3.534  0.2462 -0.0354  0.4643
10281SOL    HW131527   0.230   6.330   3.562 -0.1881 -0.2008 -0.9594
10281SOL    HW231528   0.381   6.314   3.563 -0.1761 -0.2296  1.1041
10282SOL     OW31529   3.606   1.990   3.982  0.0207  0.5800  0.1057
10282SOL    HW131530   3.580   2.082   3.989  0.6482  0.6981  0.9569
10282SOL    HW231531   3.605   1.957   4.072 -1.7380 -0.6946 -0.3191
10283SOL     OW31532   0.160   4.780   1.826  0.1606 -0.2451 -0.0935
10283SOL    HW131533   0.156   4.784   1.731 -0.2415 -0.3238 -0.0825
10283SOL    HW231534   0.090   4.838   1.856 -0.7205 -1.3747  0.1345
10284SOL     OW31535   0.570   0.946   2.986 -0.0773 -0.1450 -0.7350
10284SOL    HW131536   0.620   0.940   3.067  0.1218  2.7472 -0.5392
10284SOL    HW231537   0.493   0.996   3.009 -0.4619 -0.0479 -2.1554
10285SOL     OW31538   6.365   4.001   4.009  0.2393 -0.3802 -0.1380
10285SOL    HW131539   6.307   3.925   3.998 -0.0920 -0.1496  0.0001
10285SOL    HW231540   6.444   3.978   3.960 -0.2002 -0.4592 -0.8255
10286SOL     OW31541   2.830   0.257   1.334 -0.3361 -0.2909 -0.6324
10286SOL    HW131542   2.893   0.253   1.262  1.0752  0.2428  0.5219
10286SOL    HW231543   2.871   0.315   1.399 -0.3926 -2.6218  1.6742
10287SOL     OW31544   5.060   6.180   1.368 -0.3027  0.2605  0.2296
10287SOL    HW131545   5.021   6.262   1.338 -0.7538 -0.3626 -0.9245
10287SOL    HW231546   4.986   6.130   1.404 -0.3503 -0.3527 -0.6916
10288SOL     OW31547   2.930   3.149   0.147 -0.1437  0.3391 -0.1588
10288SOL    HW131548   3.001   3.093   0.176 -0.1834  0.0057 -0.6947
10288SOL    HW231549   2.856   3.090   0.135 -0.2588  0.5418 -0.4782
10289SOL     OW31550   5.655   2.244   0.183  0.0453 -0.3219 -0.6150
10289SOL    HW131551   5.719   2.250   0.254 -0.1483 -0.1058 -0.4568
10289SOL    HW231552   5.580   2.199   0.223 -0.2221  0.1652 -0.5695
10290SOL     OW31553   2.628   4.954   4.081  0.0275 -0.3097 -0.1237
10290SOL    HW131554   2.575   4.880   4.051 -1.6404  1.3190 -1.3154
10290SOL    HW231555   2.686   4.973   4.008 -0.5702  0.4970 -0.3883
10291SOL     OW31556   3.072   1.046   3.967 -0.5434  0.4285 -0.0489
10291SOL    HW131557   3.112   1.125   3.931  1.4661 -0.3323  0.3747
10291SOL    HW231558   2.992   1.077   4.009 -1.5295  1.7392 -2.6539
10292SOL     OW31559   3.475   4.578   4.664 -0.5772  0.0322  0.2810
10292SOL    HW131560   3.538   4.649   4.675 -1.2354  0.4913  1.2097
10292SOL    HW231561   3.402   4.601   4.720 -0.4390 -1.8221  1.3177
10293SOL     OW31562   0.987   3.389   6.860 -0.4899 -0.1604 -0.2130
10293SOL    HW131563   0.967   3.412   6.770  0.6241 -0.2296 -0.4998
10293SOL    HW231564   0.999   3.473   6.905 -0.6957 -0.1310 -0.2129
10294SOL     OW31565   4.804   4.097   3.044  0.3919 -0.3003  0.2418
10294SOL    HW131566   4.749   4.175   3.039  1.4825  0.5462  0.9728
10294SOL    HW231567   4.811   4.067   2.953  0.0129  0.4923 -0.0547
10295SOL     OW31568   5.423   5.562   5.052 -0.1729 -0.3848  0.0156
10295SOL    HW131569   5.401   5.649   5.021 -1.9160 -0.9024 -0.2915
10295SOL    HW231570   5.474   5.577   5.132  1.1769  0.9002 -1.0172
10296SOL     OW31571   2.291   5.748   2.227  0.3625  0.2430 -0.3287
10296SOL    HW131572   2.331   5.748   2.314 -1.4190 -0.0863  0.5604
10296SOL    HW231573   2.219   5.811   2.234 -0.7183 -0.8640 -1.0767
10297SOL     OW31574   3.806   6.126   3.845  0.2474 -0.6951 -0.2636
10297SOL    HW131575   3.878   6.088   3.896  0.5153 -0.2561 -0.3053
10297SOL    HW231576   3.850   6.183   3.782 -0.1323 -0.5319 -0.3813
10298SOL     OW31577   4.298   4.339   0.237 -0.4521  0.6250 -0.4823
10298SOL    HW131578   4.250   4.301   0.163 -1.2767  2.6793 -1.0754
10298SOL    HW231579   4.231   4.382   0.290  0.2395 -0.1406  1.0614
10299SOL     OW31580   1.780   6.788   0.405 -0.1562 -0.8826 -0.4613
10299SOL    HW131581   1.828   6.844   0.467 -1.3756  0.6070 -0.8045
10299SOL    HW231582   1.711   6.748   0.458 -0.8807 -0.0105 -0.7235
10300SOL     OW31583   1.756   0.180   1.074 -0.0464  0.9128  0.2669
10300SOL    HW131584   1.833   0.124   1.080  0.8095  1.8412 -1.4035
10300SOL    HW231585   1.782   0.262   1.116 -0.4912  0.8822  0.6164
10301SOL     OW31586   5.283   3.518   1.892 -0.2086  0.0645 -0.1988
10301SOL    HW131587   5.290   3.443   1.833 -0.6600  0.1300 -0.3388
10301SOL    HW231588   5.305   3.594   1.837  0.5431  0.0140  0.0150
10302SOL     OW31589   4.737   2.548   6.398 -0.0915 -0.3829 -0.3130
10302SOL    HW131590   4.793   2.625   6.391  0.0330 -0.5237 -0.8945
10302SOL    HW231591   4.790   2.484   6.445 -0.2997 -0.0223  0.4293
10303SOL     OW31592   4.275   1.893   6.075 -0.6499  0.8870 -0.1165
10303SOL    HW131593   4.358   1.856   6.103 -0.5208  1.0905 -0.2292
10303SOL    HW231594   4.239   1.933   6.154 -0.3617  1.3170 -0.2006
10304SOL     OW31595   2.677   3.256   2.945  0.0537  0.5459  0.3109
10304SOL    HW131596   2.682   3.209   3.028 -0.0672  0.7227  0.4167
10304SOL    HW231597   2.604   3.216   2.899  0.9065 -0.4247 -0.2472
10305SOL     OW31598   0.286   5.557   4.849 -0.7040 -0.8309 -0.1144
10305SOL    HW131599   0.241   5.599   4.776  1.0285 -0.0562 -0.7861
10305SOL    HW231600   0.373   5.598   4.850 -0.0577 -2.1665  1.2121
10306SOL     OW31601   3.643   0.522   3.300  0.0139  0.2320  0.7163
10306SOL    HW131602   3.634   0.482   3.214 -1.7032 -2.5660  2.0234
10306SOL    HW231603   3.703   0.465   3.348 -0.6772  0.5027  1.9748
10307SOL     OW31604   5.257   0.831   3.444 -0.0125  0.2272  0.7314
10307SOL    HW131605   5.198   0.755   3.443  0.6800 -0.3179  0.3113
10307SOL    HW231606   5.202   0.903   3.474 -0.3174 -0.7386  2.7134
10308SOL     OW31607   3.583   2.700   0.238 -0.0761  0.4408  0.3800
10308SOL    HW131608   3.576   2.791   0.209 -1.0184  0.2712  0.0614
10308SOL    HW231609   3.607   2.707   0.330  0.2207  1.0055  0.2697
10309SOL     OW31610   1.042   3.039   3.840 -0.4444 -0.1732 -0.3232
10309SOL    HW131611   1.006   3.096   3.908  1.2474 -1.3646  1.6811
10309SOL    HW231612   1.098   2.977   3.887  1.8887 -0.2443 -2.9301
10310SOL     OW31613   2.078   3.017   4.870 -0.0138  0.4627  0.0897
10310SOL    HW131614   2.163   2.986   4.901 -1.4720 -4.3271  0.0552
10310SOL    HW231615   2.098   3.071   4.793  2.9831 -0.1605  0.3349
10311SOL     OW31616   1.995   1.718   5.026  0.2204 -0.3967 -0.0702
10311SOL    HW131617   2.065   1.719   5.092  0.6816 -1.7209 -0.5088
10311SOL    HW231618   1.915   1.705   5.077  0.2633  1.0328  0.4267
10312SOL     OW31619   2.462   0.349   4.836 -0.0017 -1.0414  0.2882
10312SOL    HW131620   2.440   0.439   4.860  1.4658 -0.6245  0.1396
10312SOL    HW231621   2.385   0.317   4.789  0.6199  1.2436 -2.5490
10313SOL     OW31622   6.415   3.452   1.813 -0.1497  0.4188  0.1816
10313SOL    HW131623   6.348   3.503   1.859  0.5125  1.1778  0.3339
10313SOL    HW231624   6.459   3.516   1.757 -0.5945 -0.3878 -1.1381
10314SOL     OW31625   2.488   6.192   2.370  0.1446  0.6845 -0.0059
10314SOL    HW131626   2.555   6.173   2.305  0.0313  1.5293 -0.3870
10314SOL    HW231627   2.420   6.126   2.355  0.8274 -0.1102  0.3134
10315SOL     OW31628   6.404   6.126   0.156 -0.2626 -0.0703 -0.1410
10315SOL    HW131629   6.353   6.046   0.142  0.4394 -0.5300 -0.1400
10315SOL    HW231630   6.475   6.120   0.092  0.2917  0.1254  0.4492
10316SOL     OW31631   5.468   4.437   5.113  0.1922 -0.4649 -0.2733
10316SOL    HW131632   5.515   4.381   5.052 -2.5545 -2.0667 -1.0730
10316SOL    HW231633   5.426   4.504   5.059 -0.6776 -0.7133  0.0756
10317SOL     OW31634   4.608   2.184   3.640  0.1156  0.0094  0.4764
10317SOL    HW131635   4.537   2.128   3.672 -0.4426  1.4644  1.8523
10317SOL    HW231636   4.593   2.269   3.680  1.6162  0.8679 -0.6537
10318SOL     OW31637   4.196   0.507   5.947 -0.0298  0.5782 -0.5510
10318SOL    HW131638   4.205   0.596   5.981 -0.4965  0.2515  0.4671
10318SOL    HW231639   4.261   0.501   5.877  1.1610  1.1888  0.4620
10319SOL     OW31640   2.129   5.484   1.716 -0.1986  0.3643 -0.0039
10319SOL    HW131641   2.146   5.474   1.622 -0.2730 -0.2023  0.0432
10319SOL    HW231642   2.036   5.462   1.726 -0.0223 -0.2366  0.3066
10320SOL     OW31643   2.974   0.044   0.810 -0.3145  0.4208 -0.2555
10320SOL    HW131644   3.069   0.031   0.815 -0.0220  1.7617 -1.6075
10320SOL    HW231645   2.946   0.048   0.902  0.4688 -2.6599  0.2319
10321SOL     OW31646   4.940   5.859   0.092  0.1663 -0.5338 -0.4199
10321SOL    HW131647   4.859   5.900   0.123  1.4579  1.9110 -0.0089
10321SOL    HW231648   4.958   5.791   0.157 -0.5245  0.2653  0.6566
10322SOL     OW31649   5.930   0.033   5.132  0.0130 -0.3056 -0.0745
10322SOL    HW131650   5.856   0.066   5.081  0.8762 -1.6711 -2.3552
10322SOL    HW231651   6.000   0.095   5.115 -0.1405  0.1396  0.8442
10323SOL     OW31652   6.607   3.640   2.553  0.5612 -0.3979 -0.2828
10323SOL    HW131653   6.559   3.560   2.575 -0.6940  0.3664 -0.1700
10323SOL    HW231654   6.691   3.630   2.599  0.1539 -1.3426  0.2970
10324SOL     OW31655   2.641   0.454   6.305  0.3078  0.6299 -0.5207
10324SOL    HW131656   2.635   0.432   6.213 -0.9184  2.5414 -0.9647
10324SOL    HW231657   2.568   0.407   6.346 -0.1118  1.0154 -0.8178
10325SOL     OW31658   0.255   5.088   3.856  0.1508 -0.2151  0.4081
10325SOL    HW131659   0.182   5.115   3.912 -0.3388  0.3054 -0.4539
10325SOL    HW231660   0.219   5.018   3.802  0.0143  0.5993 -0.5945
10326SOL     OW31661   3.706   4.807   0.176  0.0154  0.4365 -0.3901
10326SOL    HW131662   3.698   4.898   0.204  1.7704  0.8580 -1.1457
10326SOL    HW231663   3.628   4.764   0.212 -0.5049  2.0787  0.5470
10327SOL     OW31664   1.872   0.392   5.167 -0.1218  0.2740 -0.3182
10327SOL    HW131665   1.834   0.433   5.244  0.5098  1.7663 -0.7767
10327SOL    HW231666   1.959   0.361   5.196 -1.0670 -1.9758  0.3710
10328SOL     OW31667   3.733   1.181   0.629 -0.6084  0.4041  0.2507
10328SOL    HW131668   3.745   1.255   0.689  1.0369 -0.4649  1.0465
10328SOL    HW231669   3.810   1.184   0.573 -0.6173 -0.6109  0.1823
10329SOL     OW31670   3.658   5.517   0.009  0.1968  0.7690 -0.0696
10329SOL    HW131671   3.573   5.543  -0.027 -0.0021 -0.2914 -0.4091
10329SOL    HW231672   3.677   5.432  -0.032  1.2617  0.8287  0.2582
10330SOL     OW31673   6.627   0.509   5.822 -0.4375  0.5262 -0.6106
10330SOL    HW131674   6.722   0.508   5.836 -0.3462  0.3007 -1.2330
10330SOL    HW231675   6.597   0.429   5.866 -0.5742  1.4580  1.0853
10331SOL     OW31676   6.667   6.518   1.007  0.8779  0.3377 -0.4665
10331SOL    HW131677   6.671   6.462   0.930  1.4845  0.3448 -0.4401
10331SOL    HW231678   6.665   6.457   1.081 -1.7109  0.2521 -0.5146
10332SOL     OW31679   5.148   0.173   3.081  0.5066  0.1930 -0.8837
10332SOL    HW131680   5.185   0.093   3.045  1.6509 -0.1939  0.9736
10332SOL    HW231681   5.222   0.233   3.086  0.5253  0.0751  1.0983
10333SOL     OW31682   1.620   0.266   4.627 -0.0855 -0.2616  0.5861
10333SOL    HW131683   1.569   0.230   4.554  0.3666  0.0311  0.1234
10333SOL    HW231684   1.561   0.258   4.703 -1.0179  0.5402 -0.0275
10334SOL     OW31685   2.226   1.734   5.222  0.3221 -0.5135  0.4448
10334SOL    HW131686   2.207   1.823   5.253  0.2677 -0.5345  0.4714
10334SOL    HW231687   2.313   1.741   5.184 -0.2090 -0.1552 -0.7496
10335SOL     OW31688   3.569   1.158   1.828 -0.5957  0.0030 -0.7918
10335SOL    HW131689   3.579   1.071   1.866 -0.6410 -0.6550 -2.2433
10335SOL    HW231690   3.659   1.186   1.808 -0.5859  0.2768 -0.3859
10336SOL     OW31691   5.367   4.698   6.156  0.1906  0.1319  0.9629
10336SOL    HW131692   5.337   4.766   6.096  0.1198 -0.4866  0.2932
10336SOL    HW231693   5.387   4.623   6.100  0.1470 -0.4435  1.7045
10337SOL     OW31694   5.241   2.017   5.799 -0.3304  0.0685  0.5277
10337SOL    HW131695   5.233   1.946   5.736  1.5148 -0.8297  1.2595
10337SOL    HW231696   5.153   2.057   5.801 -1.5251 -2.3952  0.3877
10338SOL     OW31697   1.380   4.082   2.432  0.2185  0.0002  0.6097
10338SOL    HW131698   1.452   4.042   2.383 -0.0299 -0.8082  0.8836
10338SOL    HW231699   1.301   4.053   2.386 -0.0577 -1.4089  1.9148
10339SOL     OW31700   3.559   4.422   2.696 -0.4225 -0.0393  0.1921
10339SOL    HW131701   3.625   4.468   2.748 -0.8869  1.5651 -0.5516
10339SOL    HW231702   3.499   4.385   2.760  0.2848 -0.0998  0.8332
10340SOL     OW31703   3.239   2.678   0.559  0.6748  0.2463 -0.0305
10340SOL    HW131704   3.258   2.603   0.616 -0.4735 -0.6222 -0.7248
10340SOL    HW231705   3.256   2.755   0.613 -0.8742 -0.5434  1.7011
10341SOL     OW31706   5.490   0.091   1.305  0.1094  0.0181  0.5604
10341SOL    HW131707   5.425   0.031   1.268 -1.7133  1.1557  1.7284
10341SOL    HW231708   5.438   0.155   1.355  1.9011  2.6769 -0.7269
10342SOL     OW31709   6.891   0.361   4.740  0.0044 -0.1573  0.0033
10342SOL    HW131710   6.804   0.397   4.722  0.0780 -0.4078 -0.8732
10342SOL    HW231711   6.939   0.369   4.658  0.5474 -0.7798  0.2419
10343SOL     OW31712   2.572   4.108   3.919  0.3094 -0.0162 -0.9586
10343SOL    HW131713   2.616   4.176   3.971  0.3037 -0.0633 -0.8920
10343SOL    HW231714   2.623   4.104   3.838 -0.4487  0.9742 -1.5175
10344SOL     OW31715   6.523   5.998   4.429  0.4544 -0.3534 -0.1886
10344SOL    HW131716   6.519   5.910   4.391 -1.1627 -0.4877  0.1894
10344SOL    HW231717   6.440   6.006   4.477  0.8130  1.1827  0.2147
10345SOL     OW31718   6.880   4.121   1.204 -0.4198 -0.1046 -0.0597
10345SOL    HW131719   6.911   4.200   1.249 -0.4823 -0.4115  0.5327
10345SOL    HW231720   6.952   4.059   1.214 -1.1347 -0.7666  1.1818
10346SOL     OW31721   6.218   0.838   1.037 -0.1390  0.0263  0.1092
10346SOL    HW131722   6.145   0.897   1.019  0.2937  0.3416 -0.6713
10346SOL    HW231723   6.295   0.896   1.042  0.2410 -0.4249 -0.3345
10347SOL     OW31724   0.852   5.607   6.730 -0.3773 -0.1917 -0.3175
10347SOL    HW131725   0.860   5.699   6.706 -0.5967  0.2450  1.1489
10347SOL    HW231726   0.760   5.586   6.716 -0.6007  0.1852  0.5127
10348SOL     OW31727   2.755   3.102   1.247  0.6858 -0.0249  0.6495
10348SOL    HW131728   2.715   3.184   1.275  0.0795 -0.5920  1.4863
10348SOL    HW231729   2.813   3.127   1.175  1.7089  1.3509  1.9046
10349SOL     OW31730   0.068   4.965   6.885  0.2221  0.2079  0.0341
10349SOL    HW131731  -0.015   4.941   6.927  0.6210 -1.3842 -0.0470
10349SOL    HW231732   0.111   4.882   6.866  0.1865  0.8134 -3.3442
10350SOL     OW31733   1.094   3.903   6.147 -0.2076 -0.1249  0.0069
10350SOL    HW131734   1.015   3.942   6.110  0.6414  1.4439 -0.2633
10350SOL    HW231735   1.136   3.975   6.194  0.8645 -1.0270  0.4865
10351SOL     OW31736   6.238   4.866   6.788 -0.9849 -0.6350 -0.5314
10351SOL    HW131737   6.282   4.950   6.798 -1.2207 -0.6484  0.8298
10351SOL    HW231738   6.203   4.847   6.875  0.3726 -2.8536 -0.3990
10352SOL     OW31739   3.027   0.001   6.766  0.2526 -0.1022  0.1862
10352SOL    HW131740   3.034  -0.095   6.762 -0.6084 -0.2087  0.8901
10352SOL    HW231741   2.985   0.025   6.683  3.3036  0.0093 -1.4569
10353SOL     OW31742   2.800   6.455   0.913 -0.0438 -0.1495 -0.2979
10353SOL    HW131743   2.783   6.432   1.005  1.5354 -0.2513 -0.0032
10353SOL    HW231744   2.853   6.382   0.880  1.1563  0.8477 -0.6751
10354SOL     OW31745   5.840   6.704   1.071  0.2538  0.2239  0.2354
10354SOL    HW131746   5.760   6.700   1.124  0.2185 -0.1003  0.1646
10354SOL    HW231747   5.858   6.612   1.049  1.1611  0.2110  1.0092
10355SOL     OW31748   1.624   3.760   1.329 -0.3876  0.5550  0.1797
10355SOL    HW131749   1.582   3.827   1.275  0.4598 -0.6404 -2.1310
10355SOL    HW231750   1.552   3.721   1.379 -1.2305  1.6842 -0.1180
10356SOL     OW31751   4.018   2.130   5.117 -0.2467  0.0384 -0.3373
10356SOL    HW131752   4.062   2.048   5.137 -0.1247 -0.1983 -1.5242
10356SOL    HW231753   3.939   2.105   5.069 -1.0233  0.5355  0.6421
10357SOL     OW31754   3.050   2.085   2.720 -0.0840  0.0279  0.1511
10357SOL    HW131755   3.034   1.993   2.739  0.5730 -0.2283 -0.4664
10357SOL    HW231756   2.963   2.125   2.719 -0.5616 -0.9418 -1.2774
10358SOL     OW31757   1.335   1.721   6.365  1.0634 -0.4661 -0.1669
10358SOL    HW131758   1.349   1.806   6.321  1.4991 -0.6364 -0.3612
10358SOL    HW231759   1.358   1.737   6.456 -1.6612  0.4055  0.4624
10359SOL     OW31760   2.959   2.787   0.693  0.0047  0.2947  0.1725
10359SOL    HW131761   2.918   2.700   0.693  1.2318 -0.3075 -0.6945
10359SOL    HW231762   3.041   2.774   0.740 -0.9899  1.6415  2.4989
10360SOL     OW31763   4.296   1.995   2.531  0.3039  1.2979  0.2963
10360SOL    HW131764   4.270   2.087   2.533 -0.6633  1.0409  1.8785
10360SOL    HW231765   4.379   1.993   2.578  0.6178  1.4348 -0.2482
10361SOL     OW31766   2.366   5.992   1.723 -0.1915 -0.3984 -0.1852
10361SOL    HW131767   2.359   5.911   1.773 -0.8884 -0.0717  0.2537
10361SOL    HW231768   2.280   6.005   1.684 -0.0685  0.0961 -0.3082
10362SOL     OW31769   2.323   5.292   6.268  0.0953 -0.8853  0.1872
10362SOL    HW131770   2.299   5.384   6.267 -1.2589 -1.2148  0.4021
10362SOL    HW231771   2.365   5.279   6.353  2.4927  0.0158 -0.7640
10363SOL     OW31772   3.789   3.119   0.126  0.2125 -0.1539 -0.0359
10363SOL    HW131773   3.770   3.195   0.181 -1.9530 -0.8078  0.1861
10363SOL    HW231774   3.861   3.074   0.170 -1.1664 -0.4141  2.0762
10364SOL     OW31775   3.092   2.137   3.535  0.2060 -0.1038  0.4247
10364SOL    HW131776   3.106   2.170   3.446 -0.2753  0.6081  0.6032
10364SOL    HW231777   3.138   2.199   3.591  1.3149 -1.0816  0.6222
10365SOL     OW31778   4.576   2.243   3.293 -0.4329  0.0762  0.0991
10365SOL    HW131779   4.528   2.174   3.339  0.8727 -0.4138  0.7629
10365SOL    HW231780   4.615   2.296   3.363  1.6429 -0.7201 -0.3943
10366SOL     OW31781   6.760   5.357   0.199  0.1934  0.6690  0.5710
10366SOL    HW131782   6.687   5.389   0.147 -1.7855 -2.6115  1.0211
10366SOL    HW231783   6.823   5.324   0.135  0.5367  1.9758  0.2120
10367SOL     OW31784   5.693   5.636   4.023  0.3501 -0.5631  0.5607
10367SOL    HW131785   5.756   5.686   4.074  1.1137 -1.7647  0.8510
10367SOL    HW231786   5.618   5.624   4.081  0.2143  0.1335  0.5282
10368SOL     OW31787   5.202   5.078   5.790  0.0592 -0.2580  0.1931
10368SOL    HW131788   5.107   5.081   5.800  0.1738  1.0890  1.1417
10368SOL    HW231789   5.227   5.167   5.766  0.9840 -0.8776 -1.3117
10369SOL     OW31790   0.943   1.403   3.288  0.0267 -0.4780  0.0421
10369SOL    HW131791   1.028   1.368   3.315  0.1083 -1.5864 -1.5169
10369SOL    HW231792   0.965   1.484   3.241  0.0732  0.0677  0.9709
10370SOL     OW31793   3.630   0.067   0.655  0.4532 -0.0819 -0.2537
10370SOL    HW131794   3.668   0.054   0.742 -1.3847  0.3756  0.6712
10370SOL    HW231795   3.659  -0.009   0.605  1.6097 -0.3191  0.7217
10371SOL     OW31796   3.949   3.841   2.233  0.2615  0.4206 -0.3815
10371SOL    HW131797   3.960   3.763   2.179 -1.1740  0.1349 -0.2960
10371SOL    HW231798   3.991   3.819   2.317 -1.1069 -0.7091  0.0370
10372SOL     OW31799   1.838   0.188   3.011  0.6757 -0.8217 -0.1391
10372SOL    HW131800   1.871   0.276   3.030  0.4927 -0.2538 -2.2380
10372SOL    HW231801   1.791   0.163   3.091 -1.3408  1.9783 -0.2656
10373SOL     OW31802   4.729   1.549   3.456  0.2795  0.0095  0.4034
10373SOL    HW131803   4.743   1.572   3.365 -0.4805 -1.2652 -0.0673
10373SOL    HW231804   4.755   1.626   3.505  0.8051  0.6747 -0.8841
10374SOL     OW31805   3.191   2.296   5.068  0.3550  0.4162  0.4697
10374SOL    HW131806   3.138   2.359   5.019  0.5954  1.9202  2.0474
10374SOL    HW231807   3.132   2.224   5.087  0.3787 -0.4726 -2.3860
10375SOL     OW31808   2.136   4.158   5.471 -0.1641 -0.0231 -0.2094
10375SOL    HW131809   2.148   4.070   5.508 -0.8291 -0.2275 -0.4690
10375SOL    HW231810   2.225   4.186   5.448  0.1663 -0.2225  0.7839
10376SOL     OW31811   3.201   3.342   5.972 -0.4109 -0.2218 -0.3803
10376SOL    HW131812   3.226   3.347   5.880  0.4447  3.0116 -0.0737
10376SOL    HW231813   3.275   3.299   6.014  1.4494  2.5314 -0.5993
10377SOL     OW31814   6.670   2.211   2.190  0.7369  0.7674  0.3238
10377SOL    HW131815   6.640   2.277   2.127  0.7216 -0.7222 -1.3104
10377SOL    HW231816   6.603   2.143   2.186  1.5456 -0.0630  0.8073
10378SOL     OW31817   1.768   1.250   1.367  0.5878  0.4128  0.3977
10378SOL    HW131818   1.700   1.310   1.397  0.5181 -0.4303  2.0661
10378SOL    HW231819   1.849   1.301   1.369  0.1026  1.2829 -1.1348
10379SOL     OW31820   0.451   2.177   0.940  0.0501  0.3751 -0.2551
10379SOL    HW131821   0.541   2.161   0.912 -0.2632  1.1154 -1.7600
10379SOL    HW231822   0.433   2.267   0.915 -0.9919  0.3660  0.3868
10380SOL     OW31823   5.929   1.236   5.735  0.4380 -0.1887 -0.7496
10380SOL    HW131824   6.016   1.240   5.775  0.1986  0.8405 -0.2843
10380SOL    HW231825   5.938   1.175   5.662  1.4461 -0.3885 -0.4721
10381SOL     OW31826   3.179   2.798   0.854  0.0438 -0.5022 -0.0856
10381SOL    HW131827   3.237   2.725   0.875 -1.6348 -1.3684  1.8110
10381SOL    HW231828   3.163   2.841   0.938 -1.1468  0.4080 -0.7451
10382SOL     OW31829   1.417   6.622   6.717  0.4820  0.3409  0.4484
10382SOL    HW131830   1.446   6.667   6.637  0.1545 -1.5953 -0.8532
10382SOL    HW231831   1.497   6.580   6.750  0.2944 -0.2797  0.1301
10383SOL     OW31832   3.362   6.788   0.990 -0.2186  0.3903  0.3188
10383SOL    HW131833   3.301   6.824   1.054 -2.4529 -2.0351 -0.2853
10383SOL    HW231834   3.332   6.824   0.906  1.2983  1.7537  0.2991
10384SOL     OW31835   5.670   6.689   1.546  0.4155  0.4427  0.4071
10384SOL    HW131836   5.635   6.698   1.457  0.9809  0.2628  0.1602
10384SOL    HW231837   5.596   6.659   1.598  0.3529 -0.5465 -0.2260
10385SOL     OW31838   1.329   3.401   5.266  0.5628  0.4025  0.0523
10385SOL    HW131839   1.301   3.337   5.331  1.5742  2.6267  2.8711
10385SOL    HW231840   1.251   3.414   5.211 -1.0850 -0.0541  2.1214
10386SOL     OW31841   2.051   5.354   2.726  1.1090 -0.4230 -0.3946
10386SOL    HW131842   2.117   5.326   2.790 -0.6011 -2.2949  0.6624
10386SOL    HW231843   2.009   5.273   2.698  0.3009  0.5849 -2.2614
10387SOL     OW31844   5.240   3.614   6.882  0.5239 -0.3133  0.1140
10387SOL    HW131845   5.188   3.626   6.961 -1.9322  2.0618 -1.6353
10387SOL    HW231846   5.298   3.690   6.880 -1.0714  0.9550 -1.3791
10388SOL     OW31847   6.550   2.947   3.576  0.4336 -0.7550  0.1699
10388SOL    HW131848   6.634   2.902   3.569  0.2391 -1.0881 -0.0132
10388SOL    HW231849   6.514   2.918   3.660  0.6490 -0.3527  0.4077
10389SOL     OW31850   5.976   3.351   3.829  0.6840  0.3915  0.4696
10389SOL    HW131851   6.068   3.368   3.846  0.9101 -1.2347  0.9825
10389SOL    HW231852   5.967   3.357   3.734  1.7028 -1.1268  0.2495
10390SOL     OW31853   6.746   1.582   0.300  0.4356 -0.0972 -0.0460
10390SOL    HW131854   6.686   1.633   0.247 -0.9520 -2.0809 -0.5076
10390SOL    HW231855   6.783   1.644   0.363  1.5653  2.1841 -2.7614
10391SOL     OW31856   6.418   3.742   5.027  0.1000 -0.0303 -0.2753
10391SOL    HW131857   6.471   3.716   5.102 -0.1426  0.5702  0.1094
10391SOL    HW231858   6.427   3.669   4.965  0.5941 -0.3644  0.1805
10392SOL     OW31859   4.629   0.370   6.081 -0.4746  0.5552  0.0525
10392SOL    HW131860   4.601   0.461   6.069 -0.8581  0.4903  0.4250
10392SOL    HW231861   4.624   0.355   6.176 -4.0299 -0.9545 -0.2048
10393SOL     OW31862   6.034   2.359   4.420  0.4150 -0.1307  0.2284
10393SOL    HW131863   5.951   2.396   4.389  0.9162  0.9395  0.1289
10393SOL    HW231864   6.078   2.431   4.464  1.7680 -0.3797 -0.6557
10394SOL     OW31865   4.538   0.597   5.442 -0.4567 -0.2744 -0.0341
10394SOL    HW131866   4.529   0.642   5.358  1.1105  0.3133  0.0781
10394SOL    HW231867   4.542   0.504   5.419 -1.9647 -0.2640 -0.4214
10395SOL     OW31868   4.548   5.665   6.522  0.3963  0.0310  0.0334
10395SOL    HW131869   4.578   5.584   6.481  2.1855  0.3542  0.6229
10395SOL    HW231870   4.624   5.723   6.521 -0.7199  1.5889 -0.0018
10396SOL     OW31871   5.897   2.531   0.372  0.1562  0.3873 -0.2785
10396SOL    HW131872   5.987   2.510   0.346  0.8365  2.7467 -0.0851
10396SOL    HW231873   5.877   2.612   0.324 -1.4996  0.4226  0.4313
10397SOL     OW31874   4.415   2.191   1.255  0.1802 -0.3139  0.4846
10397SOL    HW131875   4.459   2.242   1.323 -0.7861  1.2114  0.0266
10397SOL    HW231876   4.323   2.192   1.281 -0.0246 -0.7405 -0.2167
10398SOL     OW31877   6.430   1.341   5.552 -0.8057 -0.6315  0.1107
10398SOL    HW131878   6.404   1.406   5.488 -0.4497  0.1641  0.7476
10398SOL    HW231879   6.398   1.257   5.517 -2.1127 -0.0010 -0.2606
10399SOL     OW31880   1.387   4.669   0.305  0.6922  0.1441  0.1325
10399SOL    HW131881   1.321   4.600   0.314  0.2124  0.3802 -1.2659
10399SOL    HW231882   1.339   4.749   0.327  0.4428  0.3294 -0.9966
10400SOL     OW31883   3.046   5.287   0.355 -0.2798  0.6930  0.2899
10400SOL    HW131884   3.076   5.282   0.264 -1.2114  1.3319 -0.0775
10400SOL    HW231885   3.109   5.345   0.398  0.5251 -0.1196  0.2155
10401SOL     OW31886   0.350   4.638   2.561  0.0724  0.0169  0.6808
10401SOL    HW131887   0.362   4.605   2.472  0.1181  1.0837  0.2894
10401SOL    HW231888   0.256   4.656   2.569 -0.4028 -2.3955  1.6942
10402SOL     OW31889   1.946   1.922   4.821  0.4766  0.4248  0.5889
10402SOL    HW131890   1.925   1.853   4.885 -0.1958  0.1153  0.0548
10402SOL    HW231891   1.967   1.874   4.740 -0.2726  0.8424  0.1311
10403SOL     OW31892   3.925   0.477   5.427  0.2750 -0.1284 -0.4727
10403SOL    HW131893   3.914   0.382   5.431 -0.3297 -0.0540 -0.3072
10403SOL    HW231894   3.902   0.508   5.514 -1.0390  0.3088 -0.9508
10404SOL     OW31895   3.862   6.125   1.424 -0.3492  0.3232 -0.1054
10404SOL    HW131896   3.811   6.060   1.473  0.7829  0.6167  1.5901
10404SOL    HW231897   3.946   6.081   1.408 -0.1577  0.7965 -0.4092
10405SOL     OW31898   0.657   4.439   1.924  0.1784 -0.0538  0.4372
10405SOL    HW131899   0.730   4.501   1.933 -0.4406  0.4772  2.2185
10405SOL    HW231900   0.599   4.481   1.860  0.5891  0.3797  0.3382
10406SOL     OW31901   5.265   4.303   0.853 -0.0423 -0.4040 -0.2240
10406SOL    HW131902   5.271   4.290   0.948  1.5564 -0.6434 -0.3219
10406SOL    HW231903   5.336   4.364   0.833  0.3330 -1.1937 -1.3923
10407SOL     OW31904   3.927   3.677   4.577 -0.1272 -0.3324 -0.0336
10407SOL    HW131905   3.851   3.705   4.627 -0.9873 -1.7924 -0.4747
10407SOL    HW231906   3.911   3.585   4.558  2.1063 -0.9085  0.5160
10408SOL     OW31907   6.281   4.967   2.707 -0.0781  0.3313 -0.0801
10408SOL    HW131908   6.337   4.891   2.695 -0.0121 -0.7588  4.8545
10408SOL    HW231909   6.192   4.933   2.701 -0.0506 -0.3789  2.4192
10409SOL     OW31910   5.195   4.550   1.510  0.1863  0.0408 -0.2423
10409SOL    HW131911   5.238   4.627   1.548  0.3736 -1.1893  2.2548
10409SOL    HW231912   5.262   4.482   1.513 -0.0751 -0.3573 -2.1377
10410SOL     OW31913   2.646   1.243   4.769  0.4832 -0.2288 -1.0873
10410SOL    HW131914   2.625   1.190   4.691 -0.0385 -0.2038 -0.9633
10410SOL    HW231915   2.579   1.311   4.771  0.1767 -0.5388 -0.3223
10411SOL     OW31916   1.564   1.927   4.631 -0.1864  0.8179 -0.0192
10411SOL    HW131917   1.551   1.878   4.713 -0.4001  1.1128  0.1259
10411SOL    HW231918   1.604   1.864   4.572 -1.3897  0.1545 -0.1555
10412SOL     OW31919   2.585   0.957   3.103  0.4162 -0.8245  0.0614
10412SOL    HW131920   2.654   0.935   3.040  0.3186 -1.0362  0.0269
10412SOL    HW231921   2.516   0.894   3.085 -0.2999  0.1593 -0.7359
10413SOL     OW31922   2.982   2.174   6.590 -0.4511 -0.4826  0.8476
10413SOL    HW131923   3.029   2.090   6.593  0.4169 -0.1467 -1.4274
10413SOL    HW231924   3.020   2.225   6.662  2.6276 -0.3224 -0.7058
10414SOL     OW31925   0.114   4.834   3.771 -0.2348  0.0168  0.3299
10414SOL    HW131926   0.209   4.839   3.758 -0.3815  0.6820 -0.6245
10414SOL    HW231927   0.085   4.765   3.711 -0.4433  0.4000 -0.0219
10415SOL     OW31928   0.422   2.537   5.243  0.6762  0.2430 -0.1294
10415SOL    HW131929   0.505   2.494   5.220  0.0967 -0.9660 -0.0414
10415SOL    HW231930   0.356   2.490   5.193  0.0379  1.2399 -0.2391
10416SOL     OW31931   6.636   4.790   1.425  0.6789  0.0044  0.4518
10416SOL    HW131932   6.563   4.838   1.384  0.1822 -1.5275 -0.5634
10416SOL    HW231933   6.714   4.834   1.392  0.2432  1.3536  1.1436
10417SOL     OW31934   5.667   6.130   5.126  0.0289  0.2615  0.6450
10417SOL    HW131935   5.666   6.167   5.214 -2.9275  1.2659  0.3101
10417SOL    HW231936   5.662   6.036   5.140  2.5161  0.2043  1.5050
10418SOL     OW31937   6.019   0.921   3.113  0.3260 -0.5922 -0.5290
10418SOL    HW131938   5.998   0.962   3.197  1.7731 -1.5324  0.3347
10418SOL    HW231939   6.006   0.990   3.048  0.9113  0.6776  0.6620
10419SOL     OW31940   4.211   2.967   2.404  0.3273 -0.1417 -0.0581
10419SOL    HW131941   4.171   2.880   2.403 -0.6959  0.3128 -0.1972
10419SOL    HW231942   4.297   2.955   2.366  0.2666 -1.1320  0.1006
10420SOL     OW31943   5.458   6.639   5.476  0.0843  0.4862  0.4543
10420SOL    HW131944   5.419   6.724   5.494  4.7552  2.7171  1.5226
10420SOL    HW231945   5.507   6.618   5.555  1.0446 -2.0064 -0.6916
10421SOL     OW31946   6.873   3.700   3.966 -0.0317  0.2160  0.3896
10421SOL    HW131947   6.842   3.746   3.888  1.1015  2.1909  1.0372
10421SOL    HW231948   6.819   3.735   4.037  1.5423  1.4078  1.0528
10422SOL     OW31949   1.107   6.164   1.915  0.7004  0.6230 -0.1919
10422SOL    HW131950   1.142   6.253   1.919 -0.9619  1.4989 -2.7526
10422SOL    HW231951   1.066   6.158   1.829 -1.1079 -1.9337  0.7255
10423SOL     OW31952   5.577   6.417   1.324 -0.4758 -0.1915 -0.0535
10423SOL    HW131953   5.549   6.354   1.390 -0.2464  0.2213  0.4450
10423SOL    HW231954   5.661   6.384   1.293 -0.2564 -0.0272  0.3572
10424SOL     OW31955   4.903   1.770   5.121 -0.0805  0.1835 -0.1096
10424SOL    HW131956   4.820   1.804   5.086 -1.0944 -0.0331  1.9567
10424SOL    HW231957   4.887   1.677   5.134  0.0273  0.3712  1.4882
10425SOL     OW31958   6.371   2.335   4.462 -0.6675  0.6048 -0.1095
10425SOL    HW131959   6.411   2.405   4.412  0.8934  1.0585  1.6697
10425SOL    HW231960   6.384   2.360   4.554 -0.3794 -1.8011  0.5837
10426SOL     OW31961   4.162   2.564   5.000  0.3945 -0.3701 -0.5190
10426SOL    HW131962   4.102   2.490   4.993  0.5761 -0.4883 -0.8670
10426SOL    HW231963   4.127   2.617   5.071  0.3662 -0.8862 -0.1469
10427SOL     OW31964   5.781   3.301   6.614  0.1781  0.0972 -0.3095
10427SOL    HW131965   5.727   3.306   6.692  0.8764  0.0397  0.1896
10427SOL    HW231966   5.809   3.391   6.598  0.9402 -0.0490  0.1657
10428SOL     OW31967   3.389   2.117   5.075 -0.1422 -0.3699 -0.5927
10428SOL    HW131968   3.327   2.051   5.045 -0.4668 -0.3637  0.0568
10428SOL    HW231969   3.337   2.197   5.086 -0.2493 -0.6243  0.9511
10429SOL     OW31970   6.477   6.770   0.598 -0.5684 -0.2829 -0.8934
10429SOL    HW131971   6.563   6.812   0.594 -1.7951  2.3510 -1.6403
10429SOL    HW231972   6.470   6.738   0.688  0.8752  0.1718 -0.6038
10430SOL     OW31973   1.518   2.240   2.176 -0.7175  0.3661 -0.5947
10430SOL    HW131974   1.487   2.312   2.121 -1.9722  0.6272  0.4186
10430SOL    HW231975   1.560   2.179   2.115 -1.5486  0.9265 -1.7499
10431SOL     OW31976   3.350   5.265   0.987  0.2134 -0.3920  0.7463
10431SOL    HW131977   3.270   5.227   1.023 -0.8081  0.3619 -0.6335
10431SOL    HW231978   3.421   5.224   1.038 -1.0409 -0.7228  2.3158
10432SOL     OW31979   1.448   5.350   3.689  0.0584  0.2897 -0.0639
10432SOL    HW131980   1.430   5.345   3.782  0.2426  0.6348 -0.0081
10432SOL    HW231981   1.539   5.381   3.684  0.6114 -1.2770 -0.3300
10433SOL     OW31982   4.759   2.620   6.772  0.1287  0.4504 -0.0826
10433SOL    HW131983   4.696   2.552   6.795  1.2745 -0.0710  1.7287
10433SOL    HW231984   4.720   2.701   6.805  0.4779  0.0906  1.2836
10434SOL     OW31985   4.206   6.684   0.989  0.1010 -0.2283 -0.0281
10434SOL    HW131986   4.221   6.644   1.074 -1.6377 -0.4487  0.2105
10434SOL    HW231987   4.201   6.778   1.007  3.0399  0.1081 -0.4258
10435SOL     OW31988   5.423   3.076   3.487  0.7434  0.4231 -0.4705
10435SOL    HW131989   5.484   3.105   3.554  1.2690 -0.4004 -0.5812
10435SOL    HW231990   5.471   3.010   3.438 -0.5388 -0.9581  0.0509
10436SOL     OW31991   0.946   6.526   3.807 -0.3167 -0.7613  0.2448
10436SOL    HW131992   0.887   6.600   3.795 -0.6541 -1.2771 -1.5269
10436SOL    HW231993   1.021   6.563   3.853 -0.8191  0.5144  0.0858
10437SOL     OW31994   1.697   3.258   6.881  0.5983 -0.3011 -0.4139
10437SOL    HW131995   1.631   3.269   6.949 -0.0937 -2.6891 -0.5917
10437SOL    HW231996   1.780   3.282   6.924 -0.1463  1.0633  0.3290
10438SOL     OW31997   5.111   5.650   2.778 -0.6316 -0.6991 -0.3399
10438SOL    HW131998   5.094   5.640   2.871  0.0061  0.3324 -0.0881
10438SOL    HW231999   5.028   5.676   2.740 -0.7126 -0.3585  0.0721
10439SOL     OW32000   4.803   6.728   0.464 -0.4462  0.1513 -0.3766
10439SOL    HW132001   4.834   6.763   0.547  0.2120  1.5596 -1.1788
10439SOL    HW232002   4.786   6.805   0.410 -1.5094 -0.7189 -1.3282
10440SOL     OW32003   5.813   5.138   3.275  0.3359 -0.0127  0.1609
10440SOL    HW132004   5.773   5.088   3.346 -0.1363 -0.8210 -0.6433
10440SOL    HW232005   5.895   5.171   3.312 -0.0648 -0.1222  1.1808
10441SOL     OW32006   4.948   3.115   2.326 -0.1640 -0.2437 -0.4639
10441SOL    HW132007   4.865   3.113   2.277  0.1442 -0.3445 -0.9888
10441SOL    HW232008   4.931   3.063   2.405 -0.8072  0.3042 -0.2298
10442SOL     OW32009   6.050   2.893   6.451 -0.3866 -0.4117  0.5074
10442SOL    HW132010   6.066   2.964   6.388  0.5444 -0.3947  0.7543
10442SOL    HW232011   6.008   2.824   6.399 -1.1948  0.2643  0.2392
10443SOL     OW32012   2.460   5.181   5.495  0.4172  0.1734  0.5630
10443SOL    HW132013   2.472   5.276   5.498 -1.3801  0.4352  0.5399
10443SOL    HW232014   2.417   5.165   5.411  1.4474 -0.7921  0.1859
10444SOL     OW32015   5.271   5.040   6.773 -0.3083 -0.0498  0.2725
10444SOL    HW132016   5.245   4.948   6.783 -0.5100 -0.0478 -0.2112
10444SOL    HW232017   5.262   5.057   6.679  0.0711  0.3639  0.3086
10445SOL     OW32018   6.464   4.227   2.512  0.1949 -0.5197 -0.2940
10445SOL    HW132019   6.384   4.177   2.529 -0.3804  0.9647  1.8389
10445SOL    HW232020   6.479   4.275   2.594  3.2700 -0.7310 -0.6406
10446SOL     OW32021   4.019   2.496   1.864  0.0126 -0.0306  0.3016
10446SOL    HW132022   4.087   2.429   1.863  0.5173  0.4307 -2.1985
10446SOL    HW232023   3.980   2.493   1.776 -1.3560  1.5543  0.7981
10447SOL     OW32024   6.750   5.051   4.809  0.0008 -0.2983 -0.0991
10447SOL    HW132025   6.815   4.990   4.775 -0.5001 -0.3858 -0.9410
10447SOL    HW232026   6.676   5.043   4.748 -0.6343  0.0889  0.6077
10448SOL     OW32027   0.936   6.868   0.252  0.6131 -0.3570  0.1479
10448SOL    HW132028   0.912   6.892   0.162 -0.5339 -2.8615 -0.2859
10448SOL    HW232029   1.031   6.858   0.249  0.8700  1.7272 -0.1785
10449SOL     OW32030   0.561   1.174   1.899  0.0622  0.5377  0.1279
10449SOL    HW132031   0.648   1.135   1.891  0.3686  1.3418 -0.4351
10449SOL    HW232032   0.541   1.208   1.812 -0.8260  0.3494  0.2480
10450SOL     OW32033   4.816   4.738   5.033  0.1618  0.2943 -0.2833
10450SOL    HW132034   4.783   4.698   5.113  1.8418  0.6732  0.6396
10450SOL    HW232035   4.741   4.786   4.997 -0.9681 -0.9431  0.3413
10451SOL     OW32036   0.517   4.648   1.718 -0.4347 -0.8031  0.2265
10451SOL    HW132037   0.467   4.689   1.647 -0.7798  0.4021  1.1317
10451SOL    HW232038   0.506   4.554   1.703 -0.8402 -0.5797 -1.0688
10452SOL     OW32039   1.517   6.632   4.201  0.2089 -0.7322  0.2263
10452SOL    HW132040   1.483   6.619   4.289 -0.5430 -4.7594 -0.4564
10452SOL    HW232041   1.554   6.547   4.177 -0.5901 -0.1492 -3.7291
10453SOL     OW32042   6.509   0.191   3.897 -0.4166  0.3092  0.1272
10453SOL    HW132043   6.555   0.161   3.819  0.2282  1.0714  0.2076
10453SOL    HW232044   6.486   0.110   3.943  0.6031 -0.1046 -0.0541
10454SOL     OW32045   2.838   6.657   6.418  0.1804  0.6675  0.2476
10454SOL    HW132046   2.760   6.712   6.413 -1.2031 -1.2515 -0.8685
10454SOL    HW232047   2.829   6.610   6.501  0.4807  0.8826  0.4040
10455SOL     OW32048   6.670   4.314   5.984 -0.2406 -0.3638  0.2583
10455SOL    HW132049   6.738   4.247   5.971  2.7000  2.2225  1.2561
10455SOL    HW232050   6.642   4.336   5.895 -0.0526 -1.6895 -0.1649
10456SOL     OW32051   3.132   0.084   5.249 -0.4910  0.8444 -0.0562
10456SOL    HW132052   3.119   0.098   5.155  1.2570  0.7121 -0.3530
10456SOL    HW232053   3.126  -0.011   5.261 -0.4709  0.8408 -0.0746
10457SOL     OW32054   5.008   3.847   6.840 -0.2058 -0.0542 -0.2299
10457SOL    HW132055   5.093   3.845   6.883 -0.3293  1.5973  0.1581
10457SOL    HW232056   5.019   3.909   6.767 -1.3724  1.1929  0.5890
10458SOL     OW32057   3.889   1.494   5.307  0.2173  0.1207 -0.3044
10458SOL    HW132058   3.840   1.413   5.292 -0.0500  0.5807 -2.1000
10458SOL    HW232059   3.845   1.559   5.253  1.2105  1.1668  0.1070
10459SOL     OW32060   2.453   6.411   1.953 -0.1848 -0.2597  0.1919
10459SOL    HW132061   2.433   6.337   1.895 -0.4202  2.1047 -3.0939
10459SOL    HW232062   2.502   6.472   1.897 -0.8680  2.5045  2.3815
10460SOL     OW32063   0.309   0.326   3.328  0.1803 -0.5167 -0.0713
10460SOL    HW132064   0.315   0.347   3.421 -2.7849  2.9645 -0.4470
10460SOL    HW232065   0.226   0.280   3.319  0.1663 -0.3276 -1.0305
10461SOL     OW32066   4.214   5.629   3.558 -0.1428  0.3332 -0.1122
10461SOL    HW132067   4.266   5.667   3.628 -0.6902 -0.6338  0.8437
10461SOL    HW232068   4.130   5.675   3.562 -1.2054 -1.5959  1.7539
10462SOL     OW32069   5.411   3.984   6.296 -0.6191  0.5995  0.2059
10462SOL    HW132070   5.471   3.995   6.369 -0.5232  1.3091  0.0298
10462SOL    HW232071   5.441   3.905   6.251  1.0607  1.7085 -0.6972
10463SOL     OW32072   3.061   2.612   6.511 -0.7623 -0.3889 -0.1179
10463SOL    HW132073   3.047   2.607   6.605 -0.4895 -0.5070 -0.0841
10463SOL    HW232074   3.151   2.644   6.501  0.0669 -2.5983 -0.3299
10464SOL     OW32075   2.899   1.098   0.049 -0.3797 -0.2387 -0.0713
10464SOL    HW132076   2.958   1.122   0.121  0.5607  0.6059 -1.0762
10464SOL    HW232077   2.813   1.129   0.077 -0.1580 -0.5766  0.9993
10465SOL     OW32078   5.365   6.053   6.509  0.3141 -0.3061 -0.8493
10465SOL    HW132079   5.294   6.065   6.446 -0.4490  0.1631  0.0787
10465SOL    HW232080   5.388   6.141   6.537 -0.5883 -0.5626  0.8409
10466SOL     OW32081   1.541   6.423   4.912  0.0311  0.4955 -0.2092
10466SOL    HW132082   1.522   6.352   4.973 -0.9608 -1.7171 -2.8369
10466SOL    HW232083   1.531   6.503   4.963 -1.6330 -1.1436  2.2421
10467SOL     OW32084   2.565   1.183   4.084 -0.0286 -0.1897  0.1373
10467SOL    HW132085   2.520   1.110   4.125  1.7198 -0.8459  0.9985
10467SOL    HW232086   2.499   1.253   4.081 -1.3903 -1.4161  0.3497
10468SOL     OW32087   6.528   2.528   4.045  0.1549 -0.6866  0.0114
10468SOL    HW132088   6.611   2.507   4.088 -0.4258 -2.0752  0.5164
10468SOL    HW232089   6.552   2.546   3.954  1.1106 -0.1649  0.3508
10469SOL     OW32090   0.772   6.117   4.056  0.1255  0.5821  0.1947
10469SOL    HW132091   0.769   6.082   4.145  0.3669  0.8654  0.3168
10469SOL    HW232092   0.778   6.212   4.067  0.6101  0.5947 -0.1118
10470SOL     OW32093   5.576   2.212   5.001 -0.0334 -0.2659  0.1331
10470SOL    HW132094   5.591   2.145   4.934 -0.7769 -0.3090  0.0012
10470SOL    HW232095   5.492   2.187   5.041  0.1216  0.0897  0.6841
10471SOL     OW32096   2.466   6.435   0.974 -0.5536 -0.0796  0.2395
10471SOL    HW132097   2.460   6.444   1.070 -0.6470 -0.5676  0.2784
10471SOL    HW232098   2.495   6.522   0.945 -0.7530  0.1457  0.6880
10472SOL     OW32099   1.687   5.909   6.200  0.2852  0.4494 -0.2161
10472SOL    HW132100   1.633   5.844   6.246 -0.5442  1.3080  0.0510
10472SOL    HW232101   1.677   5.989   6.250  0.0051  1.2077 -1.4389
10473SOL     OW32102   0.462   6.447   4.828 -0.0604 -0.4099  0.2532
10473SOL    HW132103   0.456   6.495   4.745 -0.4970  1.1696  1.1562
10473SOL    HW232104   0.371   6.429   4.851 -0.3860  2.9839  2.4380
10474SOL     OW32105   5.880   3.933   3.463 -0.1144 -0.0156 -0.2421
10474SOL    HW132106   5.825   3.924   3.385  1.2757  0.2312 -1.2708
10474SOL    HW232107   5.948   3.995   3.439 -0.2105  0.8354  1.5093
10475SOL     OW32108   6.364   5.921   2.028  0.8487  0.0236  0.1615
10475SOL    HW132109   6.335   5.999   1.982 -0.4360 -0.2969  0.3861
10475SOL    HW232110   6.331   5.848   1.975 -0.2130 -0.3460  1.2708
10476SOL     OW32111   0.717   2.832   0.974  0.4120  0.7175  0.0484
10476SOL    HW132112   0.764   2.875   1.045  1.6008  0.4840 -0.5773
10476SOL    HW232113   0.717   2.895   0.903  0.3306  0.4705 -0.1726
10477SOL     OW32114   4.385   0.248   5.758  0.2202  0.8015  0.1007
10477SOL    HW132115   4.394   0.343   5.752 -2.4690  1.3875  3.1966
10477SOL    HW232116   4.458   0.220   5.813  2.2932  0.6245 -2.5291
10478SOL     OW32117   1.828   4.688   6.669  0.2080  0.1492  0.2603
10478SOL    HW132118   1.823   4.598   6.636 -2.3819  0.4933 -0.4900
10478SOL    HW232119   1.793   4.682   6.758  0.2194  0.3793  0.2798
10479SOL     OW32120   0.209   4.653   2.221 -0.1610  0.1488 -0.0374
10479SOL    HW132121   0.236   4.666   2.130  1.6932  0.0449  0.4585
10479SOL    HW232122   0.221   4.738   2.262 -0.2572  0.0144  0.2748
10480SOL     OW32123   6.605   0.079   2.757 -0.3140  0.0169 -0.6814
10480SOL    HW132124   6.677   0.116   2.808 -0.4479 -0.0766 -0.4233
10480SOL    HW232125   6.530   0.084   2.815 -0.5202  0.1252 -0.9549
10481SOL     OW32126   3.956   6.659   1.750 -0.2228  0.2891 -0.5167
10481SOL    HW132127   4.023   6.727   1.755 -1.1741  1.3992 -2.1875
10481SOL    HW232128   3.927   6.660   1.659 -0.6502 -2.0059 -0.4560
10482SOL     OW32129   5.627   1.249   0.994 -0.0300  0.1686 -0.1379
10482SOL    HW132130   5.564   1.251   1.066  0.1678  1.0699  0.0161
10482SOL    HW232131   5.599   1.175   0.940  0.8020 -1.6297  1.7416
10483SOL     OW32132   2.739   6.319   4.869 -0.4168  0.5207 -0.9513
10483SOL    HW132133   2.667   6.309   4.932 -0.8220  0.5645 -1.4076
10483SOL    HW232134   2.768   6.409   4.881  0.0250  0.3017 -0.2817
10484SOL     OW32135   3.851   0.154   4.037  0.2805 -0.5196 -0.0939
10484SOL    HW132136   3.925   0.146   3.977 -0.4148 -0.0764 -1.0333
10484SOL    HW232137   3.797   0.224   4.000 -1.5507 -2.0463 -0.4218
10485SOL     OW32138   5.198   1.985   4.308  0.2114  0.1859  0.7802
10485SOL    HW132139   5.233   2.073   4.292  0.8733  0.0964  1.6498
10485SOL    HW232140   5.258   1.947   4.373 -0.5514 -0.5987  1.0379
10486SOL     OW32141   3.080   1.113   3.292 -0.3641 -0.4118  0.3241
10486SOL    HW132142   3.083   1.055   3.368 -1.0292  0.2665  0.8875
10486SOL    HW232143   3.009   1.078   3.237  1.4208 -2.1254 -1.0511
10487SOL     OW32144   2.911   1.706   2.889 -0.2135  0.0050 -0.2777
10487SOL    HW132145   3.000   1.687   2.920  0.1581  2.7656  0.5705
10487SOL    HW232146   2.924   1.741   2.801 -0.6183 -0.7407 -0.6477
10488SOL     OW32147   0.517   5.792   5.005 -0.8446 -0.1592  0.0628
10488SOL    HW132148   0.556   5.800   5.092 -2.1925 -2.4487  0.9745
10488SOL    HW232149   0.545   5.705   4.975 -0.9043  0.3519 -1.5336
10489SOL     OW32150   4.068   5.025   0.361 -0.3400  0.0477 -0.4966
10489SOL    HW132151   4.152   5.006   0.402 -1.4178 -0.6610  1.5080
10489SOL    HW232152   4.023   4.941   0.358 -1.3762  0.5946 -0.5804
10490SOL     OW32153   0.174   2.296   1.158 -0.2733  0.4179 -1.0841
10490SOL    HW132154   0.188   2.340   1.074  3.4580 -0.9138 -1.3474
10490SOL    HW232155   0.134   2.212   1.135 -0.0017  0.3883 -1.4543
10491SOL     OW32156   5.232   1.184   1.011  0.2711 -0.1455  0.9766
10491SOL    HW132157   5.181   1.104   1.002 -3.0051  1.8785 -0.6530
10491SOL    HW232158   5.234   1.222   0.923  2.1663  1.3375  1.5779
10492SOL     OW32159   1.550   4.912   1.956 -0.3886  0.4721  0.1242
10492SOL    HW132160   1.493   4.961   2.015 -0.3128  0.6517  0.0470
10492SOL    HW232161   1.492   4.882   1.886 -0.2140  1.4766 -0.4708
10493SOL     OW32162   3.798   1.907   6.167 -0.1729  0.0933  0.2215
10493SOL    HW132163   3.831   1.997   6.169 -1.2962  0.5122  0.8107
10493SOL    HW232164   3.756   1.899   6.081  0.3946 -0.0464 -0.0446
10494SOL     OW32165   4.041   1.388   3.061 -0.2524 -0.0721  0.4178
10494SOL    HW132166   4.098   1.424   3.128 -0.3690 -1.5134  1.3344
10494SOL    HW232167   4.098   1.380   2.984  0.7137 -1.1251  1.2004
10495SOL     OW32168   6.150   5.805   3.063 -0.1655 -0.3560  0.3580
10495SOL    HW132169   6.100   5.857   3.001 -0.0195  3.0266  2.8157
10495SOL    HW232170   6.087   5.781   3.131  0.0100 -2.6605 -0.2154
10496SOL     OW32171   6.500   6.406   3.049  0.2156 -0.5159 -0.0026
10496SOL    HW132172   6.422   6.433   3.002  0.8862 -0.2424 -0.9839
10496SOL    HW232173   6.516   6.477   3.112  0.5324  0.1678 -0.8430
10497SOL     OW32174   2.822   2.989   1.492 -0.0419 -0.5349 -0.0458
10497SOL    HW132175   2.817   3.008   1.398 -0.9806 -2.3242 -0.4092
10497SOL    HW232176   2.845   2.896   1.496  0.2273 -0.4174  1.5049
10498SOL     OW32177   5.927   5.215   5.135 -0.3047 -0.1647  0.0255
10498SOL    HW132178   5.890   5.147   5.191 -0.7325 -0.5144 -0.6685
10498SOL    HW232179   5.883   5.204   5.051 -0.4949  1.0817 -0.0557
10499SOL     OW32180   2.018   2.403   1.444  0.1622  0.0238  0.0149
10499SOL    HW132181   1.997   2.452   1.523  1.2661 -0.5157  0.6602
10499SOL    HW232182   2.005   2.465   1.372 -0.0634  0.7542  0.6847
10500SOL     OW32183   2.141   3.883   4.075 -0.2514 -0.2967 -0.4122
10500SOL    HW132184   2.207   3.928   4.128  0.7835  1.8540 -3.2619
10500SOL    HW232185   2.070   3.866   4.136  2.1894 -1.2274  2.4472
10501SOL     OW32186   5.783   3.544   6.303 -0.1849  0.0897  0.0933
10501SOL    HW132187   5.849   3.475   6.290 -0.5760 -0.0524 -1.2573
10501SOL    HW232188   5.704   3.497   6.329  0.1500  0.2420  1.4806
10502SOL     OW32189   3.708   6.022   4.860  0.1477 -0.5894 -0.1132
10502SOL    HW132190   3.711   6.050   4.951 -1.6187 -1.0001  0.1056
10502SOL    HW232191   3.800   6.014   4.834  0.6786  0.2127  1.4037
10503SOL     OW32192   2.253   1.475   4.625 -0.2777  0.7959 -0.0484
10503SOL    HW132193   2.262   1.539   4.695 -0.6526  0.6675  0.1190
10503SOL    HW232194   2.216   1.398   4.667 -0.2018  0.6058 -0.3257
10504SOL     OW32195   1.053   0.178   5.045 -0.2372 -0.6142 -0.1721
10504SOL    HW132196   1.067   0.268   5.014  0.3796 -0.0743  1.6032
10504SOL    HW232197   1.140   0.141   5.053 -0.4218 -0.9602  0.2848
10505SOL     OW32198   1.829   0.388   1.568 -0.4577  0.0959 -0.2261
10505SOL    HW132199   1.828   0.408   1.661 -0.8120 -0.0557 -0.1964
10505SOL    HW232200   1.918   0.356   1.551  0.4374  2.5040 -0.4501
10506SOL     OW32201   6.352   2.299   0.780 -0.9132 -0.2364 -0.1956
10506SOL    HW132202   6.276   2.258   0.820 -0.3971 -1.8227 -0.7851
10506SOL    HW232203   6.425   2.275   0.836 -0.4413 -1.0907 -1.1490
10507SOL     OW32204   5.540   1.837   3.625  0.6226  0.1968 -0.0611
10507SOL    HW132205   5.592   1.805   3.552  0.0554 -1.0248  0.0478
10507SOL    HW232206   5.530   1.931   3.608  3.5630  0.6779  0.3804
10508SOL     OW32207   6.386   6.385   4.079  0.4151  0.0318 -0.4671
10508SOL    HW132208   6.314   6.405   4.138  0.1185  2.2839 -1.4971
10508SOL    HW232209   6.435   6.316   4.124  0.2816  1.6960  2.5192
10509SOL     OW32210   6.798   6.511   5.686  0.3236  0.0244 -0.3985
10509SOL    HW132211   6.702   6.503   5.686  0.2789 -0.7334 -3.4356
10509SOL    HW232212   6.829   6.421   5.691  0.7927  0.1174 -1.3615
10510SOL     OW32213   1.380   0.012   3.296  0.1866  0.0523  0.7362
10510SOL    HW132214   1.450  -0.040   3.336 -0.5227 -1.0151  0.6233
10510SOL    HW232215   1.360   0.079   3.362  0.9786  0.0742  0.9670
10511SOL     OW32216   6.285   2.727   2.764  0.4914 -0.5026 -0.0325
10511SOL    HW132217   6.191   2.714   2.757  0.3174  0.2985  0.6981
10511SOL    HW232218   6.320   2.689   2.683 -0.6878  1.4759 -1.5835
10512SOL     OW32219   6.445   1.726   5.968 -0.7575  0.2605  0.1498
10512SOL    HW132220   6.434   1.821   5.962 -1.8839  0.1012 -0.5001
10512SOL    HW232221   6.364   1.690   5.932 -0.7913 -0.9461  1.3378
10513SOL     OW32222   1.653   2.085   6.846  0.5369  0.2155 -0.0915
10513SOL    HW132223   1.632   2.104   6.937 -3.3342 -3.4856  0.1099
10513SOL    HW232224   1.588   2.135   6.796 -0.4988 -1.3765 -0.4043
10514SOL     OW32225   3.876   0.239   5.561  0.0379  0.0728 -0.1636
10514SOL    HW132226   3.902   0.275   5.646  1.7575 -0.1069 -0.5848
10514SOL    HW232227   3.791   0.197   5.578  0.1636  0.3798  1.3669
10515SOL     OW32228   0.079   5.998   2.574  0.2858 -0.4118 -0.1885
10515SOL    HW132229   0.134   6.022   2.649  2.6888  1.1190 -2.2899
10515SOL    HW232230   0.003   6.056   2.581  1.3851  1.0710  0.0901
10516SOL     OW32231   3.311   5.724   0.564  0.2251 -0.3566 -0.5406
10516SOL    HW132232   3.350   5.731   0.651 -0.3004 -0.2541 -0.3077
10516SOL    HW232233   3.245   5.794   0.562 -0.4791 -1.0032 -0.6349
10517SOL     OW32234   3.306   5.383   3.117 -0.2290  0.5184  0.0354
10517SOL    HW132235   3.382   5.326   3.116 -1.0151 -0.6005  1.2518
10517SOL    HW232236   3.242   5.339   3.062 -0.5428  0.6423  0.2982
10518SOL     OW32237   2.559   3.704   4.572  0.0508 -0.1781  0.0810
10518SOL    HW132238   2.571   3.798   4.564 -1.8660  0.1659  0.7734
10518SOL    HW232239   2.575   3.686   4.665  1.5191 -0.7497 -0.2534
10519SOL     OW32240   2.692   0.091   2.175 -0.1287 -0.2622 -0.0456
10519SOL    HW132241   2.781   0.065   2.199 -0.5062  0.1284  1.9560
10519SOL    HW232242   2.649   0.009   2.151  0.2020 -0.7416  0.9590
10520SOL     OW32243   4.929   5.645   6.503  0.1366  0.5995  0.1512
10520SOL    HW132244   4.993   5.668   6.570  0.0334  2.8438 -0.4508
10520SOL    HW232245   4.906   5.728   6.462 -0.9412 -0.5306 -1.6592
10521SOL     OW32246   0.788   1.685   1.333 -0.2765 -0.3076 -0.2014
10521SOL    HW132247   0.755   1.661   1.247  0.4173 -0.2951 -0.4786
10521SOL    HW232248   0.814   1.602   1.372 -0.6337 -0.3183  0.0181
10522SOL     OW32249   5.772   3.154   1.366  0.4071 -0.1037  0.1413
10522SOL    HW132250   5.788   3.059   1.364  0.6931 -0.1235  1.9959
10522SOL    HW232251   5.860   3.192   1.374  0.2194  0.2642  0.4681
10523SOL     OW32252   2.155   3.073   2.369 -0.1854 -0.0484  0.1608
10523SOL    HW132253   2.239   3.031   2.390  0.5579  0.7765 -1.0754
10523SOL    HW232254   2.156   3.081   2.274 -1.6698  0.0019  0.1370
10524SOL     OW32255   2.278   6.687   6.662  0.2394  0.0107  0.1032
10524SOL    HW132256   2.257   6.749   6.593  0.1073 -0.0535  0.0864
10524SOL    HW232257   2.349   6.634   6.626  1.7664  1.4558  0.8519
10525SOL     OW32258   3.330   6.863   6.161  0.1103  0.0941 -0.9550
10525SOL    HW132259   3.322   6.932   6.096 -0.4730  0.9965  0.0418
10525SOL    HW232260   3.240   6.835   6.178  0.2071  0.2250 -0.1833
10526SOL     OW32261   5.006   6.125   1.779 -0.0776  0.7655  0.2065
10526SOL    HW132262   5.082   6.139   1.723  0.2614  1.4497  0.8138
10526SOL    HW232263   4.933   6.164   1.731  0.3727  2.1992  0.6307
10527SOL     OW32264   4.473   2.005   3.374  0.1768 -0.2868 -0.0069
10527SOL    HW132265   4.567   1.985   3.376  0.2116 -0.9612 -3.1673
10527SOL    HW232266   4.442   1.980   3.461  2.5623 -2.0459  0.4513
10528SOL     OW32267   4.744   4.463   6.685 -0.0174  0.5141 -0.5315
10528SOL    HW132268   4.664   4.489   6.731 -1.4336  0.1497 -2.5991
10528SOL    HW232269   4.779   4.390   6.736 -2.4477 -0.9896 -0.8696
10529SOL     OW32270   3.070   0.081   0.198  0.2920  0.5664 -0.7980
10529SOL    HW132271   3.162   0.091   0.223  0.4188  1.8263 -1.6763
10529SOL    HW232272   3.048  -0.009   0.223  1.2790  0.7641  0.9160
10530SOL     OW32273   3.732   6.192   5.091  0.1769 -0.2812  0.0384
10530SOL    HW132274   3.780   6.267   5.057  0.9413 -0.7524  0.0501
10530SOL    HW232275   3.649   6.228   5.123 -0.0274  0.3442 -1.1750
10531SOL     OW32276   0.483   1.109   6.666 -0.0120 -0.6690  0.0250
10531SOL    HW132277   0.469   1.150   6.580 -0.8620  1.8863  1.3123
10531SOL    HW232278   0.574   1.080   6.664  0.3690  0.5319 -1.2710
10532SOL     OW32279   4.977   1.348   3.381  0.4518  0.1212  0.8249
10532SOL    HW132280   4.901   1.386   3.336 -0.3751 -1.2771  0.9395
10532SOL    HW232281   4.944   1.326   3.468  0.9076 -0.7091  0.8011
10533SOL     OW32282   5.823   2.050   1.809 -0.1151  0.6295  0.1040
10533SOL    HW132283   5.909   2.033   1.772 -0.1207  1.7315 -0.4661
10533SOL    HW232284   5.772   2.086   1.737 -1.0778 -0.0563  0.4198
10534SOL     OW32285   3.628   0.866   4.221 -0.9297 -0.5375  0.3238
10534SOL    HW132286   3.605   0.947   4.266 -1.3094  0.5292 -1.7011
10534SOL    HW232287   3.569   0.800   4.258 -2.5871  0.7192  0.0115
10535SOL     OW32288   5.209   1.168   4.821  0.3137 -0.0530  0.1595
10535SOL    HW132289   5.298   1.179   4.786 -0.2654  1.8588 -0.8606
10535SOL    HW232290   5.174   1.092   4.775  0.4604  0.9027 -1.5915
10536SOL     OW32291   6.052   5.195   0.280 -0.2934 -0.3541 -0.0573
10536SOL    HW132292   5.992   5.140   0.329 -0.7712 -1.1550 -1.4976
10536SOL    HW232293   6.105   5.134   0.229 -0.4885  0.4651 -1.2857
10537SOL     OW32294   2.270   2.429   6.345  0.1723  0.3473 -0.0448
10537SOL    HW132295   2.236   2.494   6.284 -0.1581 -0.1064 -0.3518
10537SOL    HW232296   2.198   2.416   6.408  1.4912  2.9324  2.2210
10538SOL     OW32297   4.740   2.868   0.700  0.6038 -0.0934 -0.1211
10538SOL    HW132298   4.668   2.931   0.696  0.8739  0.1969 -0.4530
10538SOL    HW232299   4.791   2.894   0.777  0.3858 -0.2662  0.0827
10539SOL     OW32300   5.612   6.479   0.033  0.1056  0.2062  0.0153
10539SOL    HW132301   5.705   6.468   0.017  0.0041  1.7114 -2.0677
10539SOL    HW232302   5.570   6.417  -0.027 -0.2272  0.4300  0.0149
10540SOL     OW32303   3.996   6.181   2.943  0.1379 -0.1979  0.2542
10540SOL    HW132304   3.989   6.275   2.925  1.4830 -0.1480 -0.1087
10540SOL    HW232305   3.947   6.169   3.024 -1.1655  0.5719 -0.3821
10541SOL     OW32306   3.638   3.089   5.656 -0.2673 -0.1811 -0.3345
10541SOL    HW132307   3.633   3.161   5.718  0.2957 -0.2325 -0.2224
10541SOL    HW232308   3.632   3.010   5.709  1.0116 -0.2379 -0.2445
10542SOL     OW32309   0.215   6.063   6.412  0.0246  0.8286  0.1081
10542SOL    HW132310   0.234   6.065   6.318 -0.1029 -1.4680 -0.0230
10542SOL    HW232311   0.121   6.080   6.418 -0.6182 -2.0242 -0.5163
10543SOL     OW32312   6.619   0.812   2.549 -0.0186 -0.7103  0.1925
10543SOL    HW132313   6.524   0.801   2.543  0.0711 -1.4219 -0.0223
10543SOL    HW232314   6.636   0.816   2.644 -0.3198  0.0229  0.2216
10544SOL     OW32315   2.683   3.992   1.568 -0.5843  0.1753 -0.4075
10544SOL    HW132316   2.714   3.904   1.548 -0.6116 -0.0766  0.6145
10544SOL    HW232317   2.739   4.049   1.515 -0.6303 -0.4496 -1.1509
10545SOL     OW32318   3.268   1.524   0.256  0.0198  0.0346 -0.4212
10545SOL    HW132319   3.215   1.549   0.180  0.4111 -1.6562 -1.2829
10545SOL    HW232320   3.348   1.486   0.220  0.5063 -0.2162  0.8430
10546SOL     OW32321   0.216   0.951   2.555 -0.0226 -0.1933  0.0983
10546SOL    HW132322   0.165   0.870   2.566 -1.4258  0.3827 -1.6330
10546SOL    HW232323   0.264   0.961   2.637 -2.9078 -0.6546  1.9815
10547SOL     OW32324   1.571   2.157   1.696  0.5273 -0.9106 -0.8063
10547SOL    HW132325   1.586   2.252   1.695  0.1663 -0.8529 -1.2841
10547SOL    HW232326   1.477   2.148   1.714  0.7519 -1.2124  0.3018
10548SOL     OW32327   4.680   4.930   3.739  0.4688  0.4925 -0.2015
10548SOL    HW132328   4.749   4.949   3.802  0.0649 -0.2415  0.4784
10548SOL    HW232329   4.702   4.983   3.663  3.4291 -1.7919 -1.1604
10549SOL     OW32330   2.998   5.350   6.456 -0.0752  0.9879 -0.1740
10549SOL    HW132331   2.903   5.346   6.446 -0.0623  1.0010 -0.2971
10549SOL    HW232332   3.033   5.310   6.376  0.0102 -1.0339  0.8045
10550NA      NA32333   0.949   2.020   5.892  0.0104  0.5957 -0.2481
10551NA      NA32334   0.429   3.347   4.490  0.8184  0.3215 -0.1893
10552NA      NA32335   0.768   2.549   5.193 -0.1288 -0.1511  0.3308
10553NA      NA32336   1.377   2.250   4.430  0.3017  0.2440 -0.1570
10554NA      NA32337   4.442   5.842   1.535 -0.4881  0.0954  0.1782
10555NA      NA32338   6.007   1.321   4.886 -0.2848 -0.0336 -0.3910
10556NA      NA32339   2.954   2.098   4.271  0.6416 -0.1232 -0.0294
10557NA      NA32340   6.097   3.438   5.857  0.1824 -0.4661  0.5004
10558NA      NA32341   6.566   0.926   1.740  0.4685 -0.3597  0.0227
10559NA      NA32342   5.722   4.397   4.803 -0.7132 -0.0107 -0.0104
10560NA      NA32343   5.109   3.868   5.878 -0.1929 -0.4830 -0.7066
10561NA      NA32344   4.955   3.486   5.190  0.1661 -0.4928 -0.2702
10562NA      NA32345   3.018   0.503   3.112  0.4561 -0.4529 -0.9742
10563NA      NA32346   2.615   2.694   1.105  0.1229  0.0013 -0.3150
10564NA      NA32347   6.011   3.663   6.077 -0.1958 -0.3495  0.9512
10565NA      NA32348   4.912   3.786   5.146  0.4558 -0.0785  0.1203
10566NA      NA32349   5.859   1.849   5.253  0.3495 -0.3966 -0.6079
10567NA      NA32350   0.273   5.907   6.542  0.2563 -0.0536 -0.3205
10568NA      NA32351   5.089   3.886   4.858  0.3378 -0.0545  0.3101
10569NA      NA32352   0.555   1.685   4.790 -0.0183  0.1912  0.4977
10570NA      NA32353   1.485   3.106   4.955 -0.3097 -0.5105  0.0909
10571NA      NA32354   6.703   4.053   5.005 -0.0462 -0.3982 -0.5479
10572NA      NA32355   0.593   0.409   2.925 -0.4347 -0.1616 -0.1638
10573NA      NA32356   6.147   2.156   3.589  0.3505  0.3123 -0.0744
10574NA      NA32357   0.697   3.865   5.415 -0.0336 -0.1235  0.3923
10575NA      NA32358   6.361   2.507   4.943 -0.6454 -0.0061 -0.1234
10576NA      NA32359   0.834   2.271   5.097  0.0360 -0.0069  0.4087
10577NA      NA32360   6.179   2.334   5.120 -0.2507  0.0215  0.0290
10578NA      NA32361   3.663   1.695   1.587  0.1672 -0.3726 -0.0469
10579NA      NA32362   5.062   4.047   5.677 -0.6448  0.2800 -0.2038
10580NA      NA32363   5.698   1.538   5.303  0.5996 -0.4304  0.3311
10581NA      NA32364   0.601   2.866   2.639  0.0169 -0.1054 -0.2198
10582NA      NA32365   5.016   3.735   5.667  0.1737  0.0609 -0.6007
10583NA      NA32366   3.765   6.630   4.898  0.2296  0.0127  0.2207
10584NA      NA32367   2.688   0.501   4.382 -0.0231 -0.4058 -0.4047
10585NA      NA32368   6.156   3.844   5.920 -0.3463  0.0471  0.4697
10586NA      NA32369   1.055   2.685   5.226 -0.3889 -0.2789 -0.1404
10587NA      NA32370   4.186   2.361   5.922 -0.6772 -0.4700 -0.3459
10588NA      NA32371   0.095   5.341   2.006 -0.3947 -0.0788 -0.3773
10589NA      NA32372   6.003   3.288   6.091  0.5354 -0.1000 -0.9177
10590NA      NA32373   5.007   3.667   4.620 -0.1712  0.2546  0.0014
10591NA      NA32374   4.859   2.533   5.614 -0.7758  0.9848 -0.0227
10592NA      NA32375   0.573   2.748   5.261 -0.0334 -0.2502  0.4859
10593NA      NA32376   2.411   1.238   2.793  0.1972 -0.4895  0.3277
10594NA      NA32377   4.582   4.828   2.161 -0.1432  0.6051  0.3311
10595NA      NA32378   6.290   0.367   0.438  0.3464  0.1002 -0.2060
10596NA      NA32379   5.950   1.564   5.104  0.1328 -0.0061  0.3079
10597NA      NA32380   4.446   1.805   4.133  0.3925  0.1163  0.6485
10598NA      NA32381   1.002   3.156   0.308 -0.2507  0.6875 -0.2701
10599NA      NA32382   6.592   2.360   4.816  0.0862  0.2745 -0.0471
10600NA      NA32383   0.781   2.240   4.209  0.1865 -0.1560  0.4642
10601NA      NA32384   0.812   2.818   5.033 -0.7421  0.0527 -0.0543
10602NA      NA32385   2.890   5.752   1.277 -0.0213 -0.1560 -0.3245
10603NA      NA32386   3.268   5.975   5.048 -0.0034 -0.5320 -0.2356
10604NA      NA32387   0.900   1.725   5.745  0.1183  0.0538 -0.1085
10605NA      NA32388   5.105   3.682   5.376  0.4837  0.8809  0.3742
10606NA      NA32389   5.291   4.625   2.400 -0.2039  0.6080 -0.0689
10607NA      NA32390   1.493   4.032   0.018 -0.1744  0.2094  0.7148
10608NA      NA32391   3.906   0.894   6.516 -0.2227 -0.1798 -0.1337
10609NA      NA32392   5.744   3.742   6.248  0.4148  0.2840 -0.7400
10610NA      NA32393   6.076   6.897   5.540 -0.3471  0.2023  0.4914
10611NA      NA32394   5.780   0.312   1.089  0.5827 -0.2138  0.2015
10612CL      CL32395   2.017   1.134   4.997  0.1678 -0.5699  0.4467
10613CL      CL32396   4.014   6.307   3.696 -0.1665 -0.3402 -0.2291
10614CL      CL32397   5.066   0.947   1.007 -0.0120  0.0202  0.1654
10615CL      CL32398   1.170   1.947   6.189  0.3072  0.0877  0.2745
10616CL      CL32399   2.440   4.141   0.977 -0.3543 -0.0286  0.3476
10617CL      CL32400   4.175   5.842   2.582  0.0982 -0.0450 -0.0586
10618CL      CL32401   6.645   6.581   3.276 -0.1361  0.0968 -0.1227
10619CL      CL32402   3.142   2.270   1.336 -0.2547  0.5143 -0.5119
10620CL      CL32403   5.650   0.623   4.301 -0.0796  0.3420  0.0905
10621CL      CL32404   1.103   6.751   1.222  0.1459  0.1924 -0.3766
10622CL      CL32405   0.296   5.918   2.139  0.2733 -0.0847 -0.1779
10623CL      CL32406   3.992   6.634   4.809 -0.0556 -0.1347  0.0339
10624CL      CL32407   3.669   2.268   0.918  0.0857  0.2017  0.3441
10625CL      CL32408   2.366   5.728   6.036  0.0796 -0.4553 -0.1325
10626CL      CL32409   0.949   3.201   0.766 -0.2923  0.2592 -0.0642
10627CL      CL32410   1.702   1.673   3.530  0.1623  0.5375  0.0598
10628CL      CL32411   2.653   3.115   4.738  0.1943 -0.0345  0.3303
10629CL      CL32412   0.970   2.898   0.344  0.2846 -0.2593  0.0220
10630CL      CL32413   0.376   3.680   0.838 -0.0242 -0.0960  0.1996
10631CL      CL32414   0.328   5.818   6.766 -0.0881 -0.1685 -0.2512
10632CL      CL32415   4.642   3.550   4.849 -0.1747  0.0498  0.4300
10633CL      CL32416   1.683   3.058   2.254  0.2609 -0.1006  0.0445
10634CL      CL32417   2.612   2.960   3.645 -0.0822 -0.0330  0.0014
10635CL      CL32418   0.283   2.399   3.380 -0.0936  0.0357 -0.1931
10636CL      CL32419   5.533   4.522   1.361 -0.1230 -0.2510  0.5331
10637CL      CL32420   6.100   3.754   6.587  0.0859 -0.5900  0.1916
10638CL      CL32421   2.369   1.287   3.258 -0.0477 -0.1859  0.0321
10639CL      CL32422   5.562   3.918   2.434  0.0552  0.0220 -0.2412
10640CL      CL32423   1.159   2.210   3.966  0.3428 -0.2563 -0.1667
10641CL      CL32424   4.198   1.351   3.518  0.0889  0.0777  0.2748
   6.89773   6.89773   6.89773
