G3.5Ocore-PETIM in water
79451
    1aaa     O1    1   7.262   8.668   7.222 -0.3331  0.0311 -0.4386
    1aaa     C1    2   7.199   8.618   7.105  0.1963  0.0506 -0.2378
    1aaa     H1    3   7.259   8.533   7.069  0.3237  1.0285 -2.4014
    1aaa     H2    4   7.181   8.689   7.024 -0.8072  0.2965  0.2029
    1aaa     C2    5   7.214   8.786   7.280  0.0144 -0.6560  0.6467
    1aaa     H3    6   7.120   8.764   7.333 -0.9301 -1.9890 -1.5454
    1aaa     H4    7   7.176   8.856   7.206 -2.5401  0.4866  2.9410
    1aaa     C3    8   7.063   8.568   7.152 -0.1171 -0.5428  0.1249
    1aaa     H5    9   7.007   8.656   7.186  1.9847  1.3812 -1.2207
    1aaa     H6   10   7.067   8.515   7.247  1.0823  1.1645  1.0659
    1aaa     C4   11   7.314   8.850   7.374  0.2551  0.1288 -0.0574
    1aaa     H7   12   7.407   8.867   7.318  0.1367 -1.1020 -0.6297
    1aaa     H8   13   7.334   8.782   7.457 -0.7782  0.0684  0.1482
    1aaa     C5   14   6.984   8.505   7.039  0.7185  0.2592  0.0867
    1aaa     H9   15   6.946   8.583   6.972  1.0021 -0.3416 -0.7887
    1aaa    H10   16   7.057   8.444   6.984  0.8032 -2.4352  3.0150
    1aaa     C6   17   7.258   8.978   7.439  0.5891  0.0025 -0.4214
    1aaa    H11   18   7.192   8.944   7.520  2.1105  0.5767  1.0824
    1aaa    H12   19   7.195   9.033   7.368 -1.4876 -0.0221  1.3195
    1aaa     N1   20   6.890   8.401   7.077  0.3552 -0.0830  0.6061
    1aaa     N2   21   7.364   9.067   7.493  0.0932 -0.4401 -0.7338
    1aaa     C7   22   7.466   9.105   7.391  0.1433  0.7110 -0.0257
    1aaa    H13   23   7.517   9.195   7.429  2.5917  0.1670 -1.8921
    1aaa    H14   24   7.539   9.024   7.392 -0.0341  0.4742 -2.7556
    1aaa     C8   25   7.426   9.011   7.619 -0.5748  0.7692  0.1435
    1aaa    H15   26   7.457   8.908   7.601  1.8913  1.5895 -0.4687
    1aaa    H16   27   7.524   9.057   7.634 -0.2356  0.6524 -1.6102
    1aaa     C9   28   6.810   8.426   7.197  0.2678  0.5659  0.1359
    1aaa    H17   29   6.766   8.333   7.234 -0.6876  1.5718  1.6216
    1aaa    H18   30   6.873   8.450   7.284  1.1501 -0.0024 -0.3489
    1aaa    C10   31   6.820   8.339   6.963  0.3538 -0.8315  0.0837
    1aaa    H19   32   6.747   8.412   6.925  1.2255  0.2970  0.5342
    1aaa    H20   33   6.885   8.321   6.878  0.1835  1.1542 -0.4996
    1aaa    C11   34   7.409   9.138   7.253  0.1159 -0.3109 -0.7583
    1aaa    H21   35   7.339   9.069   7.204 -0.0712 -0.1928 -0.6543
    1aaa    H22   36   7.343   9.224   7.268 -2.8250 -2.5070 -0.5715
    1aaa    C12   37   7.346   9.021   7.753 -0.0296 -0.2567  0.2149
    1aaa    H23   38   7.345   9.129   7.777  0.2975 -0.3604  0.7081
    1aaa    H24   39   7.238   9.003   7.746 -0.4019  1.0103  2.2898
    1aaa    C13   40   6.710   8.545   7.186  0.3340 -0.1114 -0.2035
    1aaa    H25   41   6.754   8.629   7.130  2.4696 -0.8821  0.2814
    1aaa    H26   42   6.620   8.513   7.131 -1.2876  1.7911  1.2834
    1aaa    C14   43   6.736   8.211   6.994 -0.0333  0.0745  0.0806
    1aaa    H27   44   6.793   8.136   7.050 -0.3375 -0.2773 -0.0784
    1aaa    H28   45   6.656   8.239   7.063  0.5969  0.2109  0.7677
    1aaa    C15   46   6.677   8.131   6.876 -0.7684  0.0810  0.0600
    1aaa    H29   47   6.602   8.191   6.824 -0.7704 -1.1901 -1.4375
    1aaa    H30   48   6.757   8.093   6.810 -2.3374 -2.5071 -0.3948
    1aaa    C16   49   6.670   8.595   7.331 -0.6141 -0.2698 -0.3468
    1aaa    H31   50   6.761   8.646   7.364  0.1735 -1.0946 -1.2314
    1aaa    H32   51   6.587   8.667   7.331 -0.5956 -0.2090  1.7135
    1aaa    C17   52   7.404   8.919   7.858 -0.6375 -0.1150 -0.6421
    1aaa    H33   53   7.507   8.941   7.891 -0.4224 -2.5211  0.4176
    1aaa    H34   54   7.349   8.925   7.952 -0.0589  1.5637 -0.3999
    1aaa    C18   55   7.522   9.176   7.154 -0.2675 -0.3844 -0.7115
    1aaa    H35   56   7.479   9.208   7.058 -1.8941 -0.4338 -0.0216
    1aaa    H36   57   7.588   9.254   7.194 -0.9912  0.8406 -1.8818
    2bbb     N1   58   6.403   7.642   7.065 -0.5652  0.3843  0.3709
    2bbb     C1   59   6.335   7.698   7.189  0.3127  0.4410  0.3305
    2bbb     H1   60   6.241   7.642   7.194 -0.7626  2.0618 -1.2138
    2bbb     H2   61   6.290   7.796   7.166 -2.9726 -1.7354 -3.1211
    2bbb     C2   62   6.445   7.498   7.085 -0.3894 -0.1779 -0.4233
    2bbb     H3   63   6.359   7.437   7.114  0.2516 -1.4691 -1.2143
    2bbb     H4   64   6.509   7.488   7.173  0.3987  0.1589 -0.9550
    2bbb     C3   65   6.496   7.731   6.994 -0.2354 -0.2960 -0.2340
    2bbb     H5   66   6.545   7.679   6.911 -3.1594  0.7499 -2.7329
    2bbb     H6   67   6.578   7.763   7.058 -1.4053  2.7221 -0.1527
    2bbb     C4   68   6.430   7.855   6.932  0.1091  0.0542  0.0047
    2bbb     H7   69   6.406   7.915   7.021  1.7999  0.7152  0.0213
    2bbb     H8   70   6.335   7.821   6.889 -1.0390  2.1007  0.8622
    2bbb     C5   71   6.408   7.693   7.328 -0.4394 -0.1033 -0.0777
    2bbb     H9   72   6.450   7.593   7.345  1.1076 -0.0350 -3.1395
    2bbb    H10   73   6.333   7.710   7.405 -0.6824  0.1055 -0.3586
    2bbb     C6   74   6.520   7.427   6.969 -0.0770 -0.1609  0.3433
    2bbb    H11   75   6.622   7.464   6.955 -0.6851  2.1408  1.8266
    2bbb    H12   76   6.454   7.432   6.881  2.8801 -0.5289 -1.9984
    2bbb     C7   77   6.517   7.952   6.850  1.2369  0.7316 -0.1663
    2bbb    H13   78   6.452   8.026   6.801 -0.0114  0.5713  1.2090
    2bbb    H14   79   6.567   7.903   6.766 -0.8909 -1.9844  0.0815
    2bbb     C8   80   6.530   7.274   7.015 -0.2673  0.5156 -0.2275
    2bbb    H15   81   6.577   7.229   6.927  1.3646 -0.5590  1.1787
    2bbb    H16   82   6.434   7.228   7.041  1.1516 -1.8051  1.0724
    2bbb     C9   83   6.522   7.803   7.342 -0.8776  0.2202  0.4829
    2bbb    H17   84   6.582   7.793   7.250  0.0429  1.5557  0.9250
    2bbb    H18   85   6.570   7.786   7.439 -0.5523  1.9389  0.6379
    2bbb     O1   86   6.611   8.021   6.935  0.0258 -0.0647  0.1724
    3bbb     N1   87   6.900   8.498   7.730 -0.4555 -0.1743 -0.1792
    3bbb     C1   88   7.025   8.564   7.686  0.6595  0.1371 -0.3066
    3bbb     H1   89   7.097   8.486   7.657 -0.0705 -0.2910 -1.0220
    3bbb     H2   90   7.079   8.604   7.772 -1.8719  1.6758  0.6300
    3bbb     C2   91   6.887   8.477   7.876  0.4505  0.2233  0.3544
    3bbb     H3   92   6.980   8.431   7.912  0.4973  0.2090  0.2168
    3bbb     H4   93   6.807   8.407   7.904 -0.3631  0.9730 -0.0839
    3bbb     C3   94   6.843   8.392   7.636 -0.1011  0.1076  0.1244
    3bbb     H5   95   6.876   8.293   7.669  2.2665  1.1417  0.9825
    3bbb     H6   96   6.874   8.410   7.533 -0.8493  0.2491 -0.0815
    3bbb     C4   97   6.690   8.391   7.631 -0.9690 -0.9494  0.1323
    3bbb     H7   98   6.667   8.408   7.737 -1.5598 -1.8707  0.1585
    3bbb     H8   99   6.675   8.286   7.604 -0.4919 -0.7219 -1.0186
    3bbb     C5  100   7.020   8.655   7.560  0.0143  0.4186 -0.1135
    3bbb     H9  101   6.988   8.589   7.478  1.6408 -2.2985  1.3663
    3bbb    H10  102   7.124   8.687   7.547  0.6211 -0.8455  1.3799
    3bbb     C6  103   6.862   8.616   7.946 -0.1183  0.2244 -0.4011
    3bbb    H11  104   6.776   8.654   7.891 -0.0183  0.7863 -0.1676
    3bbb    H12  105   6.953   8.677   7.947 -0.4373  0.6960  0.5978
    3bbb     C7  106   6.619   8.505   7.553 -0.2006  0.7264  0.2310
    3bbb    H13  107   6.666   8.601   7.580 -1.0018  1.4531 -0.9070
    3bbb    H14  108   6.517   8.514   7.594  0.1313  2.0983  0.7735
    3bbb     C8  109   6.828   8.623   8.098  0.0719 -0.1525 -0.0510
    3bbb    H15  110   6.912   8.577   8.151 -0.1544 -2.2775 -1.4751
    3bbb    H16  111   6.732   8.582   8.132 -0.2042 -1.4137 -2.2779
    3bbb     C9  112   6.931   8.782   7.576  0.1351 -0.2103  0.4108
    3bbb    H17  113   6.993   8.852   7.633 -0.2383  0.9819 -0.6324
    3bbb    H18  114   6.838   8.754   7.628 -0.1937 -0.2234 -0.1770
    3bbb     O1  115   6.629   8.483   7.415  0.5794  0.1936 -0.4362
    4bbb     N1  116   7.366   8.415   7.593  0.1660 -0.0889 -0.2088
    4bbb     C1  117   7.334   8.429   7.448 -1.1909  0.1981 -0.7026
    4bbb     H1  118   7.420   8.462   7.389 -0.0196 -2.2059 -0.3862
    4bbb     H2  119   7.255   8.505   7.447 -2.1381 -0.7691 -0.7434
    4bbb     C2  120   7.457   8.302   7.612 -0.5165 -0.2565  0.2496
    4bbb     H3  121   7.398   8.210   7.603 -0.3403 -0.0451 -4.0328
    4bbb     H4  122   7.495   8.316   7.714  0.1101 -1.9580  0.2612
    4bbb     C3  123   7.410   8.552   7.644  0.1976  0.1881 -0.4609
    4bbb     H5  124   7.328   8.623   7.628 -0.3914  0.0037  1.6246
    4bbb     H6  125   7.494   8.589   7.584  2.3131 -1.5447  1.3366
    4bbb     C4  126   7.440   8.555   7.799 -0.0855 -0.5461 -0.3679
    4bbb     H7  127   7.524   8.490   7.824  1.1905  0.8588 -0.9528
    4bbb     H8  128   7.349   8.512   7.845  0.3913 -2.6624 -1.3468
    4bbb     C5  129   7.270   8.314   7.368 -0.1792  0.4994 -0.2152
    4bbb     H9  130   7.342   8.232   7.378  0.2954  0.7500 -1.5272
    4bbb    H10  131   7.256   8.336   7.262 -2.3732 -0.5015 -0.1473
    4bbb     C6  132   7.593   8.297   7.527 -0.4274 -0.0095  0.2077
    4bbb    H11  133   7.633   8.398   7.512 -1.1417  0.0895 -1.1459
    4bbb    H12  134   7.570   8.242   7.435 -1.1331 -3.1535  2.1913
    4bbb     C7  135   7.478   8.692   7.861 -0.1978 -0.8714 -0.3622
    4bbb    H13  136   7.575   8.737   7.836 -1.0713  0.8154 -0.7462
    4bbb    H14  137   7.486   8.689   7.971  2.7247  3.7374 -0.3200
    4bbb     C8  138   7.705   8.223   7.606  0.1899  0.6504 -0.2534
    4bbb    H15  139   7.791   8.221   7.538 -0.2221  0.6492 -0.7827
    4bbb    H16  140   7.669   8.124   7.636 -1.4227  1.2230 -0.2316
    4bbb     C9  141   7.138   8.260   7.431  0.4809  0.0201  0.0804
    4bbb    H17  142   7.053   8.322   7.400 -0.7484 -0.7622  1.8562
    4bbb    H18  143   7.148   8.269   7.540 -3.3104  1.2984  0.3966
    4bbb     O1  144   7.385   8.781   7.812  0.2890  0.0558 -0.0220
    5bbb     N1  145   7.625   8.667   6.948  0.6100  0.2360  0.1655
    5bbb     C1  146   7.542   8.564   7.013  0.2659  0.1436 -0.2024
    5bbb     H1  147   7.579   8.468   6.975  1.9778  0.5024  0.4725
    5bbb     H2  148   7.437   8.574   6.984  0.6486  2.5752 -0.8538
    5bbb     C2  149   7.638   8.640   6.802  0.4338 -0.8549 -0.2715
    5bbb     H3  150   7.703   8.555   6.777  2.9495  1.1074 -0.6224
    5bbb     H4  151   7.675   8.729   6.750  0.4221  0.4430  1.8928
    5bbb     C3  152   7.594   8.812   6.982  0.0039 -0.6286  0.0422
    5bbb     H5  153   7.541   8.823   7.078  0.5103  1.8635  0.0653
    5bbb     H6  154   7.527   8.855   6.906 -0.3265 -0.1556  0.5911
    5bbb     C4  155   7.724   8.901   6.992 -0.4406  0.7986 -0.6032
    5bbb     H7  156   7.779   8.894   6.898  0.7069  0.3109  0.0968
    5bbb     H8  157   7.786   8.872   7.078 -1.3088 -1.5636 -0.7279
    5bbb     C5  158   7.560   8.566   7.167 -0.2454 -0.2605  0.4273
    5bbb     H9  159   7.488   8.494   7.209 -0.5906  0.3291  0.8667
    5bbb    H10  160   7.517   8.660   7.205  0.4060  1.1718 -2.2716
    5bbb     C6  161   7.505   8.599   6.731  0.3151 -0.0113  0.4576
    5bbb    H11  162   7.479   8.500   6.769 -0.9805  0.3237  0.4817
    5bbb    H12  163   7.529   8.574   6.628 -1.1740  0.3610  0.0020
    5bbb     C7  164   7.677   9.048   7.015  0.1388  0.2523  0.1982
    5bbb    H13  165   7.634   9.085   6.921 -0.7190  1.6225  1.1002
    5bbb    H14  166   7.772   9.096   7.043 -0.0570  0.7953 -0.0713
    5bbb     C8  167   7.389   8.696   6.730  0.5707 -0.1821  0.0535
    5bbb    H15  168   7.417   8.784   6.670  0.5184 -1.0636 -1.2908
    5bbb    H16  169   7.368   8.728   6.833  0.5464 -0.3973  0.1140
    5bbb     C9  170   7.699   8.530   7.221 -0.1769 -0.0385  0.3351
    5bbb    H17  171   7.698   8.544   7.330  1.3725  0.9739  0.2351
    5bbb    H18  172   7.783   8.589   7.181 -0.2176 -1.0179 -1.2317
    5bbb     O1  173   7.594   9.053   7.134  0.2995  0.2309  0.1249
    6bbb     N1  174   6.368   7.142   7.482  0.3718 -0.1541  0.3724
    6bbb     C1  175   6.223   7.122   7.468 -0.8174  1.0851  0.4470
    6bbb     H1  176   6.210   7.065   7.375  2.6934 -0.3876  0.7555
    6bbb     H2  177   6.174   7.218   7.449 -3.0062 -0.5829 -2.8428
    6bbb     C2  178   6.418   7.203   7.608  0.1975  0.1109 -0.3735
    6bbb     H3  179   6.528   7.199   7.612  0.2339  2.0326  1.6934
    6bbb     H4  180   6.388   7.155   7.702 -0.6444  1.5553  0.1011
    6bbb     C3  181   6.425   7.183   7.351 -0.5501  0.0570  0.5076
    6bbb     H5  182   6.407   7.286   7.317 -1.1267  0.2572  1.3978
    6bbb     H6  183   6.382   7.119   7.273  0.0107  0.3928 -0.0795
    6bbb     C4  184   6.584   7.174   7.348  0.9766  0.1124 -0.3607
    6bbb     H7  185   6.632   7.094   7.407  0.9531  1.7479  1.9722
    6bbb     H8  186   6.622   7.265   7.396  1.3224 -1.4910  2.5651
    6bbb     C5  187   6.150   7.029   7.579  0.4779 -0.1082 -0.3980
    6bbb     H9  188   6.166   7.066   7.681 -0.2488  1.3122 -0.7912
    6bbb    H10  189   6.192   6.928   7.570 -0.6533 -0.4555 -2.1323
    6bbb     C6  190   6.398   7.354   7.630 -0.1221  0.8024  0.8471
    6bbb    H11  191   6.291   7.373   7.615 -0.6553 -2.3438  0.4901
    6bbb    H12  192   6.460   7.410   7.559 -0.4723 -0.8339 -0.7879
    6bbb     C7  193   6.649   7.162   7.210 -0.6829  0.8319  0.1370
    6bbb    H13  194   6.615   7.069   7.164 -0.8866  1.0218 -0.0958
    6bbb    H14  195   6.758   7.148   7.209 -0.9070 -1.0149 -1.6192
    6bbb     C8  196   6.441   7.400   7.775 -0.2884 -0.0202  0.1547
    6bbb    H15  197   6.546   7.374   7.794 -1.0648 -2.4406  1.2729
    6bbb    H16  198   6.383   7.350   7.853  0.9619 -0.7704  0.6153
    6bbb     C9  199   5.994   7.016   7.564 -0.0853  0.3011 -0.0353
    6bbb    H17  200   5.948   7.116   7.562  1.6731  1.1127 -2.7846
    6bbb    H18  201   5.953   6.958   7.647 -0.6519 -0.4408 -0.8310
    6bbb     O1  202   6.623   7.278   7.127 -0.2622  0.1423 -0.1663
    7bbb     N1  203   6.286   8.317   7.264  0.2813  0.0568 -0.1733
    7bbb     C1  204   6.160   8.270   7.328 -0.8844  0.3157  0.1384
    7bbb     H1  205   6.081   8.339   7.297  0.1843  1.3665 -0.2612
    7bbb     H2  206   6.160   8.283   7.437  1.1205 -0.6509  0.2755
    7bbb     C2  207   6.335   8.455   7.306 -0.1772  0.1554  0.1920
    7bbb     H3  208   6.408   8.490   7.232  0.7429 -2.0355  0.0328
    7bbb     H4  209   6.379   8.454   7.406 -0.5976 -4.7541  0.4356
    7bbb     C3  210   6.402   8.222   7.257  0.1872 -0.0964 -0.4274
    7bbb     H5  211   6.480   8.271   7.197 -1.3470  1.1389 -1.4525
    7bbb     H6  212   6.366   8.132   7.205 -1.1356  0.6849 -0.9057
    7bbb     C4  213   6.461   8.176   7.394  0.4340 -0.0649 -0.0537
    7bbb     H7  214   6.390   8.158   7.476  0.8368 -0.3682  0.2343
    7bbb     H8  215   6.517   8.265   7.425 -1.8989  1.6028 -0.5190
    7bbb     C5  216   6.121   8.123   7.308 -0.2266 -0.3434  0.4562
    7bbb     H9  217   6.038   8.091   7.372 -0.8267  3.8463  1.9339
    7bbb    H10  218   6.203   8.052   7.315  1.3776  1.5066  0.9982
    7bbb     C6  219   6.223   8.558   7.304 -0.3182  0.3847 -0.7154
    7bbb    H11  220   6.148   8.530   7.379  2.3992  1.0695  2.3495
    7bbb    H12  221   6.174   8.555   7.206 -0.3689  0.5470 -0.6950
    7bbb     C7  222   6.548   8.047   7.379 -0.4871 -1.0128 -0.1966
    7bbb    H13  223   6.599   8.029   7.475  0.6113  0.4112 -0.5037
    7bbb    H14  224   6.622   8.059   7.300 -2.0279  1.4737 -1.3287
    7bbb     C8  225   6.271   8.698   7.357 -0.1208  0.4479 -0.4019
    7bbb    H15  226   6.181   8.756   7.381 -0.0377  0.1034  0.7540
    7bbb    H16  227   6.316   8.752   7.273  1.9765 -2.1214 -1.0348
    7bbb     C9  228   6.058   8.102   7.171  0.5456  0.5717 -0.0256
    7bbb    H17  229   6.120   8.141   7.089  1.0902  1.8000  0.9637
    7bbb    H18  230   5.964   8.159   7.166  1.3330  1.8565 -0.6913
    7bbb     O1  231   6.464   7.938   7.334 -0.6167 -0.6474 -0.8864
    8bbb     N1  232   6.556   8.802   8.547 -0.4027  0.1783 -0.7364
    8bbb     C1  233   6.563   8.819   8.693 -0.2523  0.2677 -0.4369
    8bbb     H1  234   6.654   8.768   8.726 -0.7611 -1.8106 -2.1664
    8bbb     H2  235   6.475   8.770   8.737 -0.6667  0.1339 -1.4000
    8bbb     C2  236   6.431   8.844   8.478  0.2357  0.5053  0.4677
    8bbb     H3  237   6.429   8.814   8.373  0.5758 -1.4656  0.9980
    8bbb     H4  238   6.432   8.954   8.485 -0.8117  0.4525  1.6483
    8bbb     C3  239   6.675   8.843   8.475  0.7583 -0.1663  0.3224
    8bbb     H5  240   6.760   8.806   8.533 -0.7366 -2.0089  1.4207
    8bbb     H6  241   6.682   8.952   8.476 -0.9271 -0.0174 -1.7013
    8bbb     C4  242   6.680   8.785   8.332 -0.2956 -0.0456 -0.3351
    8bbb     H7  243   6.616   8.841   8.263  0.4095  1.7191  0.4089
    8bbb     H8  244   6.652   8.679   8.338  2.5403 -0.8242 -0.3660
    8bbb     C5  245   6.554   8.960   8.752 -0.1621 -0.8836 -0.4838
    8bbb     H9  246   6.466   9.006   8.704 -0.4628 -1.3978 -0.4251
    8bbb    H10  247   6.652   9.008   8.737  0.1397 -0.3021  3.0631
    8bbb     C6  248   6.309   8.780   8.545  0.3370 -0.3501 -0.3439
    8bbb    H11  249   6.290   8.840   8.635 -0.0394 -0.0290 -0.6312
    8bbb    H12  250   6.332   8.680   8.582  2.4128  0.2362 -0.0013
    8bbb     C7  251   6.820   8.789   8.285  0.2015 -0.6378  0.3574
    8bbb    H13  252   6.875   8.714   8.344 -2.3289 -2.6654  0.2129
    8bbb    H14  253   6.873   8.882   8.307  1.5375 -0.7839 -2.0480
    8bbb     C8  254   6.178   8.786   8.463 -0.3374 -0.8160  0.7783
    8bbb    H15  255   6.183   8.726   8.371  1.5381  0.2015  0.1759
    8bbb    H16  256   6.161   8.885   8.419 -1.6435 -1.5503 -0.4140
    8bbb     C9  257   6.537   8.965   8.908 -0.3762  0.3503  0.2330
    8bbb    H17  258   6.528   9.069   8.941 -2.5825  0.6388 -1.1945
    8bbb    H18  259   6.616   8.919   8.970 -1.7595  0.7657  2.3254
    8bbb     O1  260   6.828   8.765   8.141  0.1214  0.0700 -0.2683
    9bbb     N1  261   6.912   9.067   7.082  0.4049 -0.6570  0.3063
    9bbb     C1  262   6.804   9.011   6.991 -0.4856 -0.1887 -0.5155
    9bbb     H1  263   6.801   9.076   6.903 -1.1645  0.2801 -0.1483
    9bbb     H2  264   6.707   9.024   7.042 -0.3791  2.1236 -0.8326
    9bbb     C2  265   7.050   9.102   7.032  0.2954 -0.1168  0.6546
    9bbb     H3  266   7.117   9.015   7.028  0.7863  0.1892  2.0681
    9bbb     H4  267   7.091   9.174   7.103  0.4033 -0.8500  1.3432
    9bbb     C3  268   6.922   8.993   7.208  0.0829  0.0964 -0.1820
    9bbb     H5  269   7.006   9.041   7.260  2.4812 -0.8636 -3.0214
    9bbb     H6  270   6.969   8.896   7.190  0.9695  0.6732 -1.0198
    9bbb     C4  271   6.796   8.981   7.297 -0.0323 -0.0875  0.3279
    9bbb     H7  272   6.731   8.907   7.248 -1.0854  0.9889  0.0795
    9bbb     H8  273   6.745   9.078   7.303 -0.7075 -0.1722 -2.9548
    9bbb     C5  274   6.835   8.872   6.937 -0.9618  0.1212 -0.4350
    9bbb     H9  275   6.851   8.799   7.017 -2.2713 -1.8174 -1.9030
    9bbb    H10  276   6.925   8.876   6.875 -0.3098 -0.4463  0.4522
    9bbb     C6  277   7.055   9.176   6.898 -0.5115  0.2625  0.1500
    9bbb    H11  278   6.979   9.255   6.905  1.2781  1.9668  0.7250
    9bbb    H12  279   7.032   9.113   6.810  2.7897 -1.1402  0.2103
    9bbb     C7  280   6.820   8.943   7.447 -0.4488  0.5861 -0.4869
    9bbb    H13  281   6.729   8.905   7.495 -1.1095 -0.5179 -2.5447
    9bbb    H14  282   6.867   9.030   7.496 -1.1522  0.7973 -0.1844
    9bbb     C8  283   7.200   9.233   6.863  0.6047 -0.0862  0.2113
    9bbb    H15  284   7.254   9.279   6.947 -1.0088 -0.9805  1.7545
    9bbb    H16  285   7.183   9.314   6.790 -0.1210 -0.0510  0.4229
    9bbb     C9  286   6.717   8.811   6.859 -0.7350  0.0933  0.0013
    9bbb    H17  287   6.726   8.703   6.838 -2.7066  0.4845 -3.2079
    9bbb    H18  288   6.719   8.854   6.759 -0.0323  0.7728  0.3078
    9bbb     O1  289   6.907   8.837   7.445 -0.3249  0.0209 -0.1784
   10bbb     N1  290   7.875   8.539   8.054 -0.2632 -0.2349 -0.2243
   10bbb     C1  291   7.777   8.495   8.159 -0.0709 -0.0009  0.0695
   10bbb     H1  292   7.792   8.553   8.251 -0.4713 -0.7218  0.5941
   10bbb     H2  293   7.810   8.394   8.188  0.6967  0.0114 -0.7539
   10bbb     C2  294   7.860   8.677   8.027  0.4732 -0.5263  0.3883
   10bbb     H3  295   7.761   8.700   7.985  1.5843 -0.7170 -2.4617
   10bbb     H4  296   7.937   8.699   7.952  0.1629 -1.9606 -0.3769
   10bbb     C3  297   7.870   8.473   7.921 -0.2533 -0.2132  0.2442
   10bbb     H5  298   7.948   8.512   7.856 -1.0462 -0.9299 -1.1451
   10bbb     H6  299   7.772   8.486   7.874  0.1684 -1.3997 -0.9840
   10bbb     C4  300   7.875   8.319   7.929  0.5542 -0.2284  0.6239
   10bbb     H7  301   7.799   8.291   8.003  1.7779  1.2574  2.4675
   10bbb     H8  302   7.967   8.289   7.980  0.7683  1.3216  1.1630
   10bbb     C5  303   7.622   8.497   8.133 -0.2442 -0.0071 -0.3222
   10bbb     H9  304   7.598   8.467   8.030  0.2252  0.3664 -0.5392
   10bbb    H10  305   7.577   8.597   8.136  0.0954  0.0872  2.1245
   10bbb     C6  306   7.891   8.770   8.141 -0.1737  1.1451 -0.4856
   10bbb    H11  307   7.978   8.726   8.192  0.4096  1.5581 -1.1224
   10bbb    H12  308   7.811   8.759   8.216 -0.3925  1.0841 -0.7296
   10bbb     C7  309   7.853   8.249   7.793 -0.0198  0.4838 -0.1297
   10bbb    H13  310   7.846   8.143   7.820 -1.0060  0.7412  0.6705
   10bbb    H14  311   7.944   8.253   7.732 -0.3816  0.9070 -0.6438
   10bbb     C8  312   7.915   8.916   8.097 -0.2343 -0.3148 -0.2707
   10bbb    H15  313   7.987   8.911   8.014  1.4725  0.1864  1.1450
   10bbb    H16  314   7.956   8.963   8.187 -1.6801 -1.5379  1.0437
   10bbb     C9  315   7.549   8.409   8.235  0.5637 -0.1612  0.2497
   10bbb    H17  316   7.440   8.418   8.225  0.0676 -1.9298  3.5641
   10bbb    H18  317   7.570   8.439   8.338  2.1122 -0.7525  0.1140
   10bbb     O1  318   7.730   8.293   7.726  0.0270 -0.9468  0.6864
   11bbb     N1  319   7.054   7.763   7.066 -0.2457  0.0714 -0.3813
   11bbb     C1  320   7.193   7.729   7.039  0.1044 -0.1112  0.0299
   11bbb     H1  321   7.248   7.711   7.132  1.1595 -0.1989 -0.6027
   11bbb     H2  322   7.233   7.824   7.003 -1.0227  1.0812  1.8357
   11bbb     C2  323   6.994   7.664   7.159 -0.1552 -0.5366  0.7031
   11bbb     H3  324   7.025   7.681   7.262  0.5634 -2.3767  0.8164
   11bbb     H4  325   7.035   7.564   7.137  1.2072  0.4420 -1.3973
   11bbb     C3  326   7.029   7.907   7.094 -0.3418  0.1390  0.1728
   11bbb     H5  327   6.922   7.917   7.069 -0.8025 -0.3196  1.9529
   11bbb     H6  328   7.090   7.968   7.026 -0.5848 -0.0698 -0.2335
   11bbb     C4  329   7.061   7.950   7.240  0.2554  0.2118 -0.1160
   11bbb     H7  330   7.150   7.894   7.267 -0.0270 -0.0199  0.3360
   11bbb     H8  331   6.974   7.922   7.300 -0.3459  1.2405 -0.4766
   11bbb     C5  332   7.207   7.614   6.937  0.5139  0.3421 -0.7892
   11bbb     H9  333   7.157   7.663   6.852 -2.4273  0.3439  0.8675
   11bbb    H10  334   7.147   7.526   6.965 -0.5770  1.2561 -0.1683
   11bbb     C6  335   6.839   7.666   7.166  0.4639  0.2384  0.0549
   11bbb    H11  336   6.797   7.647   7.067  0.5704 -2.8343  0.5388
   11bbb    H12  337   6.806   7.765   7.198 -0.2441 -0.8440  2.8104
   11bbb     C7  338   7.094   8.099   7.250 -0.5044  1.1290  0.5956
   11bbb    H13  339   7.006   8.157   7.220 -0.6749  0.2912 -0.5862
   11bbb    H14  340   7.183   8.116   7.188 -1.3145 -2.5493 -1.7876
   11bbb     C8  341   6.795   7.557   7.263  0.7085  0.4915  0.4642
   11bbb    H15  342   6.837   7.459   7.238 -2.8571 -0.7939 -0.6904
   11bbb    H16  343   6.688   7.545   7.243  0.4106  0.9772  1.7575
   11bbb     C9  344   7.350   7.577   6.910 -0.3950 -0.1081 -0.0702
   11bbb    H17  345   7.395   7.669   6.872  1.6888 -0.6002  1.1548
   11bbb    H18  346   7.353   7.509   6.823 -0.2052 -0.0496 -0.1090
   11bbb     O1  347   7.119   8.120   7.393  0.1577 -0.2132  0.8206
   12bbb     N1  348   6.927   8.912   6.452 -0.4522 -0.0574  0.1819
   12bbb     C1  349   6.788   8.953   6.453  0.5441  0.9884 -0.5558
   12bbb     H1  350   6.772   9.034   6.381 -1.5180 -0.3606 -1.6497
   12bbb     H2  351   6.744   8.991   6.546 -0.7247 -0.0837 -0.7101
   12bbb     C2  352   7.024   9.015   6.419 -0.1505 -0.1090 -0.2454
   12bbb     H3  353   6.985   9.079   6.339 -1.0867 -1.7354 -1.1180
   12bbb     H4  354   7.114   8.969   6.378 -1.0391  0.3659 -2.8172
   12bbb     C3  355   6.973   8.825   6.561 -0.1751  0.0307 -0.0308
   12bbb     H5  356   6.902   8.743   6.578 -1.6434  1.4456  0.8300
   12bbb     H6  357   6.956   8.881   6.654 -1.7507  1.6016 -1.2391
   12bbb     C4  358   7.120   8.773   6.560 -0.3551  0.0292 -0.0285
   12bbb     H7  359   7.187   8.857   6.579 -0.6187  0.4308 -0.8493
   12bbb     H8  360   7.144   8.717   6.468  1.6210  0.6638  0.0739
   12bbb     C5  361   6.701   8.834   6.417 -0.0358 -0.8265 -0.0373
   12bbb     H9  362   6.704   8.764   6.501 -1.6111 -0.7463  0.1088
   12bbb    H10  363   6.739   8.785   6.327 -1.5493  0.5718 -1.4742
   12bbb     C6  364   7.061   9.112   6.537  0.6830  0.4036 -0.3191
   12bbb    H11  365   7.135   9.070   6.606 -0.1723  1.2826  1.1549
   12bbb    H12  366   6.972   9.116   6.601  1.5576 -0.7610  0.9968
   12bbb     C7  367   7.138   8.676   6.676 -0.6315 -1.0355 -0.7134
   12bbb    H13  368   7.069   8.593   6.656 -2.0524  0.3676 -1.7578
   12bbb    H14  369   7.118   8.720   6.774  1.5721  2.5422 -1.7709
   12bbb     C8  370   7.103   9.257   6.503 -0.5885 -0.2252 -0.3231
   12bbb    H15  371   7.122   9.309   6.598 -2.3465  1.6622 -0.9536
   12bbb    H16  372   7.018   9.310   6.458 -0.1899  0.0128 -0.8029
   12bbb     C9  373   6.551   8.880   6.397  0.4578  0.4848  0.3120
   12bbb    H17  374   6.498   8.807   6.334 -0.9660  1.3958  0.4171
   12bbb    H18  375   6.548   8.976   6.345  3.3231  0.2236 -0.4081
   12bbb     O1  376   7.275   8.624   6.672 -0.3110 -0.0459  0.2125
   13bbb     N1  377   7.951   7.983   7.345 -1.0108  0.5728  0.2857
   13bbb     C1  378   7.951   7.889   7.233  0.1754 -0.1079  0.9211
   13bbb     H1  379   8.053   7.858   7.208 -0.3210 -2.0043  1.1662
   13bbb     H2  380   7.904   7.929   7.142 -3.6157 -0.7136  2.5215
   13bbb     C2  381   8.037   7.933   7.454 -0.6190 -0.3131  0.6412
   13bbb     H3  382   8.138   7.970   7.437 -1.3082  1.3830  0.0787
   13bbb     H4  383   8.040   7.824   7.451 -0.6089 -0.2887 -0.9533
   13bbb     C3  384   7.971   8.124   7.291 -0.2016 -0.1399  0.2367
   13bbb     H5  385   8.052   8.112   7.217 -1.8327 -2.5318 -1.2094
   13bbb     H6  386   8.009   8.193   7.367  0.4726 -0.1567 -0.0792
   13bbb     C4  387   7.853   8.187   7.214 -0.6384  0.3266  0.7495
   13bbb     H7  388   7.756   8.145   7.243 -2.0927 -0.3697 -4.6331
   13bbb     H8  389   7.864   8.184   7.105  1.0361  0.3795  0.9040
   13bbb     C5  390   7.860   7.769   7.257  0.2995  0.7097  0.8234
   13bbb     H9  391   7.888   7.712   7.347  0.2538 -1.5613 -0.5606
   13bbb    H10  392   7.890   7.703   7.174  0.2036  0.8566  0.6738
   13bbb     C6  393   8.002   7.991   7.592 -0.1813 -1.3022  0.0058
   13bbb    H11  394   7.893   7.980   7.606  0.1999 -3.1235  1.9246
   13bbb    H12  395   8.030   8.097   7.590 -1.0746 -1.0320  1.2516
   13bbb     C7  396   7.851   8.337   7.251 -0.0841 -0.3946  0.2590
   13bbb    H13  397   7.941   8.391   7.219 -0.0509  0.1027  1.1537
   13bbb    H14  398   7.851   8.341   7.361 -0.1055  3.3317  0.1766
   13bbb     C8  399   8.070   7.910   7.710  0.2128  0.5456  0.3694
   13bbb    H15  400   8.177   7.900   7.687  0.4044  0.1863  1.3744
   13bbb    H16  401   8.026   7.810   7.713  0.1967  0.5231 -0.4916
   13bbb     C9  402   7.709   7.805   7.258  0.5313 -0.0260 -0.1400
   13bbb    H17  403   7.711   7.890   7.328  3.3732  1.1095 -1.5201
   13bbb    H18  404   7.646   7.723   7.292  2.0569 -0.6924  1.1583
   13bbb     O1  405   7.722   8.393   7.202 -0.4539  0.8007 -0.1504
   14bbb     N1  406   6.536   7.831   8.119 -0.3314 -0.1200  0.0037
   14bbb     C1  407   6.629   7.867   8.228  0.0477  0.6424  0.6034
   14bbb     H1  408   6.581   7.826   8.317 -0.1078 -2.6587 -0.9048
   14bbb     H2  409   6.638   7.976   8.238  0.1336  0.7725 -0.7177
   14bbb     C2  410   6.397   7.873   8.154  0.8800  0.6953  0.3728
   14bbb     H3  411   6.363   7.830   8.250 -3.2121 -0.1025 -1.3351
   14bbb     H4  412   6.325   7.833   8.082  0.3481 -1.4311  2.0142
   14bbb     C3  413   6.579   7.840   7.976 -0.0328  0.5436 -0.1636
   14bbb     H5  414   6.681   7.804   7.959 -0.5477 -0.6365 -0.8030
   14bbb     H6  415   6.577   7.946   7.947  1.2929  0.2353 -1.4466
   14bbb     C4  416   6.499   7.760   7.877  0.4435  0.0520  0.0369
   14bbb     H7  417   6.543   7.788   7.780 -0.6373  0.7374 -0.2639
   14bbb     H8  418   6.400   7.806   7.876 -0.2425 -1.3445  2.1374
   14bbb     C5  419   6.771   7.810   8.205 -0.0193  0.7790  0.3248
   14bbb     H9  420   6.837   7.836   8.289  0.5442  1.9820 -0.4830
   14bbb    H10  421   6.819   7.853   8.116 -0.4859 -0.2832 -0.4516
   14bbb     C6  422   6.387   8.029   8.149 -0.3463 -0.6483  0.2926
   14bbb    H11  423   6.437   8.059   8.056 -1.6419 -1.2461 -0.6152
   14bbb    H12  424   6.439   8.078   8.232  0.0577  0.6789 -0.7348
   14bbb     C7  425   6.487   7.607   7.899  0.1194 -0.5285  0.1577
   14bbb    H13  426   6.423   7.595   7.987 -4.1224  0.0319 -2.7002
   14bbb    H14  427   6.582   7.558   7.921  0.5127  0.3420  0.4287
   14bbb     C8  428   6.236   8.072   8.152  0.1740 -0.8507  0.1891
   14bbb    H15  429   6.230   8.182   8.160  1.7470 -0.7527  0.2345
   14bbb    H16  430   6.206   8.033   8.250  0.0351  1.1727  0.9887
   14bbb     C9  431   6.774   7.659   8.188  0.1742  0.1291  0.2964
   14bbb    H17  432   6.707   7.640   8.103  1.0950  1.0237 -0.6339
   14bbb    H18  433   6.722   7.609   8.271 -2.0840 -0.3051 -1.3193
   14bbb     O1  434   6.423   7.547   7.783  0.1353 -0.4650 -0.0594
   15bbb     N1  435   5.876   6.776   7.063  0.2461  0.3018  0.2141
   15bbb     C1  436   5.986   6.681   7.087 -0.1781  0.0113  0.5989
   15bbb     H1  437   5.995   6.661   7.195  1.2186 -1.3814  0.2431
   15bbb     H2  438   6.079   6.733   7.060 -0.9124  1.2069  0.3389
   15bbb     C2  439   5.869   6.835   6.921 -0.3178 -0.0875 -0.3417
   15bbb     H3  440   5.879   6.746   6.857  1.7182 -1.4033  1.7323
   15bbb     H4  441   5.954   6.903   6.908  0.7405 -0.4359  4.1012
   15bbb     C3  442   5.878   6.880   7.163  0.4058 -0.5601  0.1156
   15bbb     H5  443   5.825   6.973   7.140 -1.4123 -1.2693  1.3655
   15bbb     H6  444   5.983   6.908   7.178  0.4685 -0.4944 -0.4253
   15bbb     C4  445   5.806   6.824   7.298  1.0983 -0.2249  0.2049
   15bbb     H7  446   5.825   6.721   7.329 -1.5656  0.0132  2.8293
   15bbb     H8  447   5.698   6.826   7.279  1.2342  2.1401 -0.4892
   15bbb     C5  448   5.993   6.544   7.009  0.0423 -0.5351 -0.0766
   15bbb     H9  449   6.067   6.542   6.928  1.8231 -0.0184  1.4812
   15bbb    H10  450   5.897   6.535   6.957 -0.2144  0.6396  0.1739
   15bbb     C6  451   5.738   6.915   6.894 -0.7467 -0.6037  0.5197
   15bbb    H11  452   5.728   6.920   6.785 -1.5097  0.6954  0.6316
   15bbb    H12  453   5.749   7.018   6.931 -0.7552 -0.1076 -0.8532
   15bbb     C7  454   5.829   6.918   7.420 -0.2553 -0.3292  0.1053
   15bbb    H13  455   5.782   6.863   7.503  0.3016  0.0013  0.6382
   15bbb    H14  456   5.771   7.008   7.397 -0.2957 -0.1994  0.6977
   15bbb     C8  457   5.614   6.845   6.944  0.1128 -0.1561  0.7401
   15bbb    H15  458   5.630   6.817   7.049  0.7807 -3.4669 -0.1793
   15bbb    H16  459   5.603   6.748   6.894 -1.2825 -0.5121  1.7029
   15bbb     C9  460   6.001   6.425   7.094  0.6593 -0.1117 -0.0837
   15bbb    H17  461   5.905   6.410   7.145 -0.4562  1.4712 -1.6857
   15bbb    H18  462   6.072   6.456   7.172 -1.2885  3.6081  0.3069
   15bbb     O1  463   5.968   6.933   7.447  0.2370  0.4431  0.0922
   16bbb     N1  464   6.368   8.742   7.903  0.3850 -0.5860  0.0340
   16bbb     C1  465   6.457   8.651   7.958 -0.1540  0.2551  0.3810
   16bbb     H1  466   6.472   8.665   8.066 -1.6951 -1.9675  0.9419
   16bbb     H2  467   6.559   8.680   7.930  0.9782 -2.1230  1.7942
   16bbb     C2  468   6.258   8.778   7.993  0.0524 -0.0340  0.1497
   16bbb     H3  469   6.301   8.785   8.094 -1.0649  0.4741  0.5915
   16bbb     H4  470   6.195   8.689   8.004 -0.0884  0.0708  0.1781
   16bbb     C3  471   6.331   8.739   7.762 -0.1495  0.3747  0.0898
   16bbb     H5  472   6.250   8.810   7.742 -2.0087 -1.2009  1.6571
   16bbb     H6  473   6.299   8.640   7.727 -0.0991  0.7341 -0.9781
   16bbb     C4  474   6.447   8.792   7.667  0.2994 -0.0047  0.2042
   16bbb     H7  475   6.532   8.724   7.657  1.0180  0.9862 -0.4602
   16bbb     H8  476   6.491   8.881   7.713 -1.3015  1.7307 -1.5397
   16bbb     C5  477   6.424   8.500   7.952  0.3581 -0.5049  0.0458
   16bbb     H9  478   6.437   8.463   7.850  4.2913  1.4632 -0.2505
   16bbb    H10  479   6.322   8.475   7.984 -0.7336 -1.1680 -3.7648
   16bbb     C6  480   6.171   8.904   7.959 -0.6396 -0.2787 -0.7809
   16bbb    H11  481   6.102   8.919   8.043 -0.6797 -0.8088 -0.7207
   16bbb    H12  482   6.110   8.898   7.868 -1.2620 -0.3519 -0.3554
   16bbb     C7  483   6.393   8.814   7.529  0.1484 -0.4225 -0.7324
   16bbb    H13  484   6.471   8.857   7.465 -1.4407  3.1512 -0.3521
   16bbb    H14  485   6.310   8.884   7.518 -0.5948 -1.0389  0.8088
   16bbb     C8  486   6.255   9.036   7.927  0.0974  0.7911 -0.3351
   16bbb    H15  487   6.178   9.108   7.897  0.0643  0.2806 -1.5151
   16bbb    H16  488   6.330   9.009   7.852 -1.0666 -1.3040 -0.8001
   16bbb     C9  489   6.528   8.407   8.030 -0.7610 -0.3418 -0.1272
   16bbb    H17  490   6.627   8.421   7.985 -0.6396 -2.5561 -0.6058
   16bbb    H18  491   6.496   8.305   8.005  1.9188 -1.4672  0.9649
   16bbb     O1  492   6.359   8.689   7.474 -0.7023  0.3053  0.8964
   17bbb     N1  493   5.986   7.569   6.862 -0.1566 -0.0411 -0.2404
   17bbb     C1  494   5.973   7.539   6.712  0.3326  0.4042 -0.2713
   17bbb     H1  495   5.887   7.593   6.670 -0.5889  0.0613  1.1435
   17bbb     H2  496   5.959   7.433   6.691 -0.0235  0.3806  0.0922
   17bbb     C2  497   5.961   7.460   6.963 -0.2834 -0.1646  0.4522
   17bbb     H3  498   5.855   7.438   6.977 -0.7406  0.8454 -1.1628
   17bbb     H4  499   5.998   7.493   7.061  0.2103 -0.2885  0.3108
   17bbb     C3  500   5.941   7.705   6.895 -0.2688  0.9717 -0.5142
   17bbb     H5  501   5.835   7.698   6.924 -0.2494  1.1369 -0.4035
   17bbb     H6  502   5.952   7.767   6.806 -0.5601  1.3763 -0.2719
   17bbb     C4  503   6.012   7.774   7.013 -0.1715 -0.2285  0.2869
   17bbb     H7  504   6.117   7.742   7.010 -0.1916 -0.4535  1.7133
   17bbb     H8  505   5.974   7.728   7.105 -1.1081  2.2875  1.1980
   17bbb     C5  506   6.094   7.582   6.631  0.0712 -0.7471  0.1704
   17bbb     H9  507   6.110   7.688   6.655 -0.8916 -0.2888 -1.1569
   17bbb    H10  508   6.073   7.584   6.524 -1.3817 -1.6206  0.4200
   17bbb     C6  509   6.042   7.330   6.943 -0.3569 -0.5440 -0.2951
   17bbb    H11  510   6.144   7.355   6.910 -1.5011 -0.2188 -3.7472
   17bbb    H12  511   6.003   7.271   6.859 -1.5267  0.1137 -0.2259
   17bbb     C7  512   6.002   7.922   7.014 -0.4740 -0.4301  0.1674
   17bbb    H13  513   5.908   7.958   6.971  0.1052 -1.8821 -2.3803
   17bbb    H14  514   6.083   7.963   6.954  0.1568 -1.3911  0.3528
   17bbb     C8  515   6.052   7.245   7.068 -0.5110  0.1210 -0.2159
   17bbb    H15  516   6.145   7.268   7.122 -0.3894  0.0900 -0.4117
   17bbb    H16  517   6.068   7.141   7.036 -2.7853 -0.5159  0.6255
   17bbb     C9  518   6.228   7.512   6.672  0.0799  0.2562 -0.1661
   17bbb    H17  519   6.217   7.403   6.676  0.9713  0.2418  2.6567
   17bbb    H18  520   6.239   7.534   6.779  0.8858 -0.4954 -0.0901
   17bbb     O1  521   6.029   7.961   7.153 -0.4318 -0.4565  0.0568
   18bbb     N1  522   5.639   8.550   8.643  1.0098 -0.9638 -0.5729
   18bbb     C1  523   5.655   8.419   8.706 -0.8620 -0.1230  0.0670
   18bbb     H1  524   5.570   8.403   8.773 -1.0019  1.0985  0.1831
   18bbb     H2  525   5.744   8.427   8.769 -1.1978  1.9835  0.2914
   18bbb     C2  526   5.591   8.663   8.727  0.1782 -0.4050 -0.5710
   18bbb     H3  527   5.580   8.747   8.658  0.9955 -0.2871 -0.5621
   18bbb     H4  528   5.673   8.699   8.790 -0.7518  2.0205 -0.7099
   18bbb     C3  529   5.729   8.586   8.534 -0.1901 -0.2775  0.1106
   18bbb     H5  530   5.686   8.672   8.482 -2.4507  0.5056  3.1097
   18bbb     H6  531   5.733   8.506   8.459  0.0616  0.5124 -0.7255
   18bbb     C4  532   5.872   8.622   8.585  0.0583  0.5708 -0.6950
   18bbb     H7  533   5.916   8.530   8.625  1.5496  2.5908  2.5405
   18bbb     H8  534   5.853   8.689   8.670  0.2697  0.3942 -0.5102
   18bbb     C5  535   5.652   8.290   8.616  0.1419 -0.1213 -0.3286
   18bbb     H9  536   5.666   8.209   8.688 -0.1332 -0.7341 -0.9617
   18bbb    H10  537   5.736   8.289   8.546  0.4704  2.0649 -0.0200
   18bbb     C6  538   5.454   8.635   8.797  0.1363  0.1651  0.4256
   18bbb    H11  539   5.425   8.739   8.818 -2.2362  0.2986 -3.0268
   18bbb    H12  540   5.468   8.580   8.890 -1.3198 -1.8161 -0.4933
   18bbb     C7  541   5.960   8.689   8.477 -1.7351  0.0895  0.8374
   18bbb    H13  542   5.902   8.768   8.428 -0.0721  0.1494 -1.1355
   18bbb    H14  543   5.996   8.621   8.398  0.8744  1.9814  0.3206
   18bbb     C8  544   5.352   8.574   8.700  1.2396 -0.1808  0.2018
   18bbb    H15  545   5.369   8.466   8.708 -0.0582 -0.5853 -1.9299
   18bbb    H16  546   5.379   8.618   8.603 -1.8344  2.5255  0.4568
   18bbb     C9  547   5.516   8.280   8.531  0.1262  0.0258  0.3586
   18bbb    H17  548   5.491   8.384   8.505 -0.9865  0.2603  2.2901
   18bbb    H18  549   5.428   8.250   8.589  1.6748 -2.4719  1.5207
   18bbb     O1  550   6.076   8.738   8.543 -0.0056  0.5303  0.3572
   19bbb     N1  551   6.132   8.545   8.948  0.8086 -0.7525 -0.1756
   19bbb     C1  552   6.031   8.642   8.999  0.1838 -0.0399  0.6468
   19bbb     H1  553   6.038   8.737   8.945 -0.6667 -0.3666 -0.0401
   19bbb     H2  554   6.057   8.651   9.106  3.0990 -0.5831  0.0364
   19bbb     C2  555   6.095   8.488   8.822  0.5827 -0.1474  0.3724
   19bbb     H3  556   6.077   8.571   8.753  1.2784  0.5368  1.0018
   19bbb     H4  557   5.999   8.436   8.832  0.9340 -0.3753  2.9481
   19bbb     C3  558   6.266   8.614   8.944  0.1108 -0.6480 -0.0625
   19bbb     H5  559   6.275   8.672   8.852  0.3666 -0.6559 -0.0424
   19bbb     H6  560   6.341   8.535   8.931  0.0570 -0.6212 -0.5350
   19bbb     C4  561   6.312   8.706   9.061 -0.6118  0.9342 -0.5450
   19bbb     H7  562   6.325   8.648   9.154  1.8238  2.0083 -0.1673
   19bbb     H8  563   6.234   8.782   9.073 -2.1640 -0.4074 -1.8914
   19bbb     C5  564   5.881   8.583   8.992 -0.0899 -0.9684  0.2744
   19bbb     H9  565   5.854   8.563   8.887 -0.4662 -0.7837  0.3373
   19bbb    H10  566   5.803   8.656   9.019 -0.9160 -1.8046  0.1606
   19bbb     C6  567   6.199   8.398   8.759  0.0167  0.1849 -0.0168
   19bbb    H11  568   6.240   8.318   8.822 -1.4061 -0.0887  0.5827
   19bbb    H12  569   6.283   8.461   8.725  1.9634 -0.7673  2.8561
   19bbb     C7  570   6.445   8.773   9.039  0.3935 -0.0908  0.2004
   19bbb    H13  571   6.518   8.697   9.010  0.5411 -0.0996  0.5979
   19bbb    H14  572   6.481   8.822   9.130 -1.7913 -0.3408  1.2150
   19bbb     C8  573   6.139   8.325   8.638 -0.2090  0.1529 -0.0046
   19bbb    H15  574   6.217   8.275   8.580  0.1435  1.8137 -0.9875
   19bbb    H16  575   6.110   8.400   8.563 -2.7850 -0.4921  0.2758
   19bbb     C9  576   5.863   8.454   9.074 -0.3230  0.2109  0.5340
   19bbb    H17  577   5.881   8.477   9.180  1.8223  1.8639 -0.1441
   19bbb    H18  578   5.927   8.373   9.037 -0.5379  0.1081  0.3871
   19bbb     O1  579   6.420   8.884   8.945  0.0275  0.4278 -0.6519
   20bbb     N1  580   7.653   9.015   6.510  0.1259  0.7089 -0.8441
   20bbb     C1  581   7.608   8.881   6.464  0.8903  0.6686  1.0959
   20bbb     H1  582   7.571   8.817   6.545 -2.9159  3.2738  1.5228
   20bbb     H2  583   7.696   8.833   6.418 -0.2247  1.4969 -2.0376
   20bbb     C2  584   7.758   9.001   6.616 -0.4096 -0.0462 -0.1417
   20bbb     H3  585   7.727   8.946   6.705 -0.0224 -1.8253 -1.0838
   20bbb     H4  586   7.772   9.107   6.644  0.7985 -0.5658  1.2871
   20bbb     C3  587   7.549   9.123   6.538 -0.2937  0.0063  0.4680
   20bbb     H5  588   7.484   9.145   6.453  2.2056 -0.6199 -1.6816
   20bbb     H6  589   7.601   9.214   6.572  1.4043 -0.7407 -0.0407
   20bbb     C4  590   7.457   9.072   6.647  0.2239 -0.3312 -0.3588
   20bbb     H7  591   7.514   9.018   6.723  0.5676  0.6470  0.0831
   20bbb     H8  592   7.386   9.002   6.602 -0.5391  0.7744 -0.9051
   20bbb     C5  593   7.501   8.878   6.353 -0.0603 -0.6017 -0.4173
   20bbb     H9  594   7.522   8.959   6.282 -2.2834  0.9173  0.5659
   20bbb    H10  595   7.407   8.899   6.405 -1.2497 -3.4685 -1.3204
   20bbb     C6  596   7.887   8.936   6.572  0.1458 -0.4157 -0.1973
   20bbb    H11  597   7.860   8.835   6.537  0.5219 -0.4818 -0.3024
   20bbb    H12  598   7.950   8.922   6.660 -1.1070  0.5582  0.8758
   20bbb     C7  599   7.381   9.184   6.732 -0.4307  0.4711  0.7779
   20bbb    H13  600   7.345   9.256   6.658 -2.0179 -1.0028  0.0678
   20bbb    H14  601   7.448   9.235   6.802  1.8675 -0.9928 -0.3023
   20bbb     C8  602   7.962   9.016   6.459 -0.3075 -0.4934 -1.0451
   20bbb    H15  603   7.992   9.115   6.495 -0.6296 -0.1154 -1.8379
   20bbb    H16  604   7.897   9.034   6.373  1.5912  1.3861 -2.1277
   20bbb     C9  605   7.509   8.741   6.284 -0.0685  1.1112  0.2627
   20bbb    H17  606   7.479   8.659   6.351  0.3613 -0.4437 -1.4233
   20bbb    H18  607   7.614   8.728   6.257 -0.1749 -3.0755  1.5390
   20bbb     O1  608   7.272   9.128   6.798  0.5633 -0.5597 -0.2887
   21bbb     N1  609   6.170   9.005   6.973 -0.1591 -0.3824  0.5206
   21bbb     C1  610   6.160   9.017   7.121 -0.2077 -0.1825 -0.2575
   21bbb     H1  611   6.181   8.918   7.162  2.1849  0.2444 -0.3872
   21bbb     H2  612   6.052   9.024   7.141 -0.4013 -1.2322 -0.9177
   21bbb     C2  613   6.109   9.124   6.908  0.3063 -0.1250  0.0762
   21bbb     H3  614   6.187   9.200   6.919  1.2713 -0.6621 -2.6960
   21bbb     H4  615   6.018   9.154   6.961  1.0724 -0.8876  1.8835
   21bbb     C3  616   6.307   8.960   6.922 -0.4458 -0.6224  0.6734
   21bbb     H5  617   6.384   9.025   6.965 -1.1986  0.6153  0.1911
   21bbb     H6  618   6.314   8.974   6.813 -0.3107 -0.4634  0.7030
   21bbb     C4  619   6.354   8.809   6.944 -0.1993  0.0577 -0.2080
   21bbb     H7  620   6.278   8.733   6.924  0.2781 -0.6305  0.6028
   21bbb     H8  621   6.372   8.798   7.052 -1.2070  0.0901 -0.0335
   21bbb     C5  622   6.236   9.132   7.185  0.1378 -0.0464  0.1617
   21bbb     H9  623   6.189   9.228   7.158  0.4245 -0.0615 -0.3989
   21bbb    H10  624   6.334   9.140   7.135 -0.1443  0.2742 -0.3472
   21bbb     C6  625   6.061   9.105   6.757 -0.5921 -0.1496  0.2803
   21bbb    H11  626   6.148   9.073   6.698 -2.3402 -1.1774 -1.8141
   21bbb    H12  627   6.019   9.195   6.711 -0.6579 -0.6698 -0.6963
   21bbb     C7  628   6.481   8.778   6.864 -0.1211 -0.3434  0.3222
   21bbb    H13  629   6.481   8.818   6.762 -0.1039 -1.3742 -0.0878
   21bbb    H14  630   6.498   8.670   6.861 -0.8309 -0.4322 -0.7079
   21bbb     C8  631   5.945   8.999   6.727 -0.4028 -0.2923  0.3935
   21bbb    H15  632   5.860   9.033   6.788  0.0379  1.9918 -0.2133
   21bbb    H16  633   5.979   8.903   6.767 -0.8916 -0.9258 -0.7026
   21bbb     C9  634   6.245   9.123   7.340  0.8812  0.4360 -0.0741
   21bbb    H17  635   6.316   9.189   7.390  1.1890  1.0698 -1.3277
   21bbb    H18  636   6.288   9.023   7.356 -0.2325  0.1602  1.2315
   21bbb     O1  637   6.587   8.843   6.927 -0.0155 -0.1274 -0.3002
   22bbb     N1  638   7.825   8.975   7.644 -0.3017  0.4485  0.2864
   22bbb     C1  639   7.779   8.851   7.577 -1.1556 -0.0260  0.5404
   22bbb     H1  640   7.823   8.844   7.477  1.2050  0.0539  1.5338
   22bbb     H2  641   7.672   8.856   7.556 -1.0637  2.4520  0.5165
   22bbb     C2  642   7.826   9.099   7.560 -0.2306 -0.0274  0.1294
   22bbb     H3  643   7.903   9.162   7.607  1.1433 -0.8300 -1.0436
   22bbb     H4  644   7.727   9.147   7.563 -0.8597 -1.2172 -1.3177
   22bbb     C3  645   7.772   8.995   7.780 -0.3473  0.1958 -0.1832
   22bbb     H5  646   7.768   8.903   7.838 -2.2918 -0.8250 -1.8643
   22bbb     H6  647   7.666   9.024   7.773 -0.4693 -0.1057  0.4023
   22bbb     C4  648   7.848   9.098   7.860  0.0963 -0.0317  0.2049
   22bbb     H7  649   7.835   9.199   7.820  1.8794  0.0564 -0.2369
   22bbb     H8  650   7.954   9.067   7.859  0.2526  0.4317 -2.0409
   22bbb     C5  651   7.817   8.721   7.647 -0.1966  0.5124  0.5851
   22bbb     H9  652   7.718   8.675   7.658  0.8952 -2.2761 -0.9909
   22bbb    H10  653   7.857   8.741   7.747  3.7290  0.2837 -0.8735
   22bbb     C6  654   7.866   9.080   7.408 -0.2090 -0.4534 -0.2752
   22bbb    H11  655   7.855   9.178   7.359  2.1652  0.2086  0.4201
   22bbb    H12  656   7.796   9.018   7.351  1.0914 -1.9046 -0.3132
   22bbb     C7  657   7.781   9.108   8.000 -0.6919  0.6854 -0.4500
   22bbb    H13  658   7.677   9.144   7.997 -0.7410  0.5312 -0.6270
   22bbb    H14  659   7.831   9.175   8.071  1.4104 -1.2420 -0.0685
   22bbb     C8  660   8.012   9.022   7.396 -0.1187  0.2829 -0.0698
   22bbb    H15  661   8.010   8.922   7.442 -0.1144 -0.3856 -1.4918
   22bbb    H16  662   8.078   9.091   7.449 -1.0359  0.1463  1.2593
   22bbb     C9  663   7.913   8.623   7.582  0.1876  0.1604 -0.1388
   22bbb    H17  664   7.901   8.630   7.473 -0.4066  4.7563  0.1093
   22bbb    H18  665   7.881   8.524   7.616  2.0054  0.8305  3.7814
   22bbb     O1  666   7.789   8.971   8.051 -0.0490  0.2571  0.1324
   23bbb     N1  667   7.534   7.882   7.893 -0.2293 -0.5062 -0.6197
   23bbb     C1  668   7.440   7.848   7.777  0.0866  0.0544 -0.2582
   23bbb     H1  669   7.340   7.880   7.806  0.3610 -0.8409  1.7103
   23bbb     H2  670   7.442   7.740   7.760  0.6863  0.2574 -1.5846
   23bbb     C2  671   7.680   7.853   7.868 -0.2900  0.4222  0.5407
   23bbb     H3  672   7.726   7.855   7.967  1.5561  0.9842 -0.3001
   23bbb     H4  673   7.733   7.932   7.813  1.2976 -0.3477  0.9186
   23bbb     C3  674   7.502   8.019   7.943 -0.4454 -0.3309  0.1010
   23bbb     H5  675   7.397   8.032   7.973 -0.1481 -0.8969  1.4493
   23bbb     H6  676   7.510   8.088   7.858  1.6716 -1.3002 -0.5180
   23bbb     C4  677   7.591   8.079   8.056 -0.1485  0.2860 -0.1491
   23bbb     H7  678   7.696   8.079   8.024  0.1169 -0.5655  0.7070
   23bbb     H8  679   7.571   8.009   8.138  0.8941 -0.7630 -0.7972
   23bbb     C5  680   7.472   7.913   7.641  0.1681 -0.4608 -0.5843
   23bbb     H9  681   7.577   7.902   7.612 -0.1791 -1.2960 -1.5191
   23bbb    H10  682   7.452   8.021   7.645 -0.4376 -0.5594 -1.0230
   23bbb     C6  683   7.712   7.713   7.795  0.6462  0.4680 -0.0512
   23bbb    H11  684   7.718   7.725   7.686  2.8704 -0.6834 -0.0757
   23bbb    H12  685   7.630   7.646   7.823 -0.1872  0.4946 -2.3062
   23bbb     C7  686   7.527   8.214   8.097  0.1170 -0.0212 -0.1113
   23bbb    H13  687   7.423   8.190   8.123  0.8734 -2.0981  1.0620
   23bbb    H14  688   7.522   8.266   8.000 -0.5280 -1.5593 -0.9232
   23bbb     C8  689   7.839   7.647   7.844 -0.0450 -0.4037 -0.9934
   23bbb    H15  690   7.918   7.717   7.873  0.5132 -1.2396 -0.4770
   23bbb    H16  691   7.880   7.600   7.754 -0.1763  0.2894 -1.4154
   23bbb     C9  692   7.376   7.867   7.535 -0.2114 -0.2809 -0.5114
   23bbb    H17  693   7.404   7.906   7.436  1.2145 -2.6883 -1.1098
   23bbb    H18  694   7.273   7.891   7.562  0.1574  1.1456 -0.3257
   23bbb     O1  695   7.592   8.276   8.203  0.2790 -0.2753 -0.6516
   24bbb     N1  696   6.989   7.640   7.782  0.3485 -0.1626  0.0604
   24bbb     C1  697   6.926   7.778   7.802 -0.5737  0.1716  0.3006
   24bbb     H1  698   6.958   7.823   7.896  1.5530  1.1733 -0.8583
   24bbb     H2  699   6.819   7.760   7.789 -0.3122 -1.2842  0.0642
   24bbb     C2  700   7.133   7.639   7.806  0.2550 -0.3512  0.2205
   24bbb     H3  701   7.144   7.685   7.905  1.0162  0.6487 -0.3233
   24bbb     H4  702   7.191   7.705   7.740 -0.5429  1.7525  1.5938
   24bbb     C3  703   6.950   7.580   7.655  0.4349  0.1706 -0.0425
   24bbb     H5  704   6.975   7.473   7.666  0.6933  0.2470  0.1191
   24bbb     H6  705   7.008   7.631   7.577 -1.6900  0.7562 -1.2887
   24bbb     C4  706   6.798   7.578   7.623  0.2897  0.3928 -0.0690
   24bbb     H7  707   6.754   7.677   7.610  0.5374  0.4125 -0.7304
   24bbb     H8  708   6.748   7.521   7.703  1.1481  0.3486  0.4407
   24bbb     C5  709   6.962   7.873   7.681 -0.4482  0.1437  0.4364
   24bbb     H9  710   6.906   7.841   7.592  0.4215  2.5875 -1.0460
   24bbb    H10  711   7.070   7.868   7.665 -0.0297  0.2670  3.0060
   24bbb     C6  712   7.196   7.500   7.808  0.0512  1.0240 -0.0863
   24bbb    H11  713   7.177   7.444   7.715  0.0477  0.3608  0.3079
   24bbb    H12  714   7.149   7.437   7.885  0.6078 -2.1238 -2.1935
   24bbb     C7  715   6.770   7.507   7.492  0.2408  0.6863  0.7864
   24bbb    H13  716   6.663   7.490   7.477  0.6212 -0.1005 -1.3022
   24bbb    H14  717   6.825   7.413   7.486 -1.3185 -0.2694  1.2358
   24bbb     C8  718   7.348   7.505   7.836 -0.3952  0.4984  0.6602
   24bbb    H15  719   7.377   7.582   7.908 -2.2548  2.1501 -0.2943
   24bbb    H16  720   7.384   7.536   7.737  0.9721  1.2400  1.3934
   24bbb     C9  721   6.916   8.022   7.695  0.4729  1.1349  0.4315
   24bbb    H17  722   6.808   8.024   7.677  0.2295 -0.7317  1.6196
   24bbb    H18  723   6.947   8.082   7.608 -2.4716  0.1466 -1.3815
   24bbb     O1  724   6.814   7.601   7.395 -0.0520  0.3938 -0.2373
   25bbb     N1  725   7.778   7.213   7.187  0.3584 -0.2600 -0.1658
   25bbb     C1  726   7.894   7.132   7.129  0.0760 -0.2786 -0.0430
   25bbb     H1  727   7.990   7.182   7.115  0.0284 -0.3192 -0.5280
   25bbb     H2  728   7.877   7.096   7.027  2.1646  1.4113 -1.0227
   25bbb     C2  729   7.795   7.266   7.330 -0.3421  0.4284 -0.0514
   25bbb     H3  730   7.818   7.174   7.387 -0.6480  0.1032 -0.4499
   25bbb     H4  731   7.704   7.315   7.368 -1.1037  0.3979 -1.8187
   25bbb     C3  732   7.744   7.320   7.093 -0.5215  0.1227  0.2767
   25bbb     H5  733   7.750   7.276   6.992 -1.1301 -0.1945  0.3758
   25bbb     H6  734   7.823   7.396   7.086 -2.3687  1.9381 -1.1682
   25bbb     C4  735   7.606   7.389   7.114  0.2323  0.2356  0.4062
   25bbb     H7  736   7.595   7.427   7.217  0.5997  0.1022  0.4986
   25bbb     H8  737   7.537   7.306   7.098 -0.5633  0.9234  0.2488
   25bbb     C5  738   7.932   7.019   7.229 -1.1442  0.5583 -0.1579
   25bbb     H9  739   7.838   6.984   7.272  0.4033 -2.1947  1.1258
   25bbb    H10  740   7.990   7.070   7.307  1.4996 -0.9505 -1.0971
   25bbb     C6  741   7.906   7.372   7.353 -0.7598  0.7481  0.2423
   25bbb    H11  742   7.870   7.467   7.311 -1.4541 -0.0379 -0.9532
   25bbb    H12  743   8.004   7.347   7.311 -1.0780  1.8469 -1.2021
   25bbb     C7  744   7.564   7.501   7.012 -0.2481 -0.9031 -0.2788
   25bbb    H13  745   7.581   7.452   6.915 -1.7049 -3.1763  0.5614
   25bbb    H14  746   7.626   7.590   7.027 -2.8814  0.8163  0.8235
   25bbb     C8  747   7.919   7.400   7.508 -0.0923 -0.1397  0.1184
   25bbb    H15  748   7.947   7.299   7.541 -0.4278 -0.5115 -0.7222
   25bbb    H16  749   7.826   7.426   7.558  0.1344  1.0611 -0.0820
   25bbb     C9  750   8.017   6.902   7.170 -0.3329 -0.3337  0.0955
   25bbb    H17  751   8.125   6.925   7.168 -0.2069 -0.9322 -0.1558
   25bbb    H18  752   7.997   6.879   7.065 -1.6657 -1.0841  0.5044
   25bbb     O1  753   7.417   7.530   7.028  0.3687  0.3969  0.1468
   26bbb     N1  754   7.494   9.217   6.080 -0.2957 -0.1681  0.3666
   26bbb     C1  755   7.475   9.097   5.993 -0.7086  0.6432 -0.0213
   26bbb     H1  756   7.468   9.004   6.052  0.4937 -0.4872 -1.6270
   26bbb     H2  757   7.559   9.097   5.922 -1.7850  2.3677 -1.3234
   26bbb     C2  758   7.547   9.330   6.005  0.5576  0.1671 -0.0840
   26bbb     H3  759   7.561   9.415   6.073 -2.2731  0.4160  0.2418
   26bbb     H4  760   7.473   9.358   5.929  0.4322 -1.9659 -0.7717
   26bbb     C3  761   7.370   9.237   6.167  0.1278 -0.5153 -0.2514
   26bbb     H5  762   7.348   9.147   6.226  1.9164 -0.6700  0.1972
   26bbb     H6  763   7.289   9.272   6.101 -1.6065 -1.0535  1.5467
   26bbb     C4  764   7.381   9.361   6.262  0.3428  0.6922  0.0244
   26bbb     H7  765   7.399   9.457   6.212 -5.0815  2.1485  0.5681
   26bbb     H8  766   7.464   9.351   6.332 -0.1303 -1.6729  0.2862
   26bbb     C5  767   7.345   9.085   5.920  0.3332 -0.3217  0.1344
   26bbb     H9  768   7.316   9.176   5.866 -0.0737 -0.3501  0.3051
   26bbb    H10  769   7.261   9.080   5.991  0.3064  0.8619  0.1893
   26bbb     C6  770   7.690   9.321   5.944 -0.3355  1.4133 -0.5550
   26bbb    H11  771   7.689   9.248   5.862 -0.2660  0.0313  0.6598
   26bbb    H12  772   7.766   9.282   6.013  0.4754  1.1568 -1.5642
   26bbb     C7  773   7.248   9.379   6.342  0.0432  0.5887 -0.2556
   26bbb    H13  774   7.170   9.403   6.269  1.1438  1.2620 -1.2226
   26bbb    H14  775   7.271   9.464   6.408 -0.4552  1.4265 -1.1518
   26bbb     C8  776   7.746   9.458   5.898 -0.6698  1.2686  0.3669
   26bbb    H15  777   7.840   9.450   5.841 -0.4120  0.3075  0.9122
   26bbb    H16  778   7.762   9.510   5.993  1.7218  2.9201 -0.9002
   26bbb     C9  779   7.335   8.954   5.839  0.3744  0.9996 -0.6978
   26bbb    H17  780   7.378   8.875   5.902 -0.2394 -1.2002 -2.9492
   26bbb    H18  781   7.403   8.963   5.753  0.0477 -0.4419 -1.1274
   26bbb     O1  782   7.220   9.257   6.420  0.2121 -0.1365 -0.1252
   27bbb     N1  783   6.430   9.311   6.626  0.0889 -0.3882  0.9095
   27bbb     C1  784   6.546   9.383   6.675  0.1596  0.4836 -0.0006
   27bbb     H1  785   6.545   9.377   6.784 -0.7792 -0.1130 -0.0472
   27bbb     H2  786   6.538   9.486   6.636  0.8815  0.8923  0.9106
   27bbb     C2  787   6.293   9.362   6.668  0.0764  0.2920 -0.2632
   27bbb     H3  788   6.285   9.358   6.778 -1.5089 -1.3364 -0.4223
   27bbb     H4  789   6.210   9.304   6.626  0.3604 -0.3605  0.0765
   27bbb     C3  790   6.446   9.163   6.631  0.1085  0.1868  0.3271
   27bbb     H5  791   6.406   9.127   6.727 -1.7633  1.0686 -0.0969
   27bbb     H6  792   6.548   9.124   6.624  0.2369  0.4920  0.4941
   27bbb     C4  793   6.368   9.097   6.519 -0.1943 -0.2169 -0.0068
   27bbb     H7  794   6.426   9.118   6.429  0.8330  1.7937  1.0697
   27bbb     H8  795   6.276   9.156   6.505  0.4676  0.5161 -1.3095
   27bbb     C5  796   6.687   9.331   6.638 -0.5635 -1.2310 -0.0516
   27bbb     H9  797   6.694   9.274   6.544 -2.0228  0.9722 -1.5222
   27bbb    H10  798   6.718   9.256   6.712 -0.8782 -0.2646  1.0769
   27bbb     C6  799   6.263   9.503   6.623  0.1187  0.6222 -0.5027
   27bbb    H11  800   6.299   9.504   6.519  0.2275 -1.6437 -0.5305
   27bbb    H12  801   6.322   9.574   6.682  1.1334  0.3237 -1.1429
   27bbb     C7  802   6.357   8.942   6.529 -0.4801 -0.5815  0.0635
   27bbb    H13  803   6.303   8.895   6.447 -1.6040  0.0421  0.4306
   27bbb    H14  804   6.301   8.910   6.618 -0.1110 -1.0929  0.1116
   27bbb     C8  805   6.110   9.551   6.636  0.2475  0.0067  0.3602
   27bbb    H15  806   6.083   9.577   6.739  0.1465  2.0612 -0.1660
   27bbb    H16  807   6.047   9.470   6.598  0.0337  1.3381 -2.2703
   27bbb     C9  808   6.798   9.447   6.624  0.3997 -0.1266  1.2288
   27bbb    H17  809   6.816   9.485   6.523  0.5374 -2.3808  0.3794
   27bbb    H18  810   6.897   9.400   6.634  0.2907 -0.2353  1.7937
   27bbb     O1  811   6.490   8.889   6.527 -0.5075  0.2912 -0.1553
   28bbb     N1  812   7.934   7.948   8.262 -0.2543 -0.1167 -1.6906
   28bbb     C1  813   7.835   7.855   8.323 -0.4492 -0.1640  0.2913
   28bbb     H1  814   7.734   7.880   8.289 -0.1551  3.4740  1.9160
   28bbb     H2  815   7.842   7.872   8.431 -0.1110 -1.9123  0.5657
   28bbb     C2  816   7.904   8.094   8.300 -0.2754  0.0306  0.0237
   28bbb     H3  817   7.795   8.109   8.302 -0.3730 -0.7058  0.9206
   28bbb     H4  818   7.946   8.164   8.228  1.7320 -2.6410 -1.5008
   28bbb     C3  819   7.958   7.930   8.114 -0.1956  0.4348 -1.0507
   28bbb     H5  820   7.881   7.975   8.050  0.3502 -1.0575 -2.8114
   28bbb     H6  821   7.955   7.824   8.083 -2.7576 -0.0241  0.5896
   28bbb     C4  822   8.100   7.979   8.075 -0.0090  0.4633  0.0816
   28bbb     H7  823   8.163   7.931   8.151  0.0201 -0.0782 -0.2738
   28bbb     H8  824   8.093   8.088   8.078  3.3449  0.7072  0.9398
   28bbb     C5  825   7.869   7.703   8.310 -0.3253  0.1201 -0.3760
   28bbb     H9  826   7.976   7.699   8.335 -0.2415  1.7502 -0.3953
   28bbb    H10  827   7.854   7.664   8.209 -1.2592 -1.6193  0.4234
   28bbb     C6  828   7.960   8.128   8.441 -0.1725  0.0587  0.5220
   28bbb    H11  829   7.925   8.057   8.517 -1.3683 -0.8355 -0.8419
   28bbb    H12  830   7.920   8.227   8.468 -0.8400 -0.2407  0.6370
   28bbb     C7  831   8.146   7.929   7.938 -0.1538 -0.5499  0.8064
   28bbb    H13  832   8.165   7.821   7.931  2.1837 -0.0359 -1.7331
   28bbb    H14  833   8.247   7.970   7.925 -0.6098  0.1967 -0.5170
   28bbb     C8  834   8.114   8.128   8.451 -0.4120 -0.4652 -0.0180
   28bbb    H15  835   8.138   8.211   8.384 -1.6516 -0.4594 -0.4750
   28bbb    H16  836   8.162   8.041   8.405 -0.2875 -1.1275  1.3373
   28bbb     C9  837   7.781   7.623   8.410 -0.0278 -0.2745 -0.5791
   28bbb    H17  838   7.678   7.637   8.374 -0.6205 -1.1919  0.7080
   28bbb    H18  839   7.791   7.685   8.500 -1.7159 -1.0958  0.2070
   28bbb     O1  840   8.054   7.976   7.832 -0.3400  0.1237  0.2991
   29bbb     N1  841   7.488   8.117   6.910 -0.7770 -0.4026 -0.3568
   29bbb     C1  842   7.355   8.067   6.861 -0.1996 -0.0891  0.4878
   29bbb     H1  843   7.340   7.968   6.905  1.1527 -1.5844 -2.2080
   29bbb     H2  844   7.369   8.044   6.754  0.5221  1.3594  0.2501
   29bbb     C2  845   7.554   8.219   6.818  0.3603 -0.6481  0.1612
   29bbb     H3  846   7.492   8.310   6.822  1.4223  0.0605  0.6185
   29bbb     H4  847   7.551   8.177   6.717  1.1115 -0.3290  0.0040
   29bbb     C3  848   7.508   8.130   7.059  0.1291  0.4787 -0.3373
   29bbb     H5  849   7.449   8.215   7.095 -0.8255 -0.4076  0.2153
   29bbb     H6  850   7.613   8.152   7.080  0.3578  1.2070 -2.1688
   29bbb     C4  851   7.473   8.004   7.149 -0.4458  0.7043  0.1666
   29bbb     H7  852   7.363   8.006   7.147 -0.4272  1.3432 -0.3776
   29bbb     H8  853   7.498   8.014   7.255 -2.6455 -1.4115  0.9428
   29bbb     C5  854   7.240   8.160   6.877  0.4326  0.1433  0.2888
   29bbb     H9  855   7.273   8.263   6.858 -1.2310  0.3820 -1.3877
   29bbb    H10  856   7.211   8.140   6.981  1.2335  0.5742  0.6020
   29bbb     C6  857   7.701   8.258   6.846 -0.2106  0.0067 -0.1052
   29bbb    H11  858   7.719   8.305   6.943  2.2042 -0.5672 -0.2531
   29bbb    H12  859   7.734   8.340   6.780 -2.1738  0.5198 -0.5010
   29bbb     C7  860   7.526   7.872   7.097 -0.5778 -0.2167 -0.8224
   29bbb    H13  861   7.509   7.843   6.992  0.4696  0.1109 -1.0890
   29bbb    H14  862   7.476   7.793   7.155  1.4415 -1.1548 -0.3421
   29bbb     C8  863   7.801   8.147   6.817 -0.5824 -0.3768 -0.0608
   29bbb    H15  864   7.756   8.048   6.830 -2.8566  0.8430  1.6746
   29bbb    H16  865   7.885   8.128   6.885 -1.6431 -2.4832  0.6896
   29bbb     C9  866   7.125   8.126   6.771 -0.1029 -0.8551  0.4587
   29bbb    H17  867   7.028   8.170   6.799  1.2287  1.3901  1.6918
   29bbb    H18  868   7.105   8.018   6.778 -1.1787 -0.6623  0.4165
   29bbb     O1  869   7.671   7.859   7.124 -0.6725  0.2425  0.7710
   30ccc     C1  870   6.013   8.013   8.063 -0.4514  0.4625 -0.0961
   30ccc     H1  871   5.986   8.104   8.117 -1.5612 -0.6235  1.2219
   30ccc     H2  872   5.963   8.007   7.965 -1.0051 -2.9041  0.3347
   30ccc     C2  873   5.976   7.885   8.156 -0.8049  0.0980  0.6910
   30ccc     H3  874   5.870   7.908   8.171 -0.1703  2.2496  2.0238
   30ccc     H4  875   6.025   7.877   8.254  0.7099  0.1051 -0.0545
   30ccc     C3  876   5.975   7.747   8.087 -0.5210 -0.1610  0.3080
   30ccc     H5  877   6.079   7.749   8.051 -1.3727 -0.9579 -2.2477
   30ccc     H6  878   5.908   7.751   8.001  0.9521 -0.6743 -0.8849
   30ccc     N1  879   5.953   7.632   8.183 -0.1889 -0.2169 -0.3686
   30ccc     C4  880   5.988   7.502   8.128 -0.2385 -0.0156  0.3362
   30ccc     H7  881   5.908   7.470   8.059 -1.4281 -2.4881  2.7564
   30ccc     H8  882   5.973   7.424   8.203 -0.3657  0.6228  0.9739
   30ccc     C5  883   6.131   7.482   8.066 -0.0406 -0.1421 -0.6013
   30ccc     H9  884   6.139   7.543   7.975 -0.5607  0.7348 -0.0729
   30ccc    H10  885   6.204   7.510   8.143  2.2184 -2.4756 -1.8524
   30ccc     C6  886   6.173   7.341   8.022  0.0261  0.0292 -0.7232
   30ccc     O1  887   6.233   7.260   8.084 -0.3120  0.1040 -0.1211
   30ccc     O2  888   6.121   7.299   7.911 -0.2101  0.4705  0.2030
   30ccc    H11  889   6.068   7.376   7.886  0.6672  1.3528  1.0632
   30ccc     C7  890   5.825   7.639   8.260  0.1705 -0.8897  0.1872
   30ccc    H12  891   5.821   7.557   8.333 -0.2418 -2.0607 -1.1340
   30ccc    H13  892   5.809   7.732   8.317 -1.9897 -0.4141 -1.1651
   30ccc     C8  893   5.702   7.623   8.170 -0.0550  0.2356  0.3302
   30ccc    H14  894   5.709   7.678   8.075  0.1364  1.3013  0.9486
   30ccc    H15  895   5.681   7.516   8.159  0.6463  0.3126 -1.9811
   30ccc     C9  896   5.587   7.690   8.236 -0.0580 -1.0665 -0.1929
   30ccc     O3  897   5.594   7.754   8.342  0.2689  0.6509  0.5520
   30ccc     O4  898   5.476   7.689   8.168  0.1688 -0.1356 -0.2444
   30ccc    H16  899   5.494   7.633   8.090  0.1159 -3.9156  2.3414
   30ccc     O5  900   6.158   8.011   8.043 -0.1459 -0.0186 -0.0764
   31ccc     C1  901   6.982   7.591   8.283  0.2354  0.4262 -0.5611
   31ccc     H1  902   7.086   7.589   8.250 -0.1437 -1.9305 -1.7049
   31ccc     H2  903   6.957   7.671   8.354  2.3304  1.0903 -0.5580
   31ccc     C2  904   6.947   7.448   8.336 -0.9134  0.4726  0.0593
   31ccc     H3  905   6.976   7.387   8.249 -2.0873 -1.8838  1.2902
   31ccc     H4  906   6.840   7.434   8.355 -1.1936 -0.0417 -1.7378
   31ccc     C3  907   7.036   7.405   8.459 -0.3427  0.2210 -0.8617
   31ccc     H5  908   7.037   7.480   8.538  2.2873 -0.4122 -0.2323
   31ccc     H6  909   7.140   7.389   8.426  1.0541  2.5016  2.2101
   31ccc     N1  910   7.001   7.277   8.527 -0.6362 -0.6916 -0.6358
   31ccc     C4  911   7.071   7.249   8.652  0.0351 -0.3006 -0.6505
   31ccc     H7  912   7.093   7.142   8.656 -2.8536 -0.9970 -1.6491
   31ccc     H8  913   7.170   7.295   8.658 -0.0130 -0.1477 -0.9667
   31ccc     C5  914   6.994   7.275   8.784  0.3556  1.3131  0.3189
   31ccc     H9  915   6.900   7.218   8.790  0.6128  0.7098 -1.1410
   31ccc    H10  916   6.972   7.381   8.804 -1.4918  0.5464  2.6363
   31ccc     C6  917   7.064   7.223   8.913  0.8171 -0.1276  0.1819
   31ccc     O1  918   7.158   7.150   8.923 -0.3323 -0.0200  0.1697
   31ccc     O2  919   7.020   7.294   9.015 -0.2669 -0.7202  0.7084
   31ccc    H11  920   6.953   7.356   8.982  3.3762  3.7106  1.1743
   31ccc     C7  921   6.989   7.164   8.437  0.3594  0.1986  0.1453
   31ccc    H12  922   6.960   7.078   8.497 -3.9864  0.7807 -0.9694
   31ccc    H13  923   6.912   7.182   8.361  0.7467 -0.0845 -0.3164
   31ccc     C8  924   7.117   7.129   8.364  0.2446  0.5923  0.0795
   31ccc    H14  925   7.200   7.098   8.428  1.2916  3.0833 -0.0025
   31ccc    H15  926   7.160   7.210   8.303  0.0045  0.0555 -0.8057
   31ccc     C9  927   7.099   7.016   8.265 -0.0591  0.0832 -0.6797
   31ccc     O3  928   6.986   6.984   8.229 -0.0600 -0.5267  0.3679
   31ccc     O4  929   7.202   6.948   8.220  0.4677  0.2126 -0.2653
   31ccc    H16  930   7.274   7.001   8.257  0.7607 -0.5124  0.2072
   31ccc     O5  931   6.905   7.602   8.161 -0.3427  0.1020 -0.0017
   32ccc     C1  932   5.460   6.980   6.795  0.6467  0.9148 -0.6074
   32ccc     H1  933   5.545   7.038   6.755  0.4572  1.4057 -0.3073
   32ccc     H2  934   5.435   6.900   6.725  0.8043 -0.3368  0.7520
   32ccc     C2  935   5.345   7.082   6.815  0.4180  0.0799 -0.4613
   32ccc     H3  936   5.367   7.157   6.891 -2.9020 -1.6577  2.3723
   32ccc     H4  937   5.258   7.031   6.858  0.4477 -0.9095 -1.5556
   32ccc     C3  938   5.311   7.166   6.689  0.4119  0.4002 -1.2489
   32ccc     H5  939   5.219   7.220   6.714 -0.1458 -0.9349 -0.3812
   32ccc     H6  940   5.281   7.089   6.618  2.1949  0.9691 -2.6750
   32ccc     N1  941   5.412   7.255   6.624  0.0025 -0.7162  0.1534
   32ccc     C4  942   5.458   7.366   6.712  0.1450  0.2069 -0.8645
   32ccc     H7  943   5.471   7.336   6.817 -1.5039  2.3084 -0.0235
   32ccc     H8  944   5.385   7.447   6.709 -0.9813 -0.8171 -1.4153
   32ccc     C5  945   5.598   7.426   6.676 -0.0988  0.1167  0.5078
   32ccc     H9  946   5.655   7.476   6.755 -0.1952 -0.2539  0.8149
   32ccc    H10  947   5.593   7.495   6.591  3.1420  0.2240  0.3534
   32ccc     C6  948   5.689   7.315   6.635 -0.1851  0.5515 -0.1255
   32ccc     O1  949   5.741   7.300   6.526 -0.5519  0.1861  0.2559
   32ccc     O2  950   5.740   7.238   6.740  0.1738  0.1726 -0.3733
   32ccc    H11  951   5.685   7.268   6.814 -0.9572  0.4082 -1.2896
   32ccc     C7  952   5.378   7.297   6.487 -0.7083  0.5251  0.2095
   32ccc    H12  953   5.363   7.202   6.434  1.0163 -0.7675  1.9480
   32ccc    H13  954   5.454   7.354   6.432  0.0013 -0.5103  0.0851
   32ccc     C8  955   5.249   7.380   6.476 -0.1293 -0.0270 -0.4254
   32ccc    H14  956   5.171   7.331   6.536  0.7128 -1.2571 -0.3143
   32ccc    H15  957   5.270   7.479   6.519  4.9736 -1.9216  1.7675
   32ccc     C9  958   5.195   7.387   6.336  0.6661  0.1676  0.1573
   32ccc     O3  959   5.268   7.396   6.240 -0.2366 -0.0312 -0.1106
   32ccc     O4  960   5.069   7.433   6.332  0.6682  0.4047  0.2965
   32ccc    H16  961   5.021   7.414   6.414 -0.6887 -0.4933 -0.6837
   32ccc     O5  962   5.497   6.933   6.925 -0.3345 -0.7146 -0.2130
   33ccc     C1  963   5.939   6.264   6.906  0.0633 -0.1112 -0.4680
   33ccc     H1  964   5.850   6.232   6.962  0.7564 -0.1844  0.5986
   33ccc     H2  965   5.905   6.345   6.840  2.6161  0.7995 -0.7225
   33ccc     C2  966   6.006   6.151   6.830  0.2941  0.2390  0.0118
   33ccc     H3  967   6.100   6.180   6.782 -0.3792 -0.0260 -1.5100
   33ccc     H4  968   5.935   6.119   6.753  1.4686 -3.0212  0.2168
   33ccc     C3  969   6.042   6.032   6.924 -0.5503  0.3128  0.6241
   33ccc     H5  970   5.956   6.007   6.987  0.0571 -1.6501  0.7365
   33ccc     H6  971   6.118   6.056   6.999  1.0189  0.1757 -0.8674
   33ccc     N1  972   6.077   5.907   6.851  0.0084  0.1977 -0.3047
   33ccc     C4  973   6.206   5.918   6.780 -0.1072 -0.2930  0.3115
   33ccc     H7  974   6.289   5.908   6.851 -0.9157  0.8005  1.4350
   33ccc     H8  975   6.222   6.017   6.735 -0.9897 -0.3408 -0.1250
   33ccc     C5  976   6.199   5.816   6.660 -0.0776  0.3056  0.2090
   33ccc     H9  977   6.193   5.710   6.687 -0.9147 -0.0185 -1.1484
   33ccc    H10  978   6.098   5.834   6.619  0.8716  0.1915 -2.2891
   33ccc     C6  979   6.309   5.821   6.561  1.0356 -0.0074 -0.3344
   33ccc     O1  980   6.361   5.924   6.529 -0.4847 -0.3221 -0.0592
   33ccc     O2  981   6.302   5.734   6.467  0.0217 -0.3134 -0.0249
   33ccc    H11  982   6.240   5.669   6.505  1.4649  0.0119  2.9613
   33ccc     C7  983   6.037   5.789   6.930 -0.0253 -0.7841  0.5842
   33ccc    H12  984   5.932   5.797   6.958  0.5537  2.8577  2.0434
   33ccc    H13  985   6.033   5.699   6.867 -0.5530 -0.0164 -0.4895
   33ccc     C8  986   6.119   5.772   7.060  0.2551  0.1406 -0.0666
   33ccc    H14  987   6.113   5.861   7.125  0.0973  0.9986 -1.2372
   33ccc    H15  988   6.225   5.759   7.035 -0.3280 -0.3807 -2.4055
   33ccc     C9  989   6.085   5.643   7.140 -0.4400  0.0541  0.3052
   33ccc     O3  990   6.132   5.534   7.122 -0.4003 -0.6194 -0.1063
   33ccc     O4  991   5.984   5.651   7.225  0.0255 -0.2184  0.0469
   33ccc    H16  992   5.953   5.741   7.207  0.1955  0.0908  1.2430
   33ccc     O5  993   6.038   6.314   7.011  0.6806 -0.4507  0.0661
   34ccc     C1  994   6.469   9.056   8.050 -0.1881  0.0917  0.2399
   34ccc     H1  995   6.491   8.956   8.009  2.4443  0.7268  0.0496
   34ccc     H2  996   6.516   9.111   7.967 -0.5380 -0.7167 -0.5084
   34ccc     C2  997   6.515   9.092   8.189 -0.5109 -0.2188 -0.2401
   34ccc     H3  998   6.623   9.076   8.199 -0.6042 -0.4697  0.4174
   34ccc     H4  999   6.461   9.030   8.262  1.1730 -0.4843  0.8044
   34ccc     C3 1000   6.497   9.238   8.230 -0.4608 -0.3419 -1.5375
   34ccc     H5 1001   6.396   9.269   8.200 -0.8281  1.5607  1.5596
   34ccc     H6 1002   6.565   9.293   8.164  0.2770 -1.1770 -1.4877
   34ccc     N1 1003   6.535   9.245   8.376  0.3590 -0.5454  0.1137
   34ccc     C4 1004   6.472   9.362   8.445  0.5924 -0.6045  0.0750
   34ccc     H7 1005   6.497   9.458   8.398  0.4629 -1.2645 -1.3905
   34ccc     H8 1006   6.519   9.365   8.544  2.1091 -1.5345 -0.5895
   34ccc     C5 1007   6.322   9.362   8.461  0.4088 -0.1847 -0.2139
   34ccc     H9 1008   6.280   9.379   8.361  0.6934 -3.2147 -0.9065
   34ccc    H10 1009   6.297   9.449   8.522 -0.5186 -1.0916  0.7419
   34ccc     C6 1010   6.263   9.250   8.544  0.2205  0.5678 -0.6373
   34ccc     O1 1011   6.298   9.232   8.660  0.5703 -0.2865 -0.1953
   34ccc     O2 1012   6.189   9.162   8.477  0.1628  0.3533 -0.0198
   34ccc    H11 1013   6.180   9.198   8.387  0.3667  0.2122 -0.0970
   34ccc     C7 1014   6.677   9.240   8.412 -0.0405 -1.3541 -0.0109
   34ccc    H12 1015   6.725   9.155   8.363 -0.2278  0.0089 -2.7219
   34ccc    H13 1016   6.683   9.234   8.521 -1.8466 -0.4991  0.1615
   34ccc     C8 1017   6.755   9.369   8.356 -0.2055  0.2552  0.0978
   34ccc    H14 1018   6.784   9.364   8.251  0.2097  3.2606  0.0123
   34ccc    H15 1019   6.693   9.459   8.366 -1.2996 -0.6760  1.9822
   34ccc     C9 1020   6.881   9.396   8.436  0.4693  0.5314 -1.0767
   34ccc     O3 1021   6.955   9.309   8.474  0.0234  0.2788 -0.2491
   34ccc     O4 1022   6.923   9.520   8.466 -0.1640 -0.3679  0.0190
   34ccc    H16 1023   6.890   9.576   8.393  0.1687  0.0530  0.1878
   34ccc     O5 1024   6.322   9.086   8.042  0.6938  0.1381 -0.0538
   35ccc     C1 1025   6.409   8.399   8.237 -0.4142 -0.3230 -0.5946
   35ccc     H1 1026   6.324   8.459   8.202 -0.1239  0.8956  0.7735
   35ccc     H2 1027   6.388   8.291   8.235  1.8954 -0.8021 -0.1132
   35ccc     C2 1028   6.434   8.431   8.389 -0.0882 -0.1103 -0.1495
   35ccc     H3 1029   6.337   8.443   8.440  0.0038  1.8262 -0.4035
   35ccc     H4 1030   6.460   8.537   8.397 -1.0650  0.2074 -1.1613
   35ccc     C3 1031   6.535   8.332   8.445 -0.7590 -0.5873  0.1059
   35ccc     H5 1032   6.634   8.349   8.401  0.2214 -0.5307  2.2696
   35ccc     H6 1033   6.501   8.228   8.431  0.1110 -0.7205 -1.0472
   35ccc     N1 1034   6.547   8.343   8.591  0.6936 -0.7260 -0.0233
   35ccc     C4 1035   6.624   8.458   8.648 -0.4716  0.3351 -0.4973
   35ccc     H7 1036   6.639   8.441   8.756 -0.2182 -0.9407 -0.7230
   35ccc     H8 1037   6.560   8.544   8.629 -0.4873  0.6268  0.7962
   35ccc     C5 1038   6.772   8.462   8.590  0.0099  0.2507 -0.1724
   35ccc     H9 1039   6.814   8.361   8.603 -2.8095 -0.8646  0.6380
   35ccc    H10 1040   6.772   8.486   8.483  0.8703  2.6807  0.3383
   35ccc     C6 1041   6.871   8.556   8.654 -0.1304 -0.2756  0.8798
   35ccc     O1 1042   6.854   8.635   8.743 -0.1121 -0.6561  0.5934
   35ccc     O2 1043   6.994   8.550   8.603  0.2549  0.5871 -0.1653
   35ccc    H11 1044   6.992   8.474   8.543  0.3576 -1.8518  2.8157
   35ccc     C7 1045   6.584   8.214   8.659  0.6084  0.9286  0.3247
   35ccc    H12 1046   6.676   8.170   8.618  1.8830  0.0911  3.8792
   35ccc    H13 1047   6.613   8.235   8.762  0.9695 -1.1661  0.6776
   35ccc     C8 1048   6.465   8.106   8.665  0.4485 -0.1507  0.7143
   35ccc    H14 1049   6.391   8.131   8.742 -1.2193  0.4168 -1.0268
   35ccc    H15 1050   6.414   8.095   8.569 -0.7126 -0.8332  1.3879
   35ccc     C9 1051   6.511   7.968   8.698 -0.6478  0.7035  0.2951
   35ccc     O3 1052   6.615   7.940   8.758  0.3706 -0.0966 -0.1163
   35ccc     O4 1053   6.432   7.868   8.647 -0.7485  0.1711  0.7069
   35ccc    H16 1054   6.372   7.917   8.587 -1.2537 -0.1858  0.9235
   35ccc     O5 1055   6.531   8.425   8.172  0.2041 -0.0322  0.1063
   36ccc     C1 1056   5.934   7.244   7.277  1.1709  0.1435  0.3487
   36ccc     H1 1057   5.948   7.135   7.288 -2.1119 -0.1497  2.1480
   36ccc     H2 1058   6.008   7.308   7.326 -0.1577  0.3301  2.1200
   36ccc     C2 1059   5.798   7.291   7.341 -0.5013 -0.4108  0.0334
   36ccc     H3 1060   5.801   7.253   7.444  2.8317 -1.9991 -0.5867
   36ccc     H4 1061   5.726   7.227   7.289  0.1085 -0.0576 -1.2686
   36ccc     C3 1062   5.783   7.440   7.310  0.5114 -0.1193  0.2606
   36ccc     H5 1063   5.757   7.450   7.203  0.0818 -0.7181  0.3082
   36ccc     H6 1064   5.878   7.493   7.322 -0.9337  2.3541  1.0781
   36ccc     N1 1065   5.686   7.509   7.399 -0.4793 -0.3857  0.2151
   36ccc     C4 1066   5.702   7.492   7.542 -0.2423 -1.0832  0.4653
   36ccc     H7 1067   5.625   7.546   7.598 -0.1089 -0.0639 -0.3187
   36ccc     H8 1068   5.689   7.387   7.569 -1.2191 -1.7330 -2.3660
   36ccc     C5 1069   5.841   7.549   7.604  0.8336  0.0234 -0.0431
   36ccc     H9 1070   5.835   7.657   7.622  0.8628 -0.1045  0.7180
   36ccc    H10 1071   5.933   7.535   7.545  0.4042  2.5046 -1.3731
   36ccc     C6 1072   5.871   7.490   7.741 -0.3435  0.1567  0.0700
   36ccc     O1 1073   5.786   7.433   7.816 -0.4160  0.5498 -0.3452
   36ccc     O2 1074   5.995   7.472   7.774 -0.4461 -0.6191  0.4158
   36ccc    H11 1075   6.042   7.526   7.708 -1.5020  0.5271  0.5745
   36ccc     C7 1076   5.637   7.639   7.351  0.5605 -0.1041  0.8914
   36ccc    H12 1077   5.547   7.671   7.405  1.1100  0.8484  1.2495
   36ccc    H13 1078   5.707   7.722   7.365 -0.6893  1.3129 -1.1190
   36ccc     C8 1079   5.590   7.631   7.199 -0.3089 -0.2763 -0.6133
   36ccc    H14 1080   5.538   7.726   7.186  2.6319  1.4384 -0.2220
   36ccc    H15 1081   5.680   7.636   7.136  0.1872  0.4136  0.1432
   36ccc     C9 1082   5.492   7.516   7.163 -0.2426  0.1100 -0.7205
   36ccc     O3 1083   5.440   7.437   7.240 -0.1703 -0.2605 -0.2391
   36ccc     O4 1084   5.441   7.531   7.042 -0.4709  0.1269  0.1795
   36ccc    H16 1085   5.487   7.608   7.006 -0.4412 -1.6988 -3.9301
   36ccc     O5 1086   5.928   7.266   7.136  0.1516 -0.3016  0.3353
   37ccc     C1 1087   6.397   7.679   6.621  0.3094 -0.5190 -0.0396
   37ccc     H1 1088   6.339   7.765   6.587 -0.4510 -0.4964  1.2959
   37ccc     H2 1089   6.400   7.692   6.730  2.5711 -0.9223 -0.0220
   37ccc     C2 1090   6.537   7.673   6.564  0.5053 -0.1389  0.5986
   37ccc     H3 1091   6.593   7.580   6.576  0.0896 -0.6947 -1.5584
   37ccc     H4 1092   6.600   7.749   6.612  0.8495 -1.3749  2.1317
   37ccc     C3 1093   6.529   7.697   6.407  0.4164  0.6429 -0.3606
   37ccc     H5 1094   6.490   7.799   6.397 -1.4366 -0.0691 -0.8209
   37ccc     H6 1095   6.450   7.630   6.371 -1.8097  0.3408  4.7262
   37ccc     N1 1096   6.654   7.689   6.334  0.1282  0.4081 -0.4082
   37ccc     C4 1097   6.752   7.797   6.364  0.1324  0.1361  0.2328
   37ccc     H7 1098   6.840   7.794   6.298 -0.7244  2.2732 -1.0593
   37ccc     H8 1099   6.798   7.772   6.460 -0.0524 -1.1899 -0.0171
   37ccc     C5 1100   6.690   7.939   6.367 -0.5408 -0.1387  0.1969
   37ccc     H9 1101   6.619   7.948   6.283 -0.3899  0.5262  0.1337
   37ccc    H10 1102   6.636   7.957   6.461 -0.4024 -0.0912  0.2681
   37ccc     C6 1103   6.799   8.041   6.356  0.4416 -0.4042  0.4122
   37ccc     O1 1104   6.862   8.089   6.443  0.2226  0.2809  0.0608
   37ccc     O2 1105   6.858   8.062   6.237 -0.0477 -0.4130  0.4257
   37ccc    H11 1106   6.831   7.991   6.177  1.7252 -2.4480  1.9409
   37ccc     C7 1107   6.711   7.549   6.321 -0.6825 -0.4771  0.4503
   37ccc    H12 1108   6.778   7.529   6.406 -0.9778 -1.4302  0.4543
   37ccc    H13 1109   6.633   7.472   6.329  0.2997 -1.2898  2.7256
   37ccc     C8 1110   6.785   7.535   6.190  0.1846 -0.4921  0.1567
   37ccc    H14 1111   6.886   7.578   6.196  0.0779 -0.4103  1.6632
   37ccc    H15 1112   6.734   7.572   6.101 -1.0619 -2.1673  0.1581
   37ccc     C9 1113   6.808   7.385   6.159 -0.6479  0.4739  0.0672
   37ccc     O3 1114   6.723   7.311   6.113 -0.0076  0.3391 -0.1310
   37ccc     O4 1115   6.933   7.340   6.147  0.4194  0.3416  0.2691
   37ccc    H16 1116   6.991   7.417   6.161 -0.7078  0.7925  2.6510
   37ccc     O5 1117   6.341   7.554   6.594 -0.1812 -0.3464  0.0101
   38ccc     C1 1118   5.100   8.557   8.668 -1.2073  0.0255  0.7622
   38ccc     H1 1119   5.086   8.453   8.699 -0.0612 -0.8229 -1.4892
   38ccc     H2 1120   5.010   8.607   8.707 -0.9688 -0.5708  2.1191
   38ccc     C2 1121   5.122   8.567   8.520  0.0682 -0.7126 -0.3006
   38ccc     H3 1122   5.027   8.532   8.478  0.6023 -2.0663 -0.4024
   38ccc     H4 1123   5.194   8.489   8.494  0.3355 -0.8919  0.9290
   38ccc     C3 1124   5.136   8.717   8.478 -0.1795 -0.6351  0.3120
   38ccc     H5 1125   5.214   8.775   8.529  0.6864 -1.4022 -0.1338
   38ccc     H6 1126   5.043   8.758   8.518 -0.0326 -2.0535  2.1447
   38ccc     N1 1127   5.144   8.724   8.331  0.2123  0.4584  0.0527
   38ccc     C4 1128   5.270   8.672   8.264 -0.0166  0.2491  0.0475
   38ccc     H7 1129   5.259   8.655   8.157 -1.2705 -0.1368  0.2248
   38ccc     H8 1130   5.289   8.568   8.295  2.7687  0.2702 -1.4748
   38ccc     C5 1131   5.397   8.756   8.281 -0.1167 -0.0458 -0.0676
   38ccc     H9 1132   5.380   8.858   8.245 -1.1309  0.1343  0.9024
   38ccc    H10 1133   5.436   8.770   8.382  0.4012 -0.5534 -0.1900
   38ccc     C6 1134   5.503   8.705   8.191 -0.1906  0.2931  0.5046
   38ccc     O1 1135   5.483   8.608   8.120  0.0214 -0.3398  0.2981
   38ccc     O2 1136   5.622   8.763   8.199 -0.2871  0.1821 -0.6318
   38ccc    H11 1137   5.612   8.835   8.263  1.1888 -0.8496  0.7989
   38ccc     C7 1138   5.107   8.857   8.275  0.8418 -0.7051  0.5109
   38ccc    H12 1139   5.164   8.939   8.321 -1.9670  1.2962  0.5729
   38ccc    H13 1140   5.122   8.872   8.167 -1.0407 -3.4982 -0.1959
   38ccc     C8 1141   4.964   8.882   8.291  0.0322  0.1641  0.5438
   38ccc    H14 1142   4.916   8.834   8.205  1.2919  0.9995 -0.6495
   38ccc    H15 1143   4.922   8.843   8.385 -2.1732 -1.0362 -0.9095
   38ccc     C9 1144   4.917   9.029   8.275  0.5623  0.9176 -0.1239
   38ccc     O3 1145   4.986   9.114   8.222  0.0384  0.7308  0.1637
   38ccc     O4 1146   4.784   9.048   8.288 -0.5650 -0.2594 -0.5017
   38ccc    H16 1147   4.760   8.960   8.323 -1.4975 -0.1968 -0.9741
   38ccc     O5 1148   5.216   8.615   8.738  0.3737  0.0848 -0.2942
   39ccc     C1 1149   5.433   8.205   8.308 -0.7200  0.5329  0.3127
   39ccc     H1 1150   5.335   8.187   8.355 -1.4053  1.7244 -0.6439
   39ccc     H2 1151   5.426   8.307   8.268 -2.1381  1.0482  1.7926
   39ccc     C2 1152   5.479   8.095   8.209  0.2394  0.2459  0.0555
   39ccc     H3 1153   5.415   8.112   8.122  1.2829 -0.7852 -0.9265
   39ccc     H4 1154   5.445   7.999   8.250  0.0743 -1.1478 -3.2009
   39ccc     C3 1155   5.626   8.078   8.173  0.4073  0.1006 -0.0703
   39ccc     H5 1156   5.630   7.995   8.101 -1.5091  1.1221 -1.4088
   39ccc     H6 1157   5.684   8.044   8.260 -0.5428  0.3876  0.6797
   39ccc     N1 1158   5.690   8.189   8.097 -0.1767  0.2658  0.0995
   39ccc     C4 1159   5.765   8.280   8.196  0.0298 -0.2013 -0.3347
   39ccc     H7 1160   5.828   8.224   8.266  2.3909  1.2074 -1.2262
   39ccc     H8 1161   5.690   8.339   8.250 -0.7885 -0.1680 -1.4851
   39ccc     C5 1162   5.870   8.361   8.115  0.3103 -0.2254  0.1962
   39ccc     H9 1163   5.910   8.300   8.033  0.6282  1.4488 -0.9160
   39ccc    H10 1164   5.818   8.449   8.076 -0.4654 -0.3394  0.9667
   39ccc     C6 1165   6.000   8.402   8.183  0.9704 -0.4017  0.2760
   39ccc     O1 1166   6.033   8.356   8.290  0.4966  0.1302  0.1983
   39ccc     O2 1167   6.101   8.428   8.096 -0.6002  0.0334 -0.0513
   39ccc    H11 1168   6.056   8.456   8.015  1.3402 -0.3857 -1.3079
   39ccc     C7 1169   5.603   8.260   8.001 -0.2816 -0.1379  0.2522
   39ccc    H12 1170   5.527   8.320   8.051  2.5163  0.7611  3.6690
   39ccc    H13 1171   5.667   8.333   7.951 -1.3970  0.6146 -0.0822
   39ccc     C8 1172   5.558   8.166   7.890  0.0980  0.4702 -0.0074
   39ccc    H14 1173   5.505   8.074   7.920 -0.7468  0.4830 -1.4390
   39ccc    H15 1174   5.496   8.217   7.816  3.1138  0.4982 -2.6247
   39ccc     C9 1175   5.683   8.121   7.818  0.3284  0.6306 -0.0816
   39ccc     O3 1176   5.775   8.194   7.779 -0.0148 -0.1822 -0.0378
   39ccc     O4 1177   5.690   7.996   7.781  0.1450 -0.2812  0.2193
   39ccc    H16 1178   5.607   7.949   7.801 -0.0602 -0.8536 -1.7882
   39ccc     O5 1179   5.533   8.193   8.412 -0.0340 -0.2449 -0.2403
   40ccc     C1 1180   6.058   8.137   8.788  0.4311 -0.8111  0.4216
   40ccc     H1 1181   6.133   8.064   8.755  1.3873  1.4450 -2.7255
   40ccc     H2 1182   6.075   8.192   8.881 -2.1759  0.2574  0.3264
   40ccc     C2 1183   5.927   8.060   8.815 -0.0816  0.0544 -0.3453
   40ccc     H3 1184   5.843   8.131   8.822  0.3338  0.5090  0.0728
   40ccc     H4 1185   5.936   8.013   8.914  0.5571 -2.7102 -1.6907
   40ccc     C3 1186   5.902   7.943   8.720 -0.4043 -0.8228 -0.3114
   40ccc     H5 1187   5.996   7.889   8.707  1.3643  1.2521  3.0514
   40ccc     H6 1188   5.877   7.981   8.620  1.9583  3.2160  0.5324
   40ccc     N1 1189   5.788   7.861   8.762 -0.2152  0.2226 -0.4350
   40ccc     C4 1190   5.651   7.915   8.743 -0.2762  0.0773  0.1670
   40ccc     H7 1191   5.647   8.016   8.786 -1.0924  0.9695 -1.9227
   40ccc     H8 1192   5.583   7.854   8.805  0.9726 -2.1249 -0.5914
   40ccc     C5 1193   5.615   7.934   8.593 -0.3551 -0.2988 -0.3222
   40ccc     H9 1194   5.678   8.009   8.543 -0.0774 -1.3083 -1.4887
   40ccc    H10 1195   5.638   7.838   8.546  0.6553  0.3386 -1.1492
   40ccc     C6 1196   5.466   7.963   8.573  1.3643 -0.1572  0.6174
   40ccc     O1 1197   5.389   8.006   8.657  0.2367  0.0439  0.3843
   40ccc     O2 1198   5.408   7.880   8.481 -0.0868 -0.6608 -0.5439
   40ccc    H11 1199   5.485   7.867   8.423  1.9070  3.4422  1.0615
   40ccc     C7 1200   5.802   7.714   8.730  0.4314  0.8603 -0.0826
   40ccc    H12 1201   5.706   7.661   8.729  1.0951 -0.3628 -0.5811
   40ccc    H13 1202   5.842   7.702   8.629  0.8764  0.7673  0.1021
   40ccc     C8 1203   5.909   7.643   8.820 -0.6273  0.7698 -0.0129
   40ccc    H14 1204   6.009   7.680   8.792 -0.2176  0.3421  0.8658
   40ccc    H15 1205   5.902   7.663   8.927  0.7609 -0.6771  0.3676
   40ccc     C9 1206   5.900   7.495   8.796 -0.1716 -0.1399 -0.3188
   40ccc     O3 1207   5.838   7.441   8.701 -0.4813  0.1599 -0.3061
   40ccc     O4 1208   5.980   7.421   8.871 -0.5543 -0.0496  0.1247
   40ccc    H16 1209   6.009   7.487   8.937 -2.3365 -0.3569  1.2462
   40ccc     O5 1210   6.032   8.232   8.679  0.0184  0.3095 -0.3115
   41ccc     C1 1211   5.700   8.269   9.094 -0.6111 -0.3604  0.0277
   41ccc     H1 1212   5.730   8.201   9.013 -0.2001 -1.8272  1.3846
   41ccc     H2 1213   5.761   8.244   9.181 -0.6285 -1.5836 -0.3018
   41ccc     C2 1214   5.559   8.251   9.141 -0.0735 -0.2261 -0.6516
   41ccc     H3 1215   5.558   8.287   9.244  1.9594 -2.3896  0.1777
   41ccc     H4 1216   5.541   8.143   9.145  0.8646 -0.3311  1.1058
   41ccc     C3 1217   5.450   8.317   9.050  0.0791 -0.1393  0.7617
   41ccc     H5 1218   5.492   8.314   8.948  0.6186 -2.8486  1.0498
   41ccc     H6 1219   5.445   8.424   9.074  2.4612 -0.1511  1.4404
   41ccc     N1 1220   5.315   8.255   9.051 -0.5279  0.5033  0.5021
   41ccc     C4 1221   5.244   8.265   9.175  0.6187 -0.5246 -0.3312
   41ccc     H7 1222   5.299   8.234   9.265 -0.2455  0.4829  0.5692
   41ccc     H8 1223   5.167   8.187   9.169 -0.4973  0.4987  0.3528
   41ccc     C5 1224   5.166   8.396   9.207  0.1071 -0.0188  0.2817
   41ccc     H9 1225   5.120   8.376   9.305 -0.4001  1.9195  0.4518
   41ccc    H10 1226   5.089   8.393   9.130 -0.4095 -1.5368  0.8335
   41ccc     C6 1227   5.235   8.536   9.210  0.3664  0.4425 -0.0010
   41ccc     O1 1228   5.207   8.621   9.130 -0.0597 -0.0884  0.2678
   41ccc     O2 1229   5.321   8.557   9.320  1.2766  0.0654 -0.1092
   41ccc    H11 1230   5.330   8.467   9.356 -0.9839  0.1032  0.5878
   41ccc     C7 1231   5.247   8.263   8.923 -0.4558 -0.3627  0.2034
   41ccc    H12 1232   5.204   8.362   8.901  1.7144  1.0149  1.9484
   41ccc    H13 1233   5.316   8.252   8.839 -2.1244  2.6121 -1.6634
   41ccc     C8 1234   5.155   8.135   8.904 -0.0982 -0.2773 -0.8190
   41ccc    H14 1235   5.217   8.044   8.906  0.4072  0.0779  1.3375
   41ccc    H15 1236   5.080   8.126   8.984  1.0259 -0.1851  0.2651
   41ccc     C9 1237   5.082   8.134   8.773 -0.5918 -0.2913  0.0623
   41ccc     O3 1238   4.966   8.162   8.750 -0.4292 -0.1455 -0.3976
   41ccc     O4 1239   5.155   8.118   8.662 -0.2438 -0.2590  0.3035
   41ccc    H16 1240   5.238   8.079   8.692  1.0149  2.3447  0.3076
   41ccc     O5 1241   5.730   8.407   9.049  0.3560  0.6689 -0.1001
   42ccc     C1 1242   8.152   8.964   6.314 -0.2678 -0.6098  0.6710
   42ccc     H1 1243   8.178   9.071   6.320  2.6962 -1.2823  0.5420
   42ccc     H2 1244   8.235   8.895   6.298  1.4931  1.7001 -0.5687
   42ccc     C2 1245   8.069   8.949   6.190  0.1243 -0.2293 -0.1422
   42ccc     H3 1246   8.147   8.945   6.113  1.1142 -2.1017  0.8891
   42ccc     H4 1247   8.007   9.036   6.168  1.6478  0.4013 -2.0593
   42ccc     C3 1248   7.987   8.819   6.177 -0.1836 -0.2823  0.2298
   42ccc     H5 1249   7.888   8.832   6.222 -0.5527 -0.3343 -0.5640
   42ccc     H6 1250   8.032   8.739   6.237  0.0017  0.7250  1.4507
   42ccc     N1 1251   7.973   8.776   6.033 -0.0465  0.2789 -0.1944
   42ccc     C4 1252   7.900   8.871   5.948 -0.7742 -0.3977  0.1559
   42ccc     H7 1253   7.797   8.882   5.983 -0.3510 -0.8477  1.5995
   42ccc     H8 1254   7.939   8.970   5.973 -2.6308  0.9725 -2.2506
   42ccc     C5 1255   7.913   8.846   5.792 -0.0834  0.0947  0.2976
   42ccc     H9 1256   7.848   8.762   5.765 -1.4343  0.8784  1.0559
   42ccc    H10 1257   8.017   8.828   5.762  0.1962 -1.1600  1.9408
   42ccc     C6 1258   7.867   8.964   5.708  0.2022  0.2840 -0.1266
   42ccc     O1 1259   7.852   9.081   5.736  0.2759 -0.3956 -0.0324
   42ccc     O2 1260   7.867   8.941   5.580 -0.0723 -0.2745 -0.0977
   42ccc    H11 1261   7.914   8.856   5.583  0.9304  0.2890  0.5876
   42ccc     C7 1262   7.946   8.635   6.018  0.2744  0.2271  0.2467
   42ccc    H12 1263   7.875   8.601   6.095 -0.7154 -0.1122 -0.7951
   42ccc    H13 1264   7.899   8.620   5.920 -0.5499  0.3393  0.6203
   42ccc     C8 1265   8.069   8.547   6.040  0.2912  0.0811 -0.4991
   42ccc    H14 1266   8.085   8.541   6.148  2.2587  0.9981 -0.7205
   42ccc    H15 1267   8.058   8.443   6.008 -1.0558  0.2456 -0.6119
   42ccc     C9 1268   8.193   8.604   5.975 -0.1398 -0.2763 -0.8082
   42ccc     O3 1269   8.288   8.660   6.019  0.8722 -0.0448 -0.1143
   42ccc     O4 1270   8.187   8.597   5.842  0.3263  0.0812 -0.2988
   42ccc    H16 1271   8.096   8.566   5.827  0.3609  0.6890 -1.9362
   42ccc     O5 1272   8.075   8.939   6.434 -0.2787 -0.3413 -0.3699
   43ccc     C1 1273   7.286   8.764   6.192 -0.4668  1.2077 -0.4713
   43ccc     H1 1274   7.257   8.771   6.297  1.1145  0.4800  0.0237
   43ccc     H2 1275   7.256   8.854   6.136 -0.4712  2.6268  1.7678
   43ccc     C2 1276   7.200   8.648   6.138  0.6865  0.4516 -0.4461
   43ccc     H3 1277   7.258   8.557   6.159 -0.7512 -0.2804  0.4242
   43ccc     H4 1278   7.200   8.659   6.029 -0.5757 -0.1531 -0.5076
   43ccc     C3 1279   7.056   8.656   6.188 -0.4550 -0.6152  0.0887
   43ccc     H5 1280   7.005   8.717   6.113  1.7077  0.5159 -0.4956
   43ccc     H6 1281   7.045   8.702   6.287  0.0806  4.0856 -1.9492
   43ccc     N1 1282   6.994   8.521   6.200  0.0125 -0.6082  0.5492
   43ccc     C4 1283   6.996   8.426   6.086 -0.1067 -0.0787  0.2322
   43ccc     H7 1284   6.939   8.334   6.108 -1.6929  0.8670  0.1425
   43ccc     H8 1285   7.095   8.383   6.067 -0.7317 -2.3055  1.8092
   43ccc     C5 1286   6.930   8.487   5.958 -0.1228  0.2981  0.5346
   43ccc     H9 1287   6.823   8.506   5.968 -0.6393 -2.5499  0.9372
   43ccc    H10 1288   6.986   8.576   5.925  0.7708 -0.3132  0.3582
   43ccc     C6 1289   6.939   8.397   5.832 -0.2927  0.5827  0.1634
   43ccc     O1 1290   7.023   8.318   5.805  0.0513  0.0234  0.5442
   43ccc     O2 1291   6.837   8.406   5.750  0.4292  0.1359  0.2281
   43ccc    H11 1292   6.775   8.471   5.788  2.6081  1.6532  1.2434
   43ccc     C7 1293   6.873   8.520   6.284  0.6643 -0.0890  0.1370
   43ccc    H12 1294   6.893   8.597   6.361  0.6482  0.7044 -0.6448
   43ccc    H13 1295   6.778   8.550   6.239  0.5945  1.6331  1.3356
   43ccc     C8 1296   6.839   8.389   6.361 -0.2434  0.0359 -0.3620
   43ccc    H14 1297   6.765   8.336   6.301  1.3383 -3.5241  0.7010
   43ccc    H15 1298   6.930   8.329   6.368 -0.7896 -0.7300  0.3512
   43ccc     C9 1299   6.777   8.414   6.501  0.1634  0.1250 -0.4003
   43ccc     O3 1300   6.829   8.485   6.584 -0.4498 -0.1992 -0.0900
   43ccc     O4 1301   6.645   8.426   6.499  0.1823  0.2506  0.6466
   43ccc    H16 1302   6.619   8.374   6.421  1.0446 -0.8283  1.0723
   43ccc     O5 1303   7.422   8.729   6.172 -0.3521 -0.1764  0.1596
   44ccc     C1 1304   5.989   8.949   6.492  0.4300 -0.5518 -0.1798
   44ccc     H1 1305   6.078   9.012   6.500 -0.6758  0.8555  1.3153
   44ccc     H2 1306   6.010   8.843   6.512 -1.7776 -0.7789  1.1115
   44ccc     C2 1307   5.925   8.979   6.352  0.3019 -0.4062  0.0105
   44ccc     H3 1308   5.816   8.986   6.352  0.3832  2.4315 -3.7174
   44ccc     H4 1309   5.933   8.897   6.280 -1.1716 -0.7604  0.2356
   44ccc     C3 1310   5.968   9.118   6.291  0.2246  0.0672  0.8128
   44ccc     H5 1311   5.939   9.192   6.367  0.0559  0.6549  0.1848
   44ccc     H6 1312   5.903   9.137   6.205  0.5500 -0.8923  0.3578
   44ccc     N1 1313   6.111   9.133   6.256 -0.2751 -0.6393 -0.3860
   44ccc     C4 1314   6.145   9.253   6.192  0.1310 -0.0775 -0.1444
   44ccc     H7 1315   6.085   9.280   6.104  1.6186 -0.8567 -1.4216
   44ccc     H8 1316   6.249   9.250   6.157 -0.4276  1.6178 -2.0705
   44ccc     C5 1317   6.120   9.383   6.273  0.0715 -0.5735  0.0043
   44ccc     H9 1318   6.174   9.375   6.368  0.0249  1.9667  0.2772
   44ccc    H10 1319   6.015   9.389   6.303 -0.2905  0.9274 -1.5116
   44ccc     C6 1320   6.149   9.512   6.194 -0.7130 -0.0906 -0.4525
   44ccc     O1 1321   6.071   9.549   6.110 -0.1139 -0.2691  0.1773
   44ccc     O2 1322   6.279   9.523   6.170  0.2833 -0.7965 -0.4919
   44ccc    H11 1323   6.318   9.464   6.237 -0.7686 -1.0272 -0.0736
   44ccc     C7 1324   6.194   9.020   6.229 -0.9378  0.3728 -0.0186
   44ccc    H12 1325   6.298   9.054   6.234 -0.5153 -0.6638 -1.3143
   44ccc    H13 1326   6.177   8.942   6.305  2.0819  0.8989  1.2593
   44ccc     C8 1327   6.169   8.958   6.092  0.3551  0.4129  0.1326
   44ccc    H14 1328   6.063   8.930   6.089  0.4523  0.2264 -2.0457
   44ccc    H15 1329   6.184   9.030   6.011  2.2992 -0.6679 -0.5191
   44ccc     C9 1330   6.252   8.833   6.064 -0.2376  0.3385 -0.9431
   44ccc     O3 1331   6.332   8.788   6.146  0.0541 -0.6349  0.2298
   44ccc     O4 1332   6.279   8.813   5.936 -0.0067 -0.3340  0.3647
   44ccc    H16 1333   6.203   8.857   5.894  0.2337  1.0870  1.4106
   44ccc     O5 1334   5.902   8.998   6.592 -0.4793 -0.3326  0.2016
   45ccc     C1 1335   6.098   9.103   7.552  0.1885 -0.0165  0.7399
   45ccc     H1 1336   6.152   9.015   7.590 -0.8403  0.0582  2.4455
   45ccc     H2 1337   6.147   9.196   7.584  0.6761 -0.9589  2.7923
   45ccc     C2 1338   5.951   9.101   7.585  0.1634 -0.2343 -0.3352
   45ccc     H3 1339   5.916   9.204   7.574  1.2941  0.1379 -0.5892
   45ccc     H4 1340   5.942   9.080   7.692  0.9030 -2.1347 -0.6268
   45ccc     C3 1341   5.861   8.993   7.521 -0.9232  0.1881  0.2221
   45ccc     H5 1342   5.862   9.020   7.415  0.1454  0.6622  0.3562
   45ccc     H6 1343   5.755   8.989   7.552 -0.4192 -2.1242  1.8087
   45ccc     N1 1344   5.921   8.860   7.534 -0.0193 -0.4729  0.0082
   45ccc     C4 1345   5.879   8.771   7.422 -0.6743 -0.3533 -0.5337
   45ccc     H7 1346   5.938   8.679   7.418  0.1670  0.0989  1.0117
   45ccc     H8 1347   5.918   8.815   7.329 -0.6014  0.4051 -0.1497
   45ccc     C5 1348   5.728   8.745   7.405  0.1864  0.5625  0.3074
   45ccc     H9 1349   5.680   8.736   7.503 -0.2440  1.3034  0.1675
   45ccc    H10 1350   5.677   8.827   7.353  0.4526  1.3392  1.2481
   45ccc     C6 1351   5.689   8.616   7.334  0.0963 -0.1816  0.1462
   45ccc     O1 1352   5.763   8.537   7.280  0.3335 -0.1910  0.1789
   45ccc     O2 1353   5.553   8.606   7.324 -0.2777 -0.2947  0.5024
   45ccc    H11 1354   5.520   8.684   7.373  1.7642  2.0384 -1.6759
   45ccc     C7 1355   5.897   8.796   7.665 -0.1142  0.3137  0.3210
   45ccc    H12 1356   5.938   8.872   7.734  1.0790 -0.2109  0.1980
   45ccc    H13 1357   5.788   8.789   7.681 -0.2149  0.2677 -0.3797
   45ccc     C8 1358   5.961   8.660   7.689  0.3915 -0.2380  0.1862
   45ccc    H14 1359   5.917   8.584   7.622  1.6543  0.6452 -1.7129
   45ccc    H15 1360   6.067   8.682   7.670  0.5975  2.0409  3.6389
   45ccc     C9 1361   5.949   8.604   7.827 -1.0088  0.3395 -0.0344
   45ccc     O3 1362   5.923   8.669   7.926 -0.2496 -0.6879  0.2866
   45ccc     O4 1363   6.024   8.496   7.852  0.0519 -0.4537  0.1297
   45ccc    H16 1364   6.013   8.470   7.759 -1.3750 -1.6251  0.6166
   45ccc     O5 1365   6.116   9.118   7.405 -0.1296  0.2850 -0.1030
   46ccc     C1 1366   8.081   9.132   7.185 -0.2784  0.4321  0.0598
   46ccc     H1 1367   8.010   9.214   7.205 -1.2486 -0.1641 -0.9236
   46ccc     H2 1368   8.177   9.177   7.213 -0.8913  2.0415 -0.3396
   46ccc     C2 1369   8.091   9.090   7.035 -0.4095  0.5092  0.6543
   46ccc     H3 1370   8.101   9.186   6.982 -0.8160  0.3160  0.2235
   46ccc     H4 1371   8.003   9.033   7.003  2.4091 -3.3040 -0.7095
   46ccc     C3 1372   8.214   9.006   6.989 -0.3783 -0.0980 -0.0993
   46ccc     H5 1373   8.213   8.910   7.042  0.8956  0.4933  1.0217
   46ccc     H6 1374   8.312   9.048   7.018  0.6783 -1.3889 -1.7228
   46ccc     N1 1375   8.214   8.977   6.842 -0.2570 -0.4684 -0.1312
   46ccc     C4 1376   8.307   8.878   6.790 -0.0713 -0.3574  0.6038
   46ccc     H7 1377   8.290   8.863   6.683  0.1538  0.1795  0.4882
   46ccc     H8 1378   8.408   8.922   6.794 -0.6320  1.5254 -3.2675
   46ccc     C5 1379   8.305   8.741   6.864 -0.6512  0.6089  0.0446
   46ccc     H9 1380   8.199   8.712   6.868 -0.1913 -1.1471 -0.2582
   46ccc    H10 1381   8.346   8.744   6.965 -0.3360 -0.3679 -0.0496
   46ccc     C6 1382   8.383   8.626   6.797 -0.6115 -0.2918 -0.4763
   46ccc     O1 1383   8.440   8.623   6.692  0.2005 -0.5082  0.2143
   46ccc     O2 1384   8.373   8.512   6.870  0.6020 -0.6772 -0.6334
   46ccc    H11 1385   8.313   8.534   6.943  0.6749  0.9198 -1.0406
   46ccc     C7 1386   8.200   9.098   6.753 -0.3211 -0.2283  0.0266
   46ccc    H12 1387   8.165   9.059   6.657  1.6356 -0.9070 -0.4445
   46ccc    H13 1388   8.116   9.164   6.776 -0.2742 -0.4870  0.9568
   46ccc     C8 1389   8.325   9.181   6.735 -0.8242 -0.4741 -0.1380
   46ccc    H14 1390   8.367   9.199   6.835  0.3345  2.1529 -1.0452
   46ccc    H15 1391   8.408   9.135   6.680  1.9024  2.2898  1.4093
   46ccc     C9 1392   8.285   9.312   6.673 -0.2891 -1.0123  0.2859
   46ccc     O3 1393   8.278   9.338   6.556  0.3846  0.4670  0.1935
   46ccc     O4 1394   8.264   9.417   6.758  0.1382 -0.0778  0.3590
   46ccc    H16 1395   8.269   9.377   6.846  0.2089 -2.7802 -0.8111
   46ccc     O5 1396   8.053   9.008   7.257 -0.2504 -0.9020  0.0241
   47ccc     C1 1397   8.165   8.595   7.565  0.8438  1.1909 -0.5494
   47ccc     H1 1398   8.155   8.579   7.457  0.9498  1.5970 -0.6188
   47ccc     H2 1399   8.253   8.658   7.581 -0.5953  2.7240  1.5540
   47ccc     C2 1400   8.190   8.454   7.628  0.7839 -0.0946 -0.4994
   47ccc     H3 1401   8.130   8.378   7.576  1.5902  1.5431 -3.9679
   47ccc     H4 1402   8.172   8.456   7.736 -2.9279  1.0820 -1.0483
   47ccc     C3 1403   8.335   8.406   7.613  0.2582  0.3977  0.5099
   47ccc     H5 1404   8.401   8.485   7.652 -1.6772  1.7821  1.0749
   47ccc     H6 1405   8.346   8.400   7.504 -1.8680  1.5470  0.2056
   47ccc     N1 1406   8.358   8.277   7.686 -0.0259 -0.0059 -0.5560
   47ccc     C4 1407   8.344   8.156   7.602 -0.2510 -0.6959 -0.4529
   47ccc     H7 1408   8.245   8.154   7.553 -1.1000  1.2992  1.1082
   47ccc     H8 1409   8.357   8.069   7.667  1.4341  0.4056  0.7251
   47ccc     C5 1410   8.461   8.144   7.505  0.4580  0.3218  0.2502
   47ccc     H9 1411   8.476   8.236   7.447  1.0771 -0.3125 -0.6072
   47ccc    H10 1412   8.546   8.138   7.575 -1.2287 -0.1273  2.3150
   47ccc     C6 1413   8.443   8.021   7.427  0.1364 -0.0992 -0.3709
   47ccc     O1 1414   8.451   7.912   7.483  0.2278  0.0458 -0.1806
   47ccc     O2 1415   8.351   8.025   7.335 -0.1446 -0.0112 -0.1956
   47ccc    H11 1416   8.353   8.117   7.303  0.0955 -0.6631 -2.1573
   47ccc     C7 1417   8.442   8.273   7.804 -0.4989  0.0533 -0.2090
   47ccc    H12 1418   8.488   8.175   7.823  2.5941  1.1931 -1.4564
   47ccc    H13 1419   8.532   8.334   7.786 -1.1382  0.6093 -1.6094
   47ccc     C8 1420   8.364   8.313   7.931 -0.9866  0.4637  0.3864
   47ccc    H14 1421   8.268   8.261   7.935 -1.8759  1.9697 -0.7824
   47ccc    H15 1422   8.347   8.419   7.909  2.2180  0.9084 -0.2194
   47ccc     C9 1423   8.430   8.288   8.066  0.0930 -0.0755 -0.0042
   47ccc     O3 1424   8.544   8.249   8.082 -0.2365  0.0829  0.4015
   47ccc     O4 1425   8.365   8.321   8.173  0.4702  0.5622  0.4606
   47ccc    H16 1426   8.283   8.358   8.138  1.6610  0.3123 -2.7203
   47ccc     O5 1427   8.049   8.649   7.632 -0.4525 -0.1677 -0.2646
   48ccc     C1 1428   7.932   7.465   7.996  0.2151  0.1258  0.0681
   48ccc     H1 1429   7.974   7.403   7.915 -0.1231  0.5071 -0.4016
   48ccc     H2 1430   8.013   7.531   8.031  0.0323  0.9447 -1.0214
   48ccc     C2 1431   7.869   7.373   8.098  0.7872 -0.7054 -0.2923
   48ccc     H3 1432   7.764   7.361   8.067 -0.3125  2.6378  1.9051
   48ccc     H4 1433   7.862   7.429   8.192  1.1681 -2.3399  0.7324
   48ccc     C3 1434   7.944   7.242   8.109  0.1494  1.3344  0.1511
   48ccc     H5 1435   8.052   7.260   8.108  0.2707  0.7071  0.8696
   48ccc     H6 1436   7.907   7.177   8.029  0.3708  2.3891 -0.8158
   48ccc     N1 1437   7.913   7.182   8.237  0.4171  0.3691  0.6970
   48ccc     C4 1438   8.037   7.128   8.301  0.1578  0.8278 -1.0533
   48ccc     H7 1439   8.020   7.128   8.409  1.2896  1.8382 -0.8577
   48ccc     H8 1440   8.131   7.184   8.297 -0.2928  1.5879 -1.0639
   48ccc     C5 1441   8.074   6.983   8.250 -0.3862 -0.1538  0.3249
   48ccc     H9 1442   8.168   6.939   8.287 -0.5764 -2.9266 -2.2513
   48ccc    H10 1443   7.995   6.915   8.283 -0.1305 -0.6958 -0.1821
   48ccc     C6 1444   8.096   6.968   8.102 -0.3188  0.2820  0.5899
   48ccc     O1 1445   8.027   6.900   8.033 -0.0327  0.3438 -0.1357
   48ccc     O2 1446   8.210   7.018   8.059 -0.7079  0.1845 -0.3079
   48ccc    H11 1447   8.257   7.044   8.141  1.0744 -1.4889 -0.7530
   48ccc     C7 1448   7.805   7.081   8.234  0.0217 -0.8559  0.7197
   48ccc    H12 1449   7.799   7.028   8.330  0.0376 -1.6652  0.2775
   48ccc    H13 1450   7.812   6.999   8.161  1.7197 -0.4921  0.4529
   48ccc     C8 1451   7.661   7.155   8.236  0.3100  0.1074  0.2303
   48ccc    H14 1452   7.650   7.241   8.303 -0.5633 -0.6729  1.0872
   48ccc    H15 1453   7.639   7.195   8.136  0.5716  0.9429  0.4975
   48ccc     C9 1454   7.553   7.036   8.256 -1.0358  0.4253  0.0761
   48ccc     O3 1455   7.567   6.922   8.206 -0.7982  0.2300 -0.0706
   48ccc     O4 1456   7.435   7.070   8.304 -0.1461  0.1746 -0.4598
   48ccc    H16 1457   7.444   7.165   8.321  0.3960 -0.4556  3.2338
   48ccc     O5 1458   7.825   7.546   7.949 -0.3766  0.1657  0.2769
   49ccc     C1 1459   7.292   7.668   7.430 -0.0320 -0.4893 -0.0246
   49ccc     H1 1460   7.197   7.677   7.484  0.9124  4.0881  1.0959
   49ccc     H2 1461   7.277   7.732   7.342  0.4334  2.7774  2.1723
   49ccc     C2 1462   7.338   7.529   7.391 -0.4143 -0.0961  0.4696
   49ccc     H3 1463   7.373   7.485   7.485  0.3734 -1.9498 -0.6629
   49ccc     H4 1464   7.423   7.534   7.322 -1.4225  0.4031 -0.7645
   49ccc     C3 1465   7.223   7.448   7.331  0.3716 -0.4619  0.0205
   49ccc     H5 1466   7.201   7.509   7.242  2.0366  0.7226  0.3849
   49ccc     H6 1467   7.126   7.458   7.382  0.1313  0.5779 -0.6161
   49ccc     N1 1468   7.241   7.309   7.316  0.1855  0.0083 -0.1754
   49ccc     C4 1469   7.195   7.225   7.423  0.2857  0.4642 -0.5672
   49ccc     H7 1470   7.208   7.278   7.518 -0.6327  0.1677 -0.2739
   49ccc     H8 1471   7.254   7.132   7.417  0.6314  0.7124 -1.0412
   49ccc     C5 1472   7.038   7.191   7.417 -0.5538 -0.6271 -0.5049
   49ccc     H9 1473   6.984   7.282   7.390  1.0267 -0.3615 -2.8489
   49ccc    H10 1474   7.006   7.115   7.345 -2.2132 -0.7883  0.3734
   49ccc     C6 1475   6.979   7.151   7.554  0.2334  0.1411 -0.0190
   49ccc     O1 1476   6.883   7.206   7.608 -0.2587 -0.2020 -0.9419
   49ccc     O2 1477   7.012   7.034   7.609 -0.1037 -0.7585  0.4465
   49ccc    H11 1478   7.069   6.987   7.545 -0.2087  0.1577 -0.3197
   49ccc     C7 1479   7.228   7.260   7.178  0.2285 -0.2451 -0.1625
   49ccc    H12 1480   7.135   7.287   7.127  1.4170  5.0514  0.2004
   49ccc    H13 1481   7.301   7.304   7.109  0.4779 -1.0391 -0.4115
   49ccc     C8 1482   7.259   7.109   7.162 -0.0451 -0.1660  0.0152
   49ccc    H14 1483   7.364   7.095   7.190 -0.6045  0.1852  2.4443
   49ccc    H15 1484   7.191   7.044   7.219  1.1588 -1.6803 -0.2294
   49ccc     C9 1485   7.237   7.047   7.026  1.0717 -0.2491  0.6892
   49ccc     O3 1486   7.176   7.101   6.939 -0.4866 -0.0775  0.1749
   49ccc     O4 1487   7.303   6.938   6.994 -0.9539 -0.1639 -0.5716
   49ccc    H16 1488   7.358   6.932   7.074 -1.0838  1.2335 -0.3542
   49ccc     O5 1489   7.386   7.728   7.516  0.0062 -0.0576  0.0657
   50ccc     C1 1490   7.534   7.348   7.853  0.1648 -0.5480 -0.2451
   50ccc     H1 1491   7.591   7.427   7.901  0.3378 -1.2190  0.6607
   50ccc     H2 1492   7.552   7.253   7.906  0.8065  2.0615  4.4278
   50ccc     C2 1493   7.583   7.341   7.708 -0.8394  0.1430 -0.0561
   50ccc     H3 1494   7.686   7.304   7.713 -1.9309 -2.9187  1.7046
   50ccc     H4 1495   7.588   7.443   7.668 -0.0193  0.6438  1.2814
   50ccc     C3 1496   7.508   7.239   7.618 -0.0655  0.2182 -0.1023
   50ccc     H5 1497   7.556   7.251   7.521  2.3044 -3.1232  0.5906
   50ccc     H6 1498   7.407   7.278   7.600 -0.4949 -0.7351  0.2305
   50ccc     N1 1499   7.515   7.095   7.662  0.1701 -0.3319 -0.2671
   50ccc     C4 1500   7.393   7.017   7.669 -1.3717 -0.7436 -0.1035
   50ccc     H7 1501   7.409   6.912   7.697 -0.5860 -0.6111 -0.0326
   50ccc     H8 1502   7.345   7.019   7.570  0.0884 -0.6810 -0.8198
   50ccc     C5 1503   7.299   7.076   7.777  0.8430  0.3738 -0.1965
   50ccc     H9 1504   7.285   7.183   7.762 -1.0175  0.4891  2.0226
   50ccc    H10 1505   7.195   7.041   7.785  0.0963  2.3201 -1.2830
   50ccc     C6 1506   7.356   7.064   7.915 -0.3864  0.7686  0.6060
   50ccc     O1 1507   7.472   7.037   7.942  0.3618  0.2395  0.4407
   50ccc     O2 1508   7.286   7.124   8.014 -0.0795  0.0868  0.2125
   50ccc    H11 1509   7.206   7.144   7.962 -0.5225 -0.3038  0.7298
   50ccc     C7 1510   7.637   7.016   7.618 -0.1755 -0.9184  0.0244
   50ccc    H12 1511   7.607   6.950   7.536 -1.6393 -0.3457  0.0856
   50ccc    H13 1512   7.718   7.073   7.572 -0.9055 -1.3549 -1.8220
   50ccc     C8 1513   7.698   6.938   7.733 -0.3636  0.1353 -0.9509
   50ccc    H14 1514   7.765   6.860   7.695 -1.8744 -1.3163 -0.6744
   50ccc    H15 1515   7.617   6.887   7.786  1.7488 -2.3877 -0.0795
   50ccc     C9 1516   7.782   7.033   7.812 -0.0020  0.1076 -0.0970
   50ccc     O3 1517   7.902   7.048   7.793 -0.0200  0.2886 -0.0687
   50ccc     O4 1518   7.728   7.072   7.932  0.0574 -0.3781  0.2883
   50ccc    H16 1519   7.634   7.049   7.921 -0.6599  3.0534 -1.5478
   50ccc     O5 1520   7.390   7.369   7.863 -0.0966 -0.5048  0.2529
   51ccc     C1 1521   7.088   8.136   7.821  0.0658  0.1024 -0.3383
   51ccc     H1 1522   7.144   8.059   7.766  0.1205  0.0186 -0.1668
   51ccc     H2 1523   7.118   8.232   7.776  0.2339 -0.0217 -0.4947
   51ccc     C2 1524   7.140   8.149   7.969  0.3944  0.0467  0.3540
   51ccc     H3 1525   7.081   8.234   8.006  0.4437  0.2915 -0.1307
   51ccc     H4 1526   7.242   8.189   7.977 -0.7693  3.1114  0.9260
   51ccc     C3 1527   7.122   8.024   8.055 -0.7290  0.4127  0.2622
   51ccc     H5 1528   7.165   7.941   7.999  0.2577  0.7655  0.4948
   51ccc     H6 1529   7.017   7.995   8.067 -0.8980  0.8229 -0.1957
   51ccc     N1 1530   7.189   8.034   8.189  0.2851 -0.2349 -0.8974
   51ccc     C4 1531   7.160   8.159   8.268 -0.1834  0.5748  0.4334
   51ccc     H7 1532   7.160   8.249   8.205 -0.5183  0.8652  0.8443
   51ccc     H8 1533   7.234   8.165   8.349  1.2393 -2.2769 -0.5831
   51ccc     C5 1534   7.018   8.147   8.330  0.0191  0.5883 -0.0315
   51ccc     H9 1535   6.937   8.126   8.260  1.1082 -1.6253 -0.6355
   51ccc    H10 1536   7.012   8.076   8.414  3.6866  0.1932 -0.0065
   51ccc     C6 1537   6.990   8.282   8.402  0.5896  0.5506 -0.2263
   51ccc     O1 1538   7.018   8.299   8.521 -0.2860 -0.2034  0.3437
   51ccc     O2 1539   6.966   8.389   8.334  0.1829 -0.1371  0.0995
   51ccc    H11 1540   6.932   8.346   8.254 -2.4225  1.3653  0.3340
   51ccc     C7 1541   7.183   7.913   8.272  0.1948  0.3439 -1.0481
   51ccc    H12 1542   7.174   7.930   8.380 -0.4740  0.0180 -1.0558
   51ccc    H13 1543   7.103   7.844   8.244  1.2494 -1.1350 -0.4906
   51ccc     C8 1544   7.312   7.826   8.253  0.4291  0.1964  0.1281
   51ccc    H14 1545   7.401   7.884   8.282  2.2617 -2.4387 -0.0733
   51ccc    H15 1546   7.324   7.787   8.151  2.7094 -1.1384  0.8897
   51ccc     C9 1547   7.314   7.711   8.351  0.5418 -0.6604 -0.5715
   51ccc     O3 1548   7.269   7.705   8.461  1.0977 -0.0962 -0.5042
   51ccc     O4 1549   7.402   7.614   8.328  0.2123 -0.6496  0.4354
   51ccc    H16 1550   7.456   7.650   8.256  0.2644 -1.6132 -0.0133
   51ccc     O5 1551   6.954   8.087   7.822  0.3407  0.2228 -0.1270
   52ccc     C1 1552   8.152   7.484   7.480 -0.2190 -0.2145  0.1789
   52ccc     H1 1553   8.164   7.375   7.479  0.0560 -0.2066  1.4306
   52ccc     H2 1554   8.163   7.518   7.377 -0.5234  2.1445  0.8926
   52ccc     C2 1555   8.267   7.545   7.563  0.6841  0.3201 -0.9561
   52ccc     H3 1556   8.233   7.648   7.580  0.3881  0.0356  0.2620
   52ccc     H4 1557   8.355   7.550   7.498  1.5089  1.4903  0.2293
   52ccc     C3 1558   8.280   7.489   7.709  0.4552  0.2849 -0.8360
   52ccc     H5 1559   8.180   7.475   7.752 -0.4026 -0.4013 -3.0071
   52ccc     H6 1560   8.329   7.564   7.772 -1.4927  0.4185  0.5299
   52ccc     N1 1561   8.359   7.370   7.702  0.5606  0.6484  0.2376
   52ccc     C4 1562   8.507   7.401   7.694  0.2646 -0.5093 -0.1005
   52ccc     H7 1563   8.526   7.494   7.638  0.5894  0.3093  1.3571
   52ccc     H8 1564   8.550   7.409   7.794  0.0847 -1.7302  0.0847
   52ccc     C5 1565   8.584   7.278   7.630  0.0542  0.0152 -0.2322
   52ccc     H9 1566   8.553   7.264   7.526 -0.6113  0.2597 -0.0642
   52ccc    H10 1567   8.555   7.187   7.683 -2.9566  1.2837  0.3747
   52ccc     C6 1568   8.736   7.302   7.631 -0.1721 -0.3079 -0.5478
   52ccc     O1 1569   8.790   7.401   7.682 -0.2359 -1.0021 -0.6625
   52ccc     O2 1570   8.799   7.262   7.519 -0.4382  0.2251  0.3428
   52ccc    H11 1571   8.726   7.215   7.475 -0.0432  1.3877 -1.5882
   52ccc     C7 1572   8.313   7.263   7.798  0.7165 -0.3843  0.5629
   52ccc    H12 1573   8.388   7.184   7.809 -1.0448 -2.3127 -1.0566
   52ccc    H13 1574   8.306   7.307   7.898  2.0440 -0.9947  0.9359
   52ccc     C8 1575   8.171   7.197   7.761  0.8577 -0.5632 -0.4641
   52ccc    H14 1576   8.097   7.276   7.745  0.7755 -0.3713  0.8283
   52ccc    H15 1577   8.136   7.131   7.842 -3.2733 -0.4414 -2.0555
   52ccc     C9 1578   8.179   7.116   7.635  0.9421 -0.1700  0.0318
   52ccc     O3 1579   8.272   7.110   7.562 -0.2260  0.8734  0.8973
   52ccc     O4 1580   8.057   7.084   7.594  0.8846  0.0039 -0.2994
   52ccc    H16 1581   8.010   7.096   7.678  0.0016  1.3721 -0.9513
   52ccc     O5 1582   8.021   7.507   7.539 -0.4731  0.1825 -0.0364
   53ccc     C1 1583   8.036   6.652   7.201 -0.0600 -0.4406  0.4180
   53ccc     H1 1584   7.965   6.611   7.129 -2.5909  0.0476  2.5300
   53ccc     H2 1585   8.128   6.641   7.142  0.4409  0.7416  0.9538
   53ccc     C2 1586   8.023   6.565   7.327  0.6263  0.5319 -0.6687
   53ccc     H3 1587   8.027   6.465   7.284 -0.2708  0.4317 -0.5182
   53ccc     H4 1588   7.924   6.568   7.373  0.9084  0.2890 -0.0458
   53ccc     C3 1589   8.126   6.588   7.439  0.0284  0.2704 -0.9707
   53ccc     H5 1590   8.121   6.517   7.523  1.4028  2.1889  0.7929
   53ccc     H6 1591   8.097   6.680   7.491 -1.4760 -1.7579  1.9397
   53ccc     N1 1592   8.265   6.598   7.391  0.0391 -0.7125 -0.1490
   53ccc     C4 1593   8.315   6.476   7.330 -0.6027 -0.0237 -0.3675
   53ccc     H7 1594   8.241   6.405   7.291 -0.0707 -0.5971 -0.3441
   53ccc     H8 1595   8.365   6.419   7.409 -0.1477  0.5579 -0.2294
   53ccc     C5 1596   8.421   6.499   7.224 -0.0894  0.0755 -0.6239
   53ccc     H9 1597   8.496   6.566   7.267  0.3189  0.0421 -1.2841
   53ccc    H10 1598   8.472   6.404   7.203  1.7621  0.7393  0.7422
   53ccc     C6 1599   8.365   6.534   7.084 -0.3736  0.5070  0.3502
   53ccc     O1 1600   8.279   6.457   7.036 -0.1794  0.4128 -0.1826
   53ccc     O2 1601   8.349   6.664   7.062  0.9227  0.0975  0.4188
   53ccc    H11 1602   8.387   6.713   7.137 -2.5337  2.3880  0.7497
   53ccc     C7 1603   8.360   6.674   7.473  0.4146 -0.2251 -0.2339
   53ccc    H12 1604   8.340   6.639   7.575 -3.2414  1.5760 -0.2269
   53ccc    H13 1605   8.467   6.655   7.457  0.2226 -0.9340 -0.6807
   53ccc     C8 1606   8.341   6.824   7.472  0.4314 -0.8317 -0.1026
   53ccc    H14 1607   8.236   6.852   7.487  0.4858 -0.3014 -0.6593
   53ccc    H15 1608   8.397   6.877   7.550  3.1257 -1.2481 -1.6936
   53ccc     C9 1609   8.373   6.896   7.342 -0.1078  0.1913 -0.2260
   53ccc     O3 1610   8.429   6.833   7.250  0.0143 -0.0319 -0.8287
   53ccc     O4 1611   8.344   7.029   7.331  0.3020 -0.1504 -0.2835
   53ccc    H16 1612   8.314   7.046   7.422 -0.0464 -3.6735  0.3408
   53ccc     O5 1613   8.001   6.786   7.249  0.4431 -0.0825 -0.4283
   54ccc     C1 1614   7.674   9.670   5.788  0.0533 -0.0328  0.4725
   54ccc     H1 1615   7.650   9.746   5.863 -1.2724 -0.7733  0.7892
   54ccc     H2 1616   7.779   9.686   5.756  0.8282  1.2068  3.4835
   54ccc     C2 1617   7.589   9.703   5.657  0.6051 -0.3550 -0.3717
   54ccc     H3 1618   7.585   9.812   5.646  0.7028 -0.2616  0.4380
   54ccc     H4 1619   7.490   9.660   5.674  0.6142  0.5475  2.0852
   54ccc     C3 1620   7.660   9.649   5.529 -0.0879 -0.0147  0.0379
   54ccc     H5 1621   7.667   9.540   5.531 -3.4147 -0.2925 -0.3149
   54ccc     H6 1622   7.759   9.697   5.520  0.5163 -1.3187 -0.3640
   54ccc     N1 1623   7.587   9.682   5.408  0.5260  0.0729  0.0818
   54ccc     C4 1624   7.446   9.643   5.416 -0.6192  0.6006  0.4443
   54ccc     H7 1625   7.385   9.702   5.346 -0.8262 -1.2885 -1.0410
   54ccc     H8 1626   7.408   9.674   5.514 -0.1507  0.5254  0.6513
   54ccc     C5 1627   7.408   9.491   5.387  0.2849 -0.3453  0.3515
   54ccc     H9 1628   7.324   9.473   5.455 -0.5509 -1.2692 -0.9103
   54ccc    H10 1629   7.496   9.437   5.421  0.4523 -0.9150 -0.9598
   54ccc     C6 1630   7.359   9.456   5.244 -0.5857  0.1722 -0.1662
   54ccc     O1 1631   7.361   9.533   5.149 -0.1616 -0.2196  0.4688
   54ccc     O2 1632   7.301   9.341   5.237 -0.5518 -0.2558 -0.2843
   54ccc    H11 1633   7.315   9.301   5.324 -4.0710 -1.0960 -0.0016
   54ccc     C7 1634   7.637   9.628   5.278  0.0281 -0.3612 -0.0395
   54ccc    H12 1635   7.624   9.519   5.268  1.5965 -0.5411 -0.2161
   54ccc    H13 1636   7.563   9.666   5.206 -0.3877 -0.4077  0.3638
   54ccc     C8 1637   7.786   9.667   5.241 -0.4262 -0.3700 -0.2647
   54ccc    H14 1638   7.821   9.597   5.163  0.9895  0.3026 -0.2612
   54ccc    H15 1639   7.844   9.646   5.331 -1.7569 -0.5737  0.5460
   54ccc     C9 1640   7.815   9.813   5.209  0.5854  0.9686 -0.0915
   54ccc     O3 1641   7.821   9.903   5.287 -0.0563  0.0203 -0.2038
   54ccc     O4 1642   7.794   9.837   5.084  0.1139 -0.0854 -0.1299
   54ccc    H16 1643   7.783   9.749   5.043 -1.0017  0.8603 -1.9152
   54ccc     O5 1644   7.644   9.536   5.829  0.1712 -0.1533 -0.0170
   55ccc     C1 1645   7.119   9.018   5.736  0.2272 -0.1545  0.0256
   55ccc     H1 1646   7.123   9.120   5.775  0.5171  0.5055 -1.6923
   55ccc     H2 1647   7.149   9.021   5.631  2.3146  0.5334  0.6236
   55ccc     C2 1648   6.971   8.977   5.757 -0.1634 -0.4035  0.5912
   55ccc     H3 1649   6.944   8.879   5.715 -0.0398 -0.1786 -0.0162
   55ccc     H4 1650   6.911   9.049   5.699 -0.6665 -0.1302  1.4394
   55ccc     C3 1651   6.927   8.967   5.910  0.0076 -0.1965  0.3990
   55ccc     H5 1652   6.943   9.062   5.961 -1.5528  1.0608 -1.3672
   55ccc     H6 1653   6.992   8.889   5.952  1.8785  0.5586 -1.0275
   55ccc     N1 1654   6.787   8.939   5.925  0.0356  0.2298  0.8507
   55ccc     C4 1655   6.697   9.061   5.914  0.7471  0.0422  0.1537
   55ccc     H7 1656   6.595   9.024   5.931  1.3956 -0.7138  2.5962
   55ccc     H8 1657   6.711   9.116   5.820 -0.2816 -0.7858 -0.4915
   55ccc     C5 1658   6.733   9.155   6.033  0.0294 -0.2788 -0.1675
   55ccc     H9 1659   6.771   9.094   6.116 -3.4194  0.2007  1.8841
   55ccc    H10 1660   6.806   9.231   6.002  0.7870 -0.8004  0.3203
   55ccc     C6 1661   6.621   9.224   6.106  0.1354 -0.0598  0.6671
   55ccc     O1 1662   6.528   9.168   6.164  0.4927 -0.1484  0.1505
   55ccc     O2 1663   6.626   9.357   6.116  0.3259 -0.2841 -0.2915
   55ccc    H11 1664   6.717   9.380   6.088 -0.0879  1.1905 -0.4767
   55ccc     C7 1665   6.741   8.813   5.856  0.1761 -0.7066 -0.7045
   55ccc    H12 1666   6.742   8.833   5.748  1.1555 -1.0121 -0.7531
   55ccc    H13 1667   6.817   8.735   5.865  0.9780  0.0914 -0.4804
   55ccc     C8 1668   6.595   8.769   5.898  0.3325 -0.1653  0.0437
   55ccc    H14 1669   6.600   8.788   6.006  3.2623  3.0174 -0.5815
   55ccc    H15 1670   6.520   8.835   5.852 -2.5314 -1.8186  2.0992
   55ccc     C9 1671   6.563   8.628   5.863  0.0615 -0.7347 -0.2757
   55ccc     O3 1672   6.640   8.540   5.839 -0.2649  0.4591 -0.5904
   55ccc     O4 1673   6.436   8.590   5.857 -0.1592 -0.4758  0.2051
   55ccc    H16 1674   6.387   8.671   5.876  0.0586  0.0490 -1.3923
   55ccc     O5 1675   7.195   8.929   5.815 -0.5125  0.0616  0.5406
   56ccc     C1 1676   6.125   9.792   6.595  0.3588  0.0226 -0.1386
   56ccc     H1 1677   6.066   9.832   6.678 -0.9707 -1.5370 -0.3180
   56ccc     H2 1678   6.227   9.793   6.634  0.0777 -2.0880  0.6639
   56ccc     C2 1679   6.122   9.878   6.464  0.9282 -0.1129  0.3408
   56ccc     H3 1680   6.141   9.983   6.489  1.6962 -0.1886  0.0669
   56ccc     H4 1681   6.016   9.879   6.436  1.3174 -2.4978 -1.4254
   56ccc     C3 1682   6.217   9.821   6.351 -0.1246 -0.0621 -0.0312
   56ccc     H5 1683   6.158   9.742   6.304 -1.1577  0.1043  0.9703
   56ccc     H6 1684   6.308   9.775   6.393  1.3072 -0.0935 -3.0484
   56ccc     N1 1685   6.268   9.922   6.258 -0.1507  0.2336 -0.1058
   56ccc     C4 1686   6.168   9.985   6.174 -0.6578  0.4078 -0.2568
   56ccc     H7 1687   6.218  10.053   6.104 -1.0352 -0.0387 -0.9680
   56ccc     H8 1688   6.089  10.039   6.228  0.1551  1.1318  0.2116
   56ccc     C5 1689   6.096   9.896   6.075 -0.1619 -0.2485 -0.1710
   56ccc     H9 1690   6.163   9.834   6.013 -0.1521 -0.0984 -0.3105
   56ccc    H10 1691   6.032   9.826   6.131  0.7581 -0.3641  0.7581
   56ccc     C6 1692   5.997   9.968   5.985  0.6147 -1.0370 -0.6348
   56ccc     O1 1693   6.005  10.088   5.971 -0.0031 -0.0310  0.2990
   56ccc     O2 1694   5.890   9.898   5.941  0.5495 -0.2261  0.8529
   56ccc    H11 1695   5.924   9.808   5.953 -0.6779 -1.0773 -1.7292
   56ccc     C7 1696   6.365  10.022   6.320  0.5605 -0.1550 -0.3021
   56ccc    H12 1697   6.366  10.113   6.259  1.8442 -0.3110 -0.5352
   56ccc    H13 1698   6.311  10.063   6.406 -0.3825 -2.7490  0.3799
   56ccc     C8 1699   6.513   9.978   6.355  0.7870  0.5783 -0.3859
   56ccc    H14 1700   6.515   9.881   6.406  0.0343  0.6876 -0.1491
   56ccc    H15 1701   6.578   9.973   6.266  1.6128  1.4220  0.1662
   56ccc     C9 1702   6.580  10.073   6.449 -0.3409  0.1973 -0.5672
   56ccc     O3 1703   6.551  10.189   6.474  0.4165  0.5351 -0.0097
   56ccc     O4 1704   6.681  10.011   6.512 -0.0432 -0.1536 -0.2515
   56ccc    H16 1705   6.680   9.920   6.476 -0.5727 -0.3931  0.3675
   56ccc     O5 1706   6.084   9.663   6.550 -0.4032 -0.6381 -0.3119
   57ccc     C1 1707   6.818   9.519   6.862  0.1660  0.3699 -0.5659
   57ccc     H1 1708   6.767   9.429   6.898  1.0366  0.0169 -0.2000
   57ccc     H2 1709   6.923   9.487   6.868 -0.4261 -1.7078 -0.8442
   57ccc     C2 1710   6.799   9.641   6.956  0.3271 -0.5974 -0.2842
   57ccc     H3 1711   6.856   9.727   6.919 -0.9847 -0.1866 -1.4039
   57ccc     H4 1712   6.842   9.626   7.056  0.8257  2.4695  0.0036
   57ccc     C3 1713   6.646   9.686   6.970 -0.1651  0.1522 -0.4150
   57ccc     H5 1714   6.605   9.704   6.870  1.8583  2.0137 -0.9408
   57ccc     H6 1715   6.638   9.783   7.020  0.4110 -0.0806  0.1354
   57ccc     N1 1716   6.545   9.596   7.038 -1.5872 -0.4194  0.1173
   57ccc     C4 1717   6.578   9.556   7.182  0.2227  0.1609 -0.2207
   57ccc     H7 1718   6.552   9.633   7.256 -1.0612 -0.3471 -0.1428
   57ccc     H8 1719   6.687   9.553   7.190  0.2138 -2.5239 -0.8375
   57ccc     C5 1720   6.514   9.424   7.208  0.1836  0.4677  0.3164
   57ccc     H9 1721   6.405   9.414   7.208  0.4789 -4.8416 -3.1439
   57ccc    H10 1722   6.541   9.352   7.129 -1.1912  0.9679 -0.6318
   57ccc     C6 1723   6.556   9.375   7.349  0.1758  0.8213  0.0518
   57ccc     O1 1724   6.473   9.375   7.440 -0.5211  0.3068 -0.1954
   57ccc     O2 1725   6.687   9.329   7.368 -0.2943 -0.3293  0.2762
   57ccc    H11 1726   6.728   9.354   7.283 -0.7756 -0.3488  0.0355
   57ccc     C7 1727   6.407   9.597   6.992  0.2768 -0.5117  0.3156
   57ccc    H12 1728   6.408   9.600   6.883 -1.8211  1.5795  0.3207
   57ccc    H13 1729   6.364   9.497   7.009  2.5258 -1.8152 -1.2654
   57ccc     C8 1730   6.326   9.710   7.052 -0.1878  0.0168 -0.1573
   57ccc    H14 1731   6.366   9.809   7.030 -0.8410  0.7896  1.9729
   57ccc    H15 1732   6.327   9.711   7.162 -2.0071  0.3099 -0.1304
   57ccc     C9 1733   6.180   9.702   7.015 -0.7918 -0.2543  1.0294
   57ccc     O3 1734   6.100   9.616   7.046  0.1411 -0.5912 -0.4860
   57ccc     O4 1735   6.156   9.775   6.900  0.2022 -0.1527 -0.6311
   57ccc    H16 1736   6.233   9.832   6.883 -0.5395  1.1780  0.3924
   57ccc     O5 1737   6.782   9.550   6.725 -0.0977 -0.3068 -0.8259
   58ccc     C1 1738   8.307   8.146   8.607  0.1575 -0.5125  0.4744
   58ccc     H1 1739   8.338   8.043   8.586 -0.4772 -0.7903  0.9020
   58ccc     H2 1740   8.364   8.218   8.546  1.0504 -2.9749 -1.6957
   58ccc     C2 1741   8.330   8.185   8.755  0.1293  0.0526  0.4722
   58ccc     H3 1742   8.274   8.107   8.809  0.9027 -0.4068  0.6214
   58ccc     H4 1743   8.286   8.281   8.782  0.6965  0.3117  0.4827
   58ccc     C3 1744   8.486   8.162   8.792 -0.1111 -0.1161  0.0503
   58ccc     H5 1745   8.538   8.239   8.734 -1.6109  1.4996  0.8151
   58ccc     H6 1746   8.523   8.067   8.751  1.2317  0.1698  0.5478
   58ccc     N1 1747   8.508   8.166   8.934  1.1667  0.0405 -0.6222
   58ccc     C4 1748   8.467   8.295   8.988 -0.2367  0.4507  0.1381
   58ccc     H7 1749   8.479   8.290   9.097  1.4549 -0.1531 -0.0587
   58ccc     H8 1750   8.360   8.318   8.978 -0.7406 -0.8050  2.2982
   58ccc     C5 1751   8.548   8.418   8.952 -0.7342 -0.3706 -0.2775
   58ccc     H9 1752   8.654   8.402   8.976 -1.3198  0.5533  3.2917
   58ccc    H10 1753   8.541   8.454   8.849  3.4871 -1.8746 -1.1609
   58ccc     C6 1754   8.495   8.533   9.044  0.1281 -0.0444  0.3025
   58ccc     O1 1755   8.381   8.559   9.069  0.2593  0.4245 -0.0927
   58ccc     O2 1756   8.591   8.612   9.087 -0.3066  0.2278  0.1762
   58ccc    H11 1757   8.674   8.561   9.081  0.0300  0.9726 -1.5442
   58ccc     C7 1758   8.641   8.119   8.974 -0.3492  0.4766  0.0390
   58ccc    H12 1759   8.712   8.182   8.919 -0.2226  1.4858  1.3371
   58ccc    H13 1760   8.660   8.130   9.081 -2.2715 -3.4930  0.8776
   58ccc     C8 1761   8.677   7.967   8.949  0.1085 -0.2024 -1.0044
   58ccc    H14 1762   8.669   7.940   8.843  2.7120 -0.8657 -1.0744
   58ccc    H15 1763   8.783   7.955   8.975  0.1563 -1.6120 -1.7757
   58ccc     C9 1764   8.582   7.868   9.025 -0.7677 -0.1459 -0.3482
   58ccc     O3 1765   8.487   7.895   9.094  0.5841  0.4452  0.0130
   58ccc     O4 1766   8.620   7.738   9.010  0.1753 -0.1824 -0.5748
   58ccc    H16 1767   8.716   7.746   8.994  0.5069  0.1277  1.4226
   58ccc     O5 1768   8.165   8.161   8.582  0.5226  0.1077 -0.2856
   59ccc     C1 1769   7.943   7.448   8.470 -0.3849  0.3836  0.5417
   59ccc     H1 1770   7.957   7.339   8.469 -1.1781  0.2850 -0.7592
   59ccc     H2 1771   8.010   7.477   8.388  1.8259 -1.6583  1.5570
   59ccc     C2 1772   8.002   7.509   8.596  0.0874 -0.1017  0.0626
   59ccc     H3 1773   8.029   7.614   8.584 -0.4878 -0.0959 -1.3374
   59ccc     H4 1774   8.096   7.458   8.621  0.6724  1.0529  0.2360
   59ccc     C3 1775   7.903   7.497   8.719  0.4393  0.1944  0.6050
   59ccc     H5 1776   7.882   7.390   8.728 -0.3254  0.3597  0.7925
   59ccc     H6 1777   7.816   7.553   8.685 -0.1702 -1.2466 -0.2619
   59ccc     N1 1778   7.949   7.542   8.856 -0.9710 -0.5684  0.0099
   59ccc     C4 1779   8.079   7.479   8.893 -0.4237  0.0187  0.6436
   59ccc     H7 1780   8.167   7.501   8.831 -0.1758  0.1522  1.0432
   59ccc     H8 1781   8.068   7.370   8.892 -1.0399  0.0752 -1.5413
   59ccc     C5 1782   8.130   7.535   9.028  0.0096 -0.0491  0.0772
   59ccc     H9 1783   8.060   7.496   9.103  0.4166  0.2510  0.6180
   59ccc    H10 1784   8.111   7.643   9.039 -0.0206 -0.1948  1.5240
   59ccc     C6 1785   8.267   7.512   9.077  0.2152  0.3923 -0.0687
   59ccc     O1 1786   8.358   7.457   9.014  0.2549  0.4027  0.3691
   59ccc     O2 1787   8.294   7.537   9.206  0.0667  0.0191  0.1035
   59ccc    H11 1788   8.204   7.557   9.237 -0.6635  0.4941 -2.2117
   59ccc     C7 1789   7.838   7.543   8.957 -0.0256  0.2304  0.0646
   59ccc    H12 1790   7.826   7.443   9.001  0.0507  0.4608  0.6240
   59ccc    H13 1791   7.867   7.618   9.032  1.3830 -0.9778  0.7622
   59ccc     C8 1792   7.700   7.583   8.901 -0.9509  0.1602 -0.2888
   59ccc    H14 1793   7.666   7.503   8.834  0.3575 -2.5192  2.1200
   59ccc    H15 1794   7.699   7.672   8.837 -0.4851  0.1700 -0.2819
   59ccc     C9 1795   7.596   7.602   9.003  0.5707  0.5485 -0.7210
   59ccc     O3 1796   7.598   7.589   9.122  0.0484  0.0625 -0.4105
   59ccc     O4 1797   7.481   7.617   8.941  0.0549  0.0214  0.5064
   59ccc    H16 1798   7.495   7.621   8.845 -0.1395 -2.5146  0.3503
   59ccc     O5 1799   7.807   7.485   8.439 -0.0563  0.4325  0.2230
   60ccc     C1 1800   7.901   8.037   6.625  0.1256 -0.1408 -0.2774
   60ccc     H1 1801   7.993   8.017   6.682 -0.2773 -2.6424 -0.4192
   60ccc     H2 1802   7.835   7.951   6.648 -0.7583  1.0035  1.5892
   60ccc     C2 1803   7.920   8.050   6.475 -0.4297  0.0965 -0.2141
   60ccc     H3 1804   7.999   8.125   6.461  1.5306 -1.6786  0.9354
   60ccc     H4 1805   7.824   8.080   6.433 -1.0613 -0.0140  1.1314
   60ccc     C3 1806   7.951   7.916   6.404  0.1686 -0.2712 -0.0845
   60ccc     H5 1807   7.879   7.845   6.445  0.3264  0.8913  2.3181
   60ccc     H6 1808   8.054   7.890   6.433  1.0001 -0.1424 -2.7843
   60ccc     N1 1809   7.949   7.921   6.260 -0.6443 -0.0550 -0.1662
   60ccc     C4 1810   8.061   7.987   6.194 -0.3153 -0.4128  0.2961
   60ccc     H7 1811   8.152   7.926   6.187  0.8224  1.0726  1.7509
   60ccc     H8 1812   8.099   8.068   6.258  1.3908  0.6956 -2.0199
   60ccc     C5 1813   8.014   8.057   6.067  0.0969  0.2747 -0.1807
   60ccc     H9 1814   8.099   8.076   6.000 -1.4205  2.5466 -1.5210
   60ccc    H10 1815   7.956   7.983   6.009  1.3906 -1.0815  0.2193
   60ccc     C6 1816   7.934   8.185   6.089  0.1246  0.4016  0.0446
   60ccc     O1 1817   7.924   8.245   6.194 -0.2210  0.0514  0.1864
   60ccc     O2 1818   7.852   8.219   5.992  0.5383 -0.3073 -0.6231
   60ccc    H11 1819   7.879   8.167   5.914  3.2888  0.6124 -0.3085
   60ccc     C7 1820   7.920   7.795   6.201 -0.1720 -0.1298  0.1610
   60ccc    H12 1821   7.961   7.786   6.100 -0.9774  0.3162 -0.2078
   60ccc    H13 1822   7.970   7.709   6.248  0.0064 -0.2761 -0.2957
   60ccc     C8 1823   7.772   7.765   6.212  0.4407  0.6186  0.0923
   60ccc    H14 1824   7.734   7.776   6.315 -0.1587  1.7775 -0.2367
   60ccc    H15 1825   7.755   7.661   6.183 -0.4513  0.9789 -0.7169
   60ccc     C9 1826   7.688   7.850   6.119  0.5855 -0.5666 -0.1057
   60ccc     O3 1827   7.686   7.833   5.999  0.1798  0.1506 -0.5842
   60ccc     O4 1828   7.623   7.955   6.163  0.6852  0.1580  0.5071
   60ccc    H16 1829   7.633   7.948   6.259 -0.0377  0.3322  0.5986
   60ccc     O5 1830   7.836   8.155   6.673  0.4734  0.1871 -0.6855
   61ccc     C1 1831   7.129   8.301   6.601 -0.5322 -0.3666  0.4122
   61ccc     H1 1832   7.021   8.307   6.584 -0.4053 -0.7072 -0.5538
   61ccc     H2 1833   7.167   8.358   6.686  1.3963 -0.2658 -0.4971
   61ccc     C2 1834   7.212   8.340   6.470 -0.9821  0.7754 -0.8444
   61ccc     H3 1835   7.207   8.450   6.472  0.1179  0.8657 -2.2019
   61ccc     H4 1836   7.169   8.301   6.378 -2.4828  1.3971 -0.4206
   61ccc     C3 1837   7.359   8.301   6.483  0.1630  0.1321  0.1883
   61ccc     H5 1838   7.360   8.192   6.474  0.5337  0.1393  0.1714
   61ccc     H6 1839   7.395   8.330   6.583  0.4874  1.8840 -0.4180
   61ccc     N1 1840   7.454   8.360   6.391 -0.3338  0.0414  0.0405
   61ccc     C4 1841   7.599   8.339   6.437 -0.3262 -0.1153  0.5190
   61ccc     H7 1842   7.601   8.377   6.539  3.3031 -0.3675  0.5810
   61ccc     H8 1843   7.623   8.233   6.456  1.4071  0.6480  2.7222
   61ccc     C5 1844   7.706   8.409   6.348  0.1364  0.4085  0.7356
   61ccc     H9 1845   7.672   8.498   6.293  0.1234 -0.6715 -1.0147
   61ccc    H10 1846   7.737   8.352   6.260 -1.5950  1.2847 -0.4682
   61ccc     C6 1847   7.828   8.436   6.430  0.4681  0.2630 -0.5818
   61ccc     O1 1848   7.829   8.481   6.540  0.0466  0.0218 -0.1518
   61ccc     O2 1849   7.938   8.442   6.360 -0.3842 -0.1383 -0.3814
   61ccc    H11 1850   7.927   8.369   6.297 -1.6761 -0.9638  0.7469
   61ccc     C7 1851   7.418   8.359   6.249  0.1542  1.0325  0.2661
   61ccc    H12 1852   7.468   8.447   6.206 -0.7550  2.1637  1.4876
   61ccc    H13 1853   7.309   8.368   6.238  0.0921 -0.4651 -0.4190
   61ccc     C8 1854   7.465   8.228   6.183  0.3526 -0.3686 -0.4355
   61ccc    H14 1855   7.430   8.142   6.242  0.6845 -0.3670 -0.2332
   61ccc    H15 1856   7.573   8.212   6.190  0.4207  1.1967  2.3596
   61ccc     C9 1857   7.418   8.206   6.038  0.3426  0.9179 -0.0088
   61ccc     O3 1858   7.381   8.294   5.968 -0.6417  0.1553 -0.1100
   61ccc     O4 1859   7.485   8.106   5.982 -0.6512  0.1817  0.2075
   61ccc    H16 1860   7.536   8.072   6.058 -1.2461  0.3087  0.6690
   61ccc     O5 1861   7.161   8.165   6.642  0.0098 -0.9103  0.5136
   62SOL     OW 1862   2.407   8.107   4.384 -0.0238  0.0969 -0.6705
   62SOL    HW1 1863   2.478   8.170   4.384  0.2648 -0.2088  1.0892
   62SOL    HW2 1864   2.432   8.042   4.317  1.1496  0.1904 -0.3247
   63SOL     OW 1865   2.222   2.486   4.051  0.0703 -0.3386 -0.0090
   63SOL    HW1 1866   2.186   2.416   3.997 -0.3583 -0.0428 -0.1164
   63SOL    HW2 1867   2.184   2.566   4.014 -1.2700 -0.2306  1.5124
   64SOL     OW 1868   3.943   1.444   0.311  0.8431 -0.1449  0.0605
   64SOL    HW1 1869   3.864   1.391   0.296  1.4605 -1.6059  1.7765
   64SOL    HW2 1870   3.911   1.521   0.358  0.2330 -0.0264 -0.5446
   65SOL     OW 1871   0.658   0.111   3.720  0.0445  0.1445  0.1742
   65SOL    HW1 1872   0.654   0.074   3.809  0.2856  1.5122  0.7722
   65SOL    HW2 1873   0.575   0.085   3.680  0.0853 -0.7948  0.6674
   66SOL     OW 1874   1.388   5.578   3.465 -0.8222 -0.0167  0.1356
   66SOL    HW1 1875   1.461   5.586   3.402 -1.7628 -0.5203 -1.0457
   66SOL    HW2 1876   1.351   5.665   3.469  0.4223  0.4672  1.4672
   67SOL     OW 1877   7.513   6.701   1.032  0.6319 -0.7393  0.1621
   67SOL    HW1 1878   7.518   6.795   1.019  1.3007 -0.8286 -0.2550
   67SOL    HW2 1879   7.604   6.671   1.027  0.4203 -1.4130  0.2323
   68SOL     OW 1880   1.787   0.800   1.705  0.2833  1.1620  0.1260
   68SOL    HW1 1881   1.846   0.772   1.636  1.1032 -0.7951  1.5729
   68SOL    HW2 1882   1.816   0.888   1.728  0.9191  1.2497 -0.9936
   69SOL     OW 1883   4.926   6.947   7.326 -0.1647  0.0069 -0.2974
   69SOL    HW1 1884   4.979   6.875   7.294 -1.2874 -0.1479 -1.8344
   69SOL    HW2 1885   4.955   6.959   7.417  0.3790 -2.0369 -0.1778
   70SOL     OW 1886   1.525   0.255   2.480  1.0834 -0.2490  0.3722
   70SOL    HW1 1887   1.561   0.263   2.569 -1.0859  0.6108  1.1976
   70SOL    HW2 1888   1.512   0.161   2.467  0.3940 -0.2999  1.3907
   71SOL     OW 1889   4.698   3.219   6.696  0.0988 -0.3599  0.3341
   71SOL    HW1 1890   4.634   3.174   6.642  1.8491 -2.6579  0.0834
   71SOL    HW2 1891   4.722   3.154   6.763  2.3514  0.3141  0.2293
   72SOL     OW 1892   2.347   3.823   8.095  0.1364  0.2379 -0.3479
   72SOL    HW1 1893   2.278   3.821   8.162  0.2912  0.0111 -0.1960
   72SOL    HW2 1894   2.310   3.776   8.021  0.7565 -1.3807  0.3380
   73SOL     OW 1895   4.940   7.214   8.882  0.1033 -0.1271  0.1569
   73SOL    HW1 1896   4.951   7.244   8.972  0.9646  0.4980 -0.1483
   73SOL    HW2 1897   4.847   7.226   8.863  0.3434  1.9499  0.1836
   74SOL     OW 1898   7.625   0.689   0.388  0.2783  0.3762 -0.3249
   74SOL    HW1 1899   7.552   0.638   0.422  0.5842 -0.0148 -0.2587
   74SOL    HW2 1900   7.630   0.664   0.295 -0.6226  1.5214 -0.6938
   75SOL     OW 1901   1.995   0.849   0.693  0.2124  0.2686 -0.3422
   75SOL    HW1 1902   1.953   0.843   0.779  0.2897 -1.6630 -0.4219
   75SOL    HW2 1903   1.929   0.890   0.637 -0.3564  0.2399  0.2999
   76SOL     OW 1904   6.320   6.028   1.634  0.3186  0.6126  0.6442
   76SOL    HW1 1905   6.345   5.985   1.552  1.2200  0.3866  1.0373
   76SOL    HW2 1906   6.229   6.056   1.619 -0.5519 -2.0790  0.6587
   77SOL     OW 1907   4.734   6.685   7.446 -0.4551 -0.1554  0.4467
   77SOL    HW1 1908   4.732   6.739   7.367  0.8702  1.0962  1.2490
   77SOL    HW2 1909   4.802   6.620   7.430  0.8157  0.9806  1.0884
   78SOL     OW 1910   0.771   0.340   3.626  0.3599 -0.1718  0.1856
   78SOL    HW1 1911   0.722   0.263   3.656 -0.0135 -1.1209 -2.6851
   78SOL    HW2 1912   0.848   0.303   3.582  0.6458  1.1244 -0.4123
   79SOL     OW 1913   2.485   7.394   0.157  0.9511  0.0005 -0.4202
   79SOL    HW1 1914   2.451   7.474   0.118  2.4681  2.1806  2.5947
   79SOL    HW2 1915   2.580   7.402   0.148  1.1443 -1.1726  0.4616
   80SOL     OW 1916   8.439   0.971   7.469 -0.1582 -0.3086 -0.3681
   80SOL    HW1 1917   8.380   0.927   7.531 -0.2446 -0.3068 -0.4491
   80SOL    HW2 1918   8.527   0.953   7.502 -0.2222  0.1077  0.0391
   81SOL     OW 1919   5.827   3.752   3.687 -0.1941 -0.3725 -0.1885
   81SOL    HW1 1920   5.732   3.763   3.700  0.1392  0.5927  1.5546
   81SOL    HW2 1921   5.866   3.786   3.767  1.7318  0.7442 -1.5632
   82SOL     OW 1922   0.872   0.133   8.116  0.0884  0.3513  0.1336
   82SOL    HW1 1923   0.895   0.069   8.049 -0.1204 -0.0804  0.4753
   82SOL    HW2 1924   0.901   0.217   8.080 -3.0116  0.5974 -2.0062
   83SOL     OW 1925   8.948   0.531   0.579 -0.3261 -0.0485 -0.2154
   83SOL    HW1 1926   9.036   0.563   0.561  1.2597 -3.3091  1.2672
   83SOL    HW2 1927   8.919   0.491   0.496 -0.3669  0.8921 -0.6584
   84SOL     OW 1928   5.827   7.372   4.232 -0.4929  0.0794 -0.5540
   84SOL    HW1 1929   5.919   7.372   4.208 -0.7626  0.2663 -1.6332
   84SOL    HW2 1930   5.817   7.446   4.291 -0.4420  1.6446 -2.4491
   85SOL     OW 1931   0.170   4.465   5.016 -0.0193 -0.6539  0.2208
   85SOL    HW1 1932   0.234   4.435   4.951  0.4053 -0.8817  0.7451
   85SOL    HW2 1933   0.206   4.437   5.100  0.1974  1.0180  0.6924
   86SOL     OW 1934   6.847   1.402   2.104  0.4993 -0.6346  0.3519
   86SOL    HW1 1935   6.886   1.466   2.044  0.9510  0.5657  1.9157
   86SOL    HW2 1936   6.767   1.373   2.058  1.4842 -0.6796 -1.3813
   87SOL     OW 1937   8.199   3.637   5.880  0.0845 -0.2920  0.0639
   87SOL    HW1 1938   8.285   3.638   5.839  0.3714 -0.1392  0.6676
   87SOL    HW2 1939   8.140   3.671   5.813  0.4865 -0.4348 -0.3641
   88SOL     OW 1940   7.391   7.113   5.646 -0.0290  0.3647 -0.1039
   88SOL    HW1 1941   7.429   7.120   5.558 -0.0588  0.8710 -0.0814
   88SOL    HW2 1942   7.445   7.048   5.691 -0.1378 -0.0429 -0.5649
   89SOL     OW 1943   8.381   4.138   3.778  0.7786  0.1379  0.0101
   89SOL    HW1 1944   8.286   4.132   3.770  0.9499 -2.0911 -0.9427
   89SOL    HW2 1945   8.396   4.155   3.871 -0.5822  1.9999 -0.0854
   90SOL     OW 1946   3.406   3.803   3.430 -0.3391  0.0084 -0.2021
   90SOL    HW1 1947   3.404   3.714   3.463 -1.9429  0.8784  2.1246
   90SOL    HW2 1948   3.323   3.842   3.458  0.6072  2.4241 -0.6032
   91SOL     OW 1949   3.051   4.654   6.944 -0.2026 -0.0572  0.3034
   91SOL    HW1 1950   2.987   4.602   6.993  0.2764 -1.2400 -0.3051
   91SOL    HW2 1951   3.134   4.639   6.990 -0.3062  1.3469  0.9962
   92SOL     OW 1952   2.342   2.009   3.111 -0.1112 -0.2478 -0.0950
   92SOL    HW1 1953   2.280   1.956   3.062  0.0022 -1.7702  1.3487
   92SOL    HW2 1954   2.419   1.952   3.121  0.1215  0.2795  1.2244
   93SOL     OW 1955   4.579   1.294   7.670  0.2784  0.6067  0.2966
   93SOL    HW1 1956   4.525   1.224   7.707  0.5071  1.8560  3.0926
   93SOL    HW2 1957   4.519   1.368   7.659  0.7793  1.0715  0.6441
   94SOL     OW 1958   6.515   8.931   3.498  0.0200 -0.0533 -0.0090
   94SOL    HW1 1959   6.534   8.839   3.517 -1.7561 -0.2843  0.7161
   94SOL    HW2 1960   6.482   8.931   3.409  1.0498  0.0358 -0.3998
   95SOL     OW 1961   5.407   7.491   7.697 -0.5146 -0.1873 -0.1040
   95SOL    HW1 1962   5.351   7.548   7.644  1.2851 -0.1659 -2.0467
   95SOL    HW2 1963   5.408   7.408   7.650  0.2529 -0.5066  0.4577
   96SOL     OW 1964   3.749   6.675   5.464  0.4278  0.3192 -0.8393
   96SOL    HW1 1965   3.812   6.653   5.532 -0.6674 -1.4749 -0.3654
   96SOL    HW2 1966   3.801   6.683   5.384  1.1288 -2.3396 -0.6858
   97SOL     OW 1967   8.863   0.949   6.145 -0.4502 -0.2702  0.2441
   97SOL    HW1 1968   8.790   0.915   6.093  1.0424 -2.3101 -0.6016
   97SOL    HW2 1969   8.907   1.011   6.087 -2.4905  2.3389  1.3768
   98SOL     OW 1970   1.233   2.532   5.826  0.9184 -0.4712  0.0524
   98SOL    HW1 1971   1.302   2.472   5.856  0.0411 -0.5096  2.1144
   98SOL    HW2 1972   1.237   2.606   5.887  0.6240  0.5910 -1.2066
   99SOL     OW 1973   1.549   6.561   1.891 -0.0308  0.0491  0.0981
   99SOL    HW1 1974   1.546   6.644   1.939 -1.4546 -0.5247  1.0006
   99SOL    HW2 1975   1.458   6.533   1.885 -0.0439  0.6356 -3.9210
  100SOL     OW 1976   2.106   6.906   2.028  0.2793  0.0451 -0.1125
  100SOL    HW1 1977   2.123   6.907   1.933  0.2952  0.1305 -0.1088
  100SOL    HW2 1978   2.051   6.829   2.041 -0.5166  0.5752 -0.3276
  101SOL     OW 1979   3.635   7.146   8.408 -0.2072 -0.1920  0.6845
  101SOL    HW1 1980   3.543   7.164   8.428 -0.4661 -1.0307  0.2848
  101SOL    HW2 1981   3.643   7.168   8.315  0.5065  1.8302  1.1991
  102SOL     OW 1982   7.301   2.119   5.551  0.8972 -0.4473  0.0469
  102SOL    HW1 1983   7.240   2.045   5.552  2.8104 -2.1439 -2.4329
  102SOL    HW2 1984   7.343   2.116   5.637 -1.7541  0.1692  1.4315
  103SOL     OW 1985   3.570   6.258   0.798  0.1840  0.0697 -0.0799
  103SOL    HW1 1986   3.549   6.318   0.869  0.2772  0.0872 -0.0670
  103SOL    HW2 1987   3.618   6.312   0.734 -1.6110  0.5298 -1.0645
  104SOL     OW 1988   5.366   1.910   3.129 -0.0697 -0.0660 -0.1386
  104SOL    HW1 1989   5.412   1.994   3.129 -0.0088 -0.0753 -1.7865
  104SOL    HW2 1990   5.432   1.847   3.096 -0.4556 -0.5539  0.0156
  105SOL     OW 1991   3.552   5.621   5.983  0.2756  0.1385  1.8586
  105SOL    HW1 1992   3.610   5.684   5.941 -1.1207  2.0442  2.7182
  105SOL    HW2 1993   3.609   5.548   6.005  1.6586  0.4937 -0.3787
  106SOL     OW 1994   5.640   2.440   8.656 -0.2820  0.1396  0.3569
  106SOL    HW1 1995   5.577   2.460   8.587 -0.7090 -0.9632  0.4014
  106SOL    HW2 1996   5.596   2.373   8.709 -0.3106  1.5737  2.1850
  107SOL     OW 1997   6.480   3.143   4.916  0.2781  0.1954  0.0740
  107SOL    HW1 1998   6.423   3.151   4.993  0.2436 -2.2943  0.3486
  107SOL    HW2 1999   6.568   3.156   4.951  0.1058  1.4787  0.0866
  108SOL     OW 2000   8.558   0.219   7.938  0.9483 -0.2162 -0.1797
  108SOL    HW1 2001   8.470   0.208   7.974  1.5569  0.7673  1.6644
  108SOL    HW2 2002   8.592   0.129   7.930  0.1768 -0.5385  0.1158
  109SOL     OW 2003   2.013   8.248   6.610  0.3469  0.0624 -0.0196
  109SOL    HW1 2004   2.067   8.229   6.686  0.5505  0.9576  0.0688
  109SOL    HW2 2005   2.058   8.206   6.537  1.5347  1.3718 -0.0550
  110SOL     OW 2006   0.046   3.240   3.167 -0.3251 -0.0871  0.0604
  110SOL    HW1 2007   0.126   3.258   3.117  0.4748 -0.9639  0.9955
  110SOL    HW2 2008   0.065   3.158   3.214 -1.9029 -0.4732  0.0303
  111SOL     OW 2009   3.363   6.310   0.006  0.2234 -0.1465  0.3336
  111SOL    HW1 2010   3.421   6.369  -0.042 -1.2442  0.3824 -0.8191
  111SOL    HW2 2011   3.383   6.223  -0.028 -0.2299  0.1333 -0.6562
  112SOL     OW 2012   0.785   8.729   6.746 -0.8339  0.4442 -0.0604
  112SOL    HW1 2013   0.860   8.726   6.807 -1.3031 -0.4878  0.4790
  112SOL    HW2 2014   0.732   8.802   6.777 -0.4880  0.6908 -0.0435
  113SOL     OW 2015   4.264   3.075   8.591 -0.2812 -0.3971  0.6071
  113SOL    HW1 2016   4.272   3.150   8.532  0.3839 -1.6213 -0.9083
  113SOL    HW2 2017   4.198   3.019   8.550  1.3170 -2.0154  0.1231
  114SOL     OW 2018   3.443   5.205   3.725  0.0169  0.1311 -0.3659
  114SOL    HW1 2019   3.406   5.124   3.762  1.0450 -0.2913 -0.2410
  114SOL    HW2 2020   3.496   5.241   3.796  1.2671 -0.2027 -1.1083
  115SOL     OW 2021   5.132   6.230   4.842 -0.0909 -0.3128  0.2532
  115SOL    HW1 2022   5.214   6.181   4.845  0.3917  0.4415 -0.4591
  115SOL    HW2 2023   5.134   6.275   4.758 -0.7779  0.5026  0.6664
  116SOL     OW 2024   4.899   3.729   7.330  0.0627 -0.0522  0.5381
  116SOL    HW1 2025   4.903   3.656   7.269  0.5028  0.6997 -0.3407
  116SOL    HW2 2026   4.919   3.691   7.415 -0.5713 -1.1097  0.2228
  117SOL     OW 2027   2.983   3.045   3.365  0.8212  0.5969 -0.1961
  117SOL    HW1 2028   2.932   3.083   3.294 -0.4599 -0.8463 -0.0723
  117SOL    HW2 2029   2.931   3.064   3.444  0.7042 -0.4656 -0.0146
  118SOL     OW 2030   7.217   7.984   0.155  0.7702  0.0886 -0.1364
  118SOL    HW1 2031   7.273   8.022   0.222 -0.3381 -0.6788  1.2637
  118SOL    HW2 2032   7.134   7.966   0.200 -0.8290  1.7507 -2.2975
  119SOL     OW 2033   3.866   2.643   7.462 -0.6473 -0.1082 -0.0749
  119SOL    HW1 2034   3.907   2.614   7.380 -0.5177  1.2355 -0.5006
  119SOL    HW2 2035   3.779   2.673   7.436 -0.9183 -0.4796  0.4143
  120SOL     OW 2036   7.970   6.340   4.803  0.2705 -0.1314  0.2981
  120SOL    HW1 2037   7.891   6.372   4.847 -0.2063  3.4735 -2.9229
  120SOL    HW2 2038   8.042   6.381   4.851 -0.0202  0.1642  0.4845
  121SOL     OW 2039   0.147   0.490   6.097 -0.2711  0.0494 -0.3591
  121SOL    HW1 2040   0.223   0.548   6.108  0.4167 -0.7645 -0.7594
  121SOL    HW2 2041   0.072   0.547   6.112  0.3814  1.1400 -1.0968
  122SOL     OW 2042   2.607   3.351   3.287  0.3556  0.3709 -0.5743
  122SOL    HW1 2043   2.574   3.399   3.211  0.5120  0.2393 -0.7272
  122SOL    HW2 2044   2.622   3.418   3.354  0.5309  0.5258 -0.7702
  123SOL     OW 2045   5.619   4.042   2.673 -0.1535  0.0117  0.6415
  123SOL    HW1 2046   5.634   4.020   2.765  0.9028  0.7997  0.6666
  123SOL    HW2 2047   5.595   3.959   2.632  0.1569 -0.4880  1.4643
  124SOL     OW 2048   7.755   7.966   0.960 -0.1470  0.4361  0.4325
  124SOL    HW1 2049   7.784   7.968   0.868 -0.7547 -0.0271  0.2253
  124SOL    HW2 2050   7.660   7.964   0.954 -0.1673 -0.9644  1.0460
  125SOL     OW 2051   5.409   3.167   0.867  0.1617  0.1961  0.0647
  125SOL    HW1 2052   5.438   3.088   0.913  0.1661 -0.0194 -0.3067
  125SOL    HW2 2053   5.315   3.158   0.860 -0.1161  1.2322  1.9002
  126SOL     OW 2054   1.431   9.009   5.662  0.1010  0.2538 -0.6155
  126SOL    HW1 2055   1.376   8.934   5.685 -0.1968  0.7943  0.4299
  126SOL    HW2 2056   1.444   9.000   5.567 -2.2939  0.4719 -0.9905
  127SOL     OW 2057   3.623   7.842   3.564  0.3602  0.4510  0.5629
  127SOL    HW1 2058   3.691   7.776   3.579 -0.4220 -0.1000  1.7878
  127SOL    HW2 2059   3.542   7.791   3.554  0.1018  1.0991 -0.8355
  128SOL     OW 2060   4.340   1.434   4.863  0.4203  0.4250 -0.2169
  128SOL    HW1 2061   4.374   1.523   4.867  2.6026 -0.3796 -0.3189
  128SOL    HW2 2062   4.383   1.388   4.934  1.0777 -1.1287 -1.5901
  129SOL     OW 2063   8.860   0.281   2.765 -0.0208  0.4271  0.2886
  129SOL    HW1 2064   8.785   0.273   2.705 -0.6004 -0.5096  1.1351
  129SOL    HW2 2065   8.935   0.254   2.712 -0.5385 -0.4517 -0.0076
  130SOL     OW 2066   7.189   7.242   3.150 -0.0391  0.3367 -0.3335
  130SOL    HW1 2067   7.124   7.207   3.211 -0.1175  1.3662  0.1741
  130SOL    HW2 2068   7.140   7.259   3.070 -0.3096  0.7628 -0.0731
  131SOL     OW 2069   6.258   2.975   6.338  0.4513  0.2887 -0.7460
  131SOL    HW1 2070   6.199   3.036   6.382 -1.3293 -1.5152 -0.5985
  131SOL    HW2 2071   6.240   2.987   6.245 -0.0156 -0.1469 -0.7090
  132SOL     OW 2072   5.643   7.839   2.742 -0.2939  0.5561  0.0356
  132SOL    HW1 2073   5.614   7.750   2.761 -0.5193  0.7433  0.5847
  132SOL    HW2 2074   5.626   7.851   2.648 -0.5112  0.1170  0.0207
  133SOL     OW 2075   5.820   3.966   0.418 -0.4148  0.3489 -0.2337
  133SOL    HW1 2076   5.881   3.894   0.398 -0.7092  0.0675 -0.1326
  133SOL    HW2 2077   5.820   3.971   0.513 -2.3956 -1.2725 -0.1237
  134SOL     OW 2078   7.697   4.741   1.108 -0.0854 -0.3776  0.1335
  134SOL    HW1 2079   7.713   4.717   1.200  0.8603 -0.4156 -0.0361
  134SOL    HW2 2080   7.751   4.680   1.058  0.2702  0.3704 -0.4023
  135SOL     OW 2081   1.606   7.165   2.703 -0.2283  0.5290 -0.0352
  135SOL    HW1 2082   1.693   7.160   2.743  0.7303  0.1932 -2.1451
  135SOL    HW2 2083   1.604   7.251   2.661 -1.3563  1.0050  0.9330
  136SOL     OW 2084   5.192   1.877   7.110 -0.3104 -0.1613 -0.3091
  136SOL    HW1 2085   5.117   1.817   7.105 -0.9859  0.5753  0.6438
  136SOL    HW2 2086   5.153   1.961   7.135  0.5016  0.9098 -2.4313
  137SOL     OW 2087   5.978   4.634   7.810 -0.1375  0.0058 -0.7898
  137SOL    HW1 2088   5.890   4.629   7.772 -0.6918 -0.3324  0.5036
  137SOL    HW2 2089   5.970   4.698   7.880  0.1939 -1.3051  0.4804
  138SOL     OW 2090   0.037   2.585   0.196  0.2581 -0.0853 -0.1383
  138SOL    HW1 2091   0.084   2.531   0.260  2.9532 -0.4704 -2.3499
  138SOL    HW2 2092   0.105   2.636   0.153 -1.7622  1.8048 -1.1832
  139SOL     OW 2093   2.212   2.462   4.523  0.4899  0.3600  0.1573
  139SOL    HW1 2094   2.186   2.549   4.495 -0.6342 -0.2225 -0.6690
  139SOL    HW2 2095   2.163   2.446   4.603 -1.1304 -0.4175 -0.9593
  140SOL     OW 2096   7.607   8.604   3.793  0.7989 -0.1739 -0.5192
  140SOL    HW1 2097   7.643   8.668   3.854  1.3301 -0.5402 -0.4455
  140SOL    HW2 2098   7.627   8.519   3.832 -2.1838 -0.3562  0.6748
  141SOL     OW 2099   2.507   5.344   2.869  0.2408  0.1560 -0.5869
  141SOL    HW1 2100   2.503   5.409   2.799  0.7990 -0.0332 -0.8044
  141SOL    HW2 2101   2.598   5.348   2.899 -0.2272  0.8735  0.7431
  142SOL     OW 2102   6.704   5.494   7.319 -0.1842  0.7643  0.2945
  142SOL    HW1 2103   6.727   5.466   7.230 -0.2351 -0.1170  0.5523
  142SOL    HW2 2104   6.628   5.551   7.307 -0.2443  0.5842 -0.2193
  143SOL     OW 2105   5.396   0.528   1.587 -0.0206  0.3674  0.6791
  143SOL    HW1 2106   5.427   0.606   1.542  1.3272 -0.3058  0.4310
  143SOL    HW2 2107   5.308   0.514   1.551  0.0574  1.2708  0.1031
  144SOL     OW 2108   0.949   4.937   4.747 -0.0270  0.1710  0.4708
  144SOL    HW1 2109   1.035   4.900   4.726 -0.2991  0.0006 -0.3473
  144SOL    HW2 2110   0.916   4.971   4.664 -0.9370 -0.1375  0.7005
  145SOL     OW 2111   2.449   8.419   2.114  0.7434 -0.2982  0.8677
  145SOL    HW1 2112   2.442   8.355   2.044  0.6572  1.1465 -0.4557
  145SOL    HW2 2113   2.358   8.436   2.140  0.4484  2.8559 -2.0656
  146SOL     OW 2114   4.797   7.746   3.205 -0.3346  0.0725  0.4858
  146SOL    HW1 2115   4.833   7.687   3.138 -0.7293 -0.8878  1.1202
  146SOL    HW2 2116   4.842   7.829   3.189 -0.6416 -0.0487 -1.1785
  147SOL     OW 2117   1.906   3.795   0.244  0.2082  0.9395 -0.1332
  147SOL    HW1 2118   1.952   3.825   0.322 -1.0751  1.2627  0.5211
  147SOL    HW2 2119   1.847   3.868   0.222  1.6054  1.4564 -2.2694
  148SOL     OW 2120   3.128   4.078   8.916 -0.2733 -0.5052 -0.1545
  148SOL    HW1 2121   3.091   4.085   8.827  0.6844 -2.1150 -0.7099
  148SOL    HW2 2122   3.128   3.984   8.934 -1.1218 -0.1357  1.8587
  149SOL     OW 2123   5.450   3.574   0.909  0.2763 -0.1473 -0.1089
  149SOL    HW1 2124   5.521   3.510   0.899  2.3640  2.3393 -1.6271
  149SOL    HW2 2125   5.459   3.606   0.999 -0.6082 -1.7158  0.5718
  150SOL     OW 2126   3.972   8.198   1.677 -0.3257 -0.6844 -0.0848
  150SOL    HW1 2127   3.988   8.139   1.750  0.1003  0.0341  0.4145
  150SOL    HW2 2128   3.964   8.141   1.601  1.3216 -1.3097  0.1850
  151SOL     OW 2129   5.091   0.707   4.895 -0.2428 -0.0126 -0.8950
  151SOL    HW1 2130   5.003   0.669   4.891 -0.4860  0.4737 -0.2731
  151SOL    HW2 2131   5.103   0.748   4.809 -0.4382 -0.4817 -1.1465
  152SOL     OW 2132   6.900   0.279   7.640 -0.5460 -0.3890  0.1050
  152SOL    HW1 2133   6.806   0.266   7.653 -0.5646  0.1469  0.5047
  152SOL    HW2 2134   6.921   0.226   7.564 -1.5293  0.9367 -1.1131
  153SOL     OW 2135   0.317   3.485   2.207 -0.3181  0.0393  0.3999
  153SOL    HW1 2136   0.346   3.566   2.164 -1.5176 -0.2874 -1.0745
  153SOL    HW2 2137   0.225   3.501   2.229 -0.0166 -0.2048  1.8905
  154SOL     OW 2138   8.516   7.446   1.086 -0.4970 -0.2551  0.6388
  154SOL    HW1 2139   8.520   7.526   1.138  0.7860 -0.3642  0.7391
  154SOL    HW2 2140   8.580   7.388   1.128  2.1589  0.4136 -2.3270
  155SOL     OW 2141   0.335   8.458   5.374 -0.5328  0.5858  0.0327
  155SOL    HW1 2142   0.387   8.530   5.408  1.4998 -0.5171 -0.6854
  155SOL    HW2 2143   0.315   8.405   5.451 -1.5323  1.5649  0.4682
  156SOL     OW 2144   6.121   1.374   2.831 -0.0874  0.0722  0.2804
  156SOL    HW1 2145   6.087   1.305   2.774  1.1806 -1.2985  1.1364
  156SOL    HW2 2146   6.046   1.400   2.884 -0.4026 -1.2117  0.4819
  157SOL     OW 2147   7.341   8.573   4.348 -0.7111 -0.0049 -0.4082
  157SOL    HW1 2148   7.255   8.563   4.388  0.3247  0.0905  1.9778
  157SOL    HW2 2149   7.357   8.667   4.348 -0.2827 -0.0699 -0.0327
  158SOL     OW 2150   5.608   4.750   1.747 -0.4674 -0.0190 -0.2844
  158SOL    HW1 2151   5.560   4.821   1.706 -0.0637  1.0734  1.1276
  158SOL    HW2 2152   5.553   4.722   1.820  0.8712  1.0539  1.1681
  159SOL     OW 2153   2.315   2.259   3.001 -0.6885 -0.7820  0.0893
  159SOL    HW1 2154   2.328   2.168   3.029 -1.1132 -1.1024 -0.7482
  159SOL    HW2 2155   2.298   2.253   2.907  2.4166  0.4230 -0.6278
  160SOL     OW 2156   1.589   3.065   6.480  0.2260 -0.5641  0.3579
  160SOL    HW1 2157   1.535   2.992   6.511  1.4778 -1.6144  0.0959
  160SOL    HW2 2158   1.588   3.057   6.384 -2.4318  1.8086  0.1085
  161SOL     OW 2159   0.116   3.927   3.278 -0.4076 -0.4885 -0.4913
  161SOL    HW1 2160   0.134   4.018   3.254 -3.1147  0.1805 -0.2265
  161SOL    HW2 2161   0.089   3.932   3.370  1.2183 -1.8266  0.0802
  162SOL     OW 2162   3.652   6.162   8.539 -0.1044  0.2369 -0.0907
  162SOL    HW1 2163   3.685   6.188   8.625  0.8043 -1.0774 -0.0312
  162SOL    HW2 2164   3.729   6.165   8.482 -0.7099  1.1455 -0.8817
  163SOL     OW 2165   4.443   2.914   6.316  0.1240 -0.1269 -0.3437
  163SOL    HW1 2166   4.406   2.834   6.353  0.6064  1.4578  3.8186
  163SOL    HW2 2167   4.531   2.888   6.288 -0.0928 -1.2813 -0.0009
  164SOL     OW 2168   8.341   2.669   0.942 -0.4430 -0.0390  0.2693
  164SOL    HW1 2169   8.259   2.683   0.989  0.5456 -1.6863  2.5804
  164SOL    HW2 2170   8.409   2.682   1.009  1.1321  0.2148 -1.3410
  165SOL     OW 2171   0.369   1.831   4.438 -0.2994 -0.1848 -0.0449
  165SOL    HW1 2172   0.371   1.778   4.358  1.4078 -0.9732  0.4929
  165SOL    HW2 2173   0.325   1.775   4.502  0.3398 -0.4485  0.1681
  166SOL     OW 2174   4.132   7.451   1.646  0.3444  0.3715 -0.3565
  166SOL    HW1 2175   4.196   7.507   1.690  0.7601 -1.7628  1.8707
  166SOL    HW2 2176   4.151   7.363   1.679 -1.4842 -0.8118 -2.3511
  167SOL     OW 2177   4.480   6.953   4.172 -0.4461  0.8307 -0.4229
  167SOL    HW1 2178   4.573   6.939   4.190 -0.6883 -0.0787  0.1366
  167SOL    HW2 2179   4.470   6.928   4.080 -0.5764 -1.3325  0.1461
  168SOL     OW 2180   0.204   6.075   6.161 -0.0633  0.1858 -0.0607
  168SOL    HW1 2181   0.179   6.037   6.245  2.3055  1.5686  1.3131
  168SOL    HW2 2182   0.177   6.010   6.096 -1.3503 -1.1852  1.7966
  169SOL     OW 2183   3.182   7.507   3.337  0.2035  0.6742 -0.4850
  169SOL    HW1 2184   3.125   7.498   3.413  0.5962  0.8584 -0.1682
  169SOL    HW2 2185   3.226   7.422   3.329 -0.8054  0.2111 -1.2935
  170SOL     OW 2186   9.236   0.178   3.440 -0.3801 -0.0596  0.2502
  170SOL    HW1 2187   9.183   0.106   3.408  0.4671 -1.0778  1.0852
  170SOL    HW2 2188   9.202   0.197   3.528  0.7745 -0.9006  0.9018
  171SOL     OW 2189   4.320   8.599   5.106 -0.4407  0.7592  0.3352
  171SOL    HW1 2190   4.301   8.674   5.050 -3.2750  0.9577  1.4977
  171SOL    HW2 2191   4.246   8.540   5.094  1.8386 -2.0124 -0.7275
  172SOL     OW 2192   6.883   5.945   3.505 -0.1786  0.4865  0.3601
  172SOL    HW1 2193   6.887   6.036   3.474  2.2248 -0.2165 -1.5841
  172SOL    HW2 2194   6.910   5.950   3.596  0.1093  1.6957  0.2241
  173SOL     OW 2195   3.797   0.074   1.150 -0.0913 -0.0774  0.3437
  173SOL    HW1 2196   3.716   0.045   1.107 -1.2434 -0.5033  2.7491
  173SOL    HW2 2197   3.791   0.170   1.150  0.2480 -0.0399 -1.0148
  174SOL     OW 2198   7.008   7.587   2.035 -0.1651 -0.0174 -0.3632
  174SOL    HW1 2199   6.990   7.523   2.104  0.2580 -0.0893 -0.3126
  174SOL    HW2 2200   7.011   7.671   2.080  1.8230 -0.2564  0.0065
  175SOL     OW 2201   0.677   1.629   5.256  0.3149  0.5453 -0.0846
  175SOL    HW1 2202   0.765   1.659   5.279  0.3482  0.2769  0.1378
  175SOL    HW2 2203   0.680   1.534   5.269  0.0086  0.5306 -0.1277
  176SOL     OW 2204   4.025   0.935   3.093 -0.1815 -1.0593  0.4195
  176SOL    HW1 2205   4.021   1.016   3.144  0.9343 -0.5617 -0.2689
  176SOL    HW2 2206   4.114   0.904   3.104  0.3970 -0.4191 -1.9967
  177SOL     OW 2207   7.028   5.048   0.854 -0.3034 -0.2257 -0.0148
  177SOL    HW1 2208   7.009   4.958   0.827 -0.5881  0.2339 -1.4012
  177SOL    HW2 2209   6.943   5.088   0.868 -0.1702 -0.2585  0.9213
  178SOL     OW 2210   0.587   0.572   4.283 -0.1767  0.0760  0.2016
  178SOL    HW1 2211   0.585   0.522   4.365  0.0976  2.3605  1.6439
  178SOL    HW2 2212   0.496   0.571   4.252 -0.2738 -0.8422  0.4825
  179SOL     OW 2213   7.799   2.461   8.069 -0.4808  0.4218 -0.7221
  179SOL    HW1 2214   7.716   2.422   8.041 -0.4892  1.0532 -1.6151
  179SOL    HW2 2215   7.806   2.542   8.018  0.9339  0.1086 -1.0545
  180SOL     OW 2216   7.216   2.135   4.034  0.4680 -0.0323 -0.0295
  180SOL    HW1 2217   7.253   2.212   3.991 -0.0064  0.5974  0.6684
  180SOL    HW2 2218   7.292   2.091   4.072  0.5811  0.9921  0.9781
  181SOL     OW 2219   4.259   2.819   6.014 -0.3676 -0.0220  0.6577
  181SOL    HW1 2220   4.348   2.850   5.994 -0.4084 -0.0819  0.3784
  181SOL    HW2 2221   4.231   2.874   6.087 -1.1147  1.8290 -0.9586
  182SOL     OW 2222   8.234   8.427   3.045  0.1945  0.3455 -0.1158
  182SOL    HW1 2223   8.258   8.439   3.137  1.5828 -1.9803 -0.1252
  182SOL    HW2 2224   8.296   8.483   2.997 -0.9920  2.1156  0.3630
  183SOL     OW 2225   8.869   1.512   3.667 -0.3057 -0.4070 -0.0911
  183SOL    HW1 2226   8.794   1.490   3.613 -0.8039  1.5364 -0.2268
  183SOL    HW2 2227   8.873   1.608   3.665  1.3184 -0.4272  1.0633
  184SOL     OW 2228   1.700   3.007   3.438 -0.6548  0.0490  0.4023
  184SOL    HW1 2229   1.709   2.999   3.343 -0.6691  2.1438  0.1890
  184SOL    HW2 2230   1.725   2.921   3.472 -2.0818 -1.1983 -1.5703
  185SOL     OW 2231   8.298   1.138   6.436  0.0917  0.2027  0.6652
  185SOL    HW1 2232   8.350   1.186   6.501  1.5787 -0.1039 -0.2714
  185SOL    HW2 2233   8.228   1.097   6.487  0.3608  1.1951  1.8547
  186SOL     OW 2234   8.552   4.314   7.622 -0.3972 -0.1790  0.0788
  186SOL    HW1 2235   8.457   4.310   7.636 -0.3121 -0.5404  0.5557
  186SOL    HW2 2236   8.576   4.404   7.643 -0.9930  0.6024 -2.3556
  187SOL     OW 2237   6.891   6.157   5.563  0.4305 -0.4870  0.1498
  187SOL    HW1 2238   6.950   6.084   5.580  1.3697 -0.4090 -2.5817
  187SOL    HW2 2239   6.854   6.139   5.477  0.3610  2.0283 -0.3936
  188SOL     OW 2240   5.770   7.216   3.458  0.6335  0.2494  0.3342
  188SOL    HW1 2241   5.812   7.192   3.376  0.6279  0.4485  0.2731
  188SOL    HW2 2242   5.711   7.288   3.434  1.6669  1.2603  0.7646
  189SOL     OW 2243   8.008   0.094   8.456  0.0310 -0.0550 -0.1382
  189SOL    HW1 2244   8.012   0.095   8.360 -0.5241  3.1254 -0.1834
  189SOL    HW2 2245   8.011   0.001   8.479  1.0612 -0.8487 -3.1892
  190SOL     OW 2246   5.422   3.822   8.747 -0.4934 -0.6637 -0.3342
  190SOL    HW1 2247   5.458   3.868   8.823  0.7466 -1.5844 -0.3441
  190SOL    HW2 2248   5.493   3.821   8.683 -1.3218 -0.4453 -1.2725
  191SOL     OW 2249   6.027   9.219   3.039  0.2895  0.3801  0.0937
  191SOL    HW1 2250   6.009   9.216   2.945  2.9489 -1.6413 -0.4109
  191SOL    HW2 2251   6.079   9.141   3.057  0.0921  0.8772  3.2119
  192SOL     OW 2252   4.838   5.892   2.420  0.4193 -0.1891 -0.2309
  192SOL    HW1 2253   4.929   5.879   2.446  0.8510 -2.1231 -2.5212
  192SOL    HW2 2254   4.840   5.971   2.366  0.4868  0.5315  0.8077
  193SOL     OW 2255   8.503   8.469   3.597  0.2091 -0.5090  0.1365
  193SOL    HW1 2256   8.574   8.406   3.582 -0.7011 -1.6003  0.3964
  193SOL    HW2 2257   8.498   8.477   3.692  1.3348  1.1442  0.0897
  194SOL     OW 2258   7.816   1.637   6.239  0.2230  0.5770  0.3241
  194SOL    HW1 2259   7.794   1.545   6.257 -0.6179  0.5343 -0.8652
  194SOL    HW2 2260   7.787   1.684   6.318  2.4697 -0.4199  1.7837
  195SOL     OW 2261   4.577   0.775   4.447 -0.2335  0.4359  0.0414
  195SOL    HW1 2262   4.509   0.707   4.439  0.6607 -0.1897 -2.8439
  195SOL    HW2 2263   4.660   0.727   4.439  0.4741  1.6143  0.2054
  196SOL     OW 2264   2.493   5.975   9.102 -0.0630  0.4356 -0.5214
  196SOL    HW1 2265   2.544   6.001   9.025  0.0350 -1.0063 -0.9549
  196SOL    HW2 2266   2.415   5.934   9.066 -0.3918  0.4788  0.1518
  197SOL     OW 2267   1.515   3.594   2.313 -0.0162 -0.3717  0.0643
  197SOL    HW1 2268   1.465   3.675   2.299  3.8540  1.9681 -1.1878
  197SOL    HW2 2269   1.516   3.583   2.408 -2.9648 -0.6008  0.1221
  198SOL     OW 2270   6.915   4.848   3.478 -0.0254 -0.2419 -0.1631
  198SOL    HW1 2271   6.893   4.877   3.566 -0.1436  0.2444 -0.3481
  198SOL    HW2 2272   7.010   4.858   3.473  0.3637 -3.0492  0.8856
  199SOL     OW 2273   3.651   7.496   4.956 -0.2741 -0.0449 -0.2442
  199SOL    HW1 2274   3.660   7.559   4.884  1.9881 -0.3382 -0.2381
  199SOL    HW2 2275   3.649   7.411   4.914  0.5954 -0.1934  0.0186
  200SOL     OW 2276   2.799   8.957   5.326  0.9392  0.0547 -0.1209
  200SOL    HW1 2277   2.800   9.048   5.296  0.6715 -0.0795 -0.5529
  200SOL    HW2 2278   2.791   8.962   5.421  0.3136  0.4707 -0.1951
  201SOL     OW 2279   0.275   5.564   5.266  0.5360  0.1668  0.0748
  201SOL    HW1 2280   0.196   5.600   5.307  0.1040  1.1823 -1.5679
  201SOL    HW2 2281   0.289   5.481   5.310 -2.0632 -0.5223 -0.3065
  202SOL     OW 2282   8.543   0.497   6.204 -0.2925 -0.1441 -0.1848
  202SOL    HW1 2283   8.484   0.563   6.240  1.0171  0.1880  1.3802
  202SOL    HW2 2284   8.492   0.416   6.208 -0.3939 -0.0111  1.8980
  203SOL     OW 2285   7.047   5.142   6.292  0.2180  0.0821  0.2330
  203SOL    HW1 2286   7.054   5.115   6.383 -1.6708 -0.7390  0.1604
  203SOL    HW2 2287   7.042   5.060   6.242 -2.1001  0.5074 -0.2912
  204SOL     OW 2288   4.607   6.364   1.666 -0.0209  0.3549  0.2670
  204SOL    HW1 2289   4.642   6.390   1.581  0.2063  0.8738  0.5203
  204SOL    HW2 2290   4.573   6.445   1.704 -0.6324  0.0206  0.4282
  205SOL     OW 2291   1.103   0.546   5.479  0.2384  0.3101  0.3634
  205SOL    HW1 2292   1.076   0.638   5.471  2.9624  0.9838 -1.6572
  205SOL    HW2 2293   1.068   0.504   5.402 -0.1545 -0.1400  0.7855
  206SOL     OW 2294   5.911   1.557   5.796 -0.0986  0.6717  0.1022
  206SOL    HW1 2295   5.910   1.499   5.720 -2.8581  0.3995  0.3177
  206SOL    HW2 2296   5.975   1.625   5.773  2.3226 -1.7425 -0.6274
  207SOL     OW 2297   7.449   5.630   8.611  0.1387 -0.3539  0.8485
  207SOL    HW1 2298   7.534   5.650   8.572 -0.3282 -0.3301 -0.1720
  207SOL    HW2 2299   7.419   5.714   8.646  0.3346 -0.2732  0.8253
  208SOL     OW 2300   0.966   7.337   3.046 -0.2286 -0.5579 -0.2827
  208SOL    HW1 2301   1.002   7.369   3.128  1.7030 -2.7287 -0.2368
  208SOL    HW2 2302   1.002   7.395   2.979  1.1704 -1.0202  0.0550
  209SOL     OW 2303   6.317   4.969   6.374 -0.2064 -0.3963 -0.0750
  209SOL    HW1 2304   6.288   5.059   6.387 -1.1317 -0.7856  0.6058
  209SOL    HW2 2305   6.369   4.949   6.452 -1.0517 -0.8636  0.3745
  210SOL     OW 2306   0.394   4.191   1.743  0.5499 -0.5966 -0.2303
  210SOL    HW1 2307   0.403   4.158   1.654  1.6692  0.6818 -0.6037
  210SOL    HW2 2308   0.472   4.161   1.789 -0.4560 -2.0386  0.6028
  211SOL     OW 2309   5.861   8.115   6.583 -0.0670 -0.5870  0.3226
  211SOL    HW1 2310   5.875   8.205   6.613 -0.5058 -0.5047  0.2905
  211SOL    HW2 2311   5.768   8.098   6.602  0.4516 -1.6576  1.9738
  212SOL     OW 2312   3.089   7.973   0.782  0.7851  0.0044  0.2368
  212SOL    HW1 2313   3.117   7.887   0.751 -0.7693  0.5749 -2.9718
  212SOL    HW2 2314   3.006   7.956   0.827  1.6012 -0.4477  1.5955
  213SOL     OW 2315   2.334   1.508   0.291  0.0392  0.1318 -0.2950
  213SOL    HW1 2316   2.349   1.602   0.305 -2.6462  0.7397 -1.1884
  213SOL    HW2 2317   2.279   1.504   0.212  1.1323 -2.2770 -0.9882
  214SOL     OW 2318   1.362   8.408   9.151  0.3440  0.7217 -0.4051
  214SOL    HW1 2319   1.380   8.316   9.170  0.1335  0.8940  0.6765
  214SOL    HW2 2320   1.296   8.433   9.216 -0.6065  1.2689 -1.5571
  215SOL     OW 2321   3.912   4.334   4.867  0.2343  0.7307 -0.3395
  215SOL    HW1 2322   3.910   4.293   4.953  2.9283 -0.1113 -0.6465
  215SOL    HW2 2323   3.822   4.362   4.852 -1.0743 -2.4141  1.1755
  216SOL     OW 2324   4.038   1.472   4.774  0.3628 -0.1017  1.1235
  216SOL    HW1 2325   4.074   1.426   4.698  1.4628  0.5210  1.2694
  216SOL    HW2 2326   3.960   1.421   4.798  1.3390 -1.6595  1.0252
  217SOL     OW 2327   4.133   3.581   3.000  0.7605  0.0253 -0.2004
  217SOL    HW1 2328   4.090   3.648   2.946  0.1626  0.6894  1.0666
  217SOL    HW2 2329   4.220   3.617   3.017  0.3683  0.6206  0.6559
  218SOL     OW 2330   1.027   7.127   2.871 -0.1559 -0.1941 -0.4830
  218SOL    HW1 2331   0.967   7.069   2.917 -0.1816  0.5054  0.3748
  218SOL    HW2 2332   1.022   7.210   2.918  1.3502 -0.0714 -0.5107
  219SOL     OW 2333   2.807   0.264   5.290  0.2934  0.2068 -0.7453
  219SOL    HW1 2334   2.850   0.236   5.370  0.5372  2.1494 -0.1703
  219SOL    HW2 2335   2.838   0.203   5.223  3.1200  0.9263 -0.1379
  220SOL     OW 2336   2.748   7.807   1.768  0.5688 -0.2079 -0.3254
  220SOL    HW1 2337   2.758   7.897   1.800  2.6528  0.1452 -1.8679
  220SOL    HW2 2338   2.795   7.753   1.831  3.1395  0.2942 -1.7505
  221SOL     OW 2339   9.012   3.325   8.276  0.2362 -0.6434 -0.7614
  221SOL    HW1 2340   9.021   3.267   8.352  0.1635 -1.4743 -1.3797
  221SOL    HW2 2341   8.934   3.377   8.295 -0.0249 -1.1443 -0.4510
  222SOL     OW 2342   8.616   5.703   8.243  0.5924  0.0029  0.0221
  222SOL    HW1 2343   8.633   5.798   8.246  1.4585  0.0073 -3.1965
  222SOL    HW2 2344   8.525   5.695   8.269 -0.0144  1.9402 -1.3373
  223SOL     OW 2345   1.080   8.012   2.364 -0.3330  0.5328 -0.4061
  223SOL    HW1 2346   0.991   8.026   2.332 -1.1647  0.3262  1.7410
  223SOL    HW2 2347   1.103   8.093   2.409  0.2810  0.3189 -0.3236
  224SOL     OW 2348   3.433   4.565   5.257 -0.2309  0.2611  0.8923
  224SOL    HW1 2349   3.521   4.549   5.224 -0.8422 -0.2546 -0.5326
  224SOL    HW2 2350   3.391   4.478   5.256 -0.9950  0.6284  0.8456
  225SOL     OW 2351   4.882   7.587   0.006  0.5309  0.0056  0.1504
  225SOL    HW1 2352   4.801   7.541   0.026  0.4965  0.6706  1.5878
  225SOL    HW2 2353   4.890   7.583  -0.090 -1.9215  1.1976 -0.1257
  226SOL     OW 2354   2.043   4.589   4.294  0.1440 -0.2158  0.2478
  226SOL    HW1 2355   2.134   4.600   4.267  0.0338  0.2646  0.0783
  226SOL    HW2 2356   2.006   4.531   4.228 -0.1043  0.8918 -0.5884
  227SOL     OW 2357   1.150   6.400   1.439 -0.4270 -0.3097 -0.0550
  227SOL    HW1 2358   1.166   6.352   1.520  1.7218 -0.3227 -0.4543
  227SOL    HW2 2359   1.237   6.411   1.400 -1.1760  1.6234 -1.2597
  228SOL     OW 2360   4.053   9.158   4.246 -0.6860 -0.5149  0.5382
  228SOL    HW1 2361   4.141   9.135   4.219 -0.2094 -0.2109  1.8038
  228SOL    HW2 2362   4.001   9.080   4.227 -0.3031 -0.4202 -0.9228
  229SOL     OW 2363   6.409   2.687   8.059  0.6659  0.0666  0.2141
  229SOL    HW1 2364   6.461   2.608   8.044  0.7650  0.3758 -1.1827
  229SOL    HW2 2365   6.368   2.674   8.145  3.1477 -0.1185  1.4129
  230SOL     OW 2366   6.199   0.054   2.552  0.3873  0.3952  0.4887
  230SOL    HW1 2367   6.182  -0.014   2.486 -0.7098  1.4752 -0.3697
  230SOL    HW2 2368   6.268   0.108   2.512 -0.0164  0.8358  0.3922
  231SOL     OW 2369   1.427   3.221   7.882 -0.5318 -0.1874  0.5003
  231SOL    HW1 2370   1.513   3.261   7.894  0.6788 -2.4585 -0.2617
  231SOL    HW2 2371   1.379   3.244   7.961  0.1343  2.6401  0.1451
  232SOL     OW 2372   7.194   6.857   0.175  0.6604  0.3550  0.2937
  232SOL    HW1 2373   7.230   6.944   0.158  0.5398  0.7105  1.7808
  232SOL    HW2 2374   7.229   6.833   0.261 -0.2594 -0.5661  0.4240
  233SOL     OW 2375   8.388   8.721   1.894  0.1773 -0.2468 -0.4192
  233SOL    HW1 2376   8.340   8.803   1.904 -1.3447 -1.2280  0.5860
  233SOL    HW2 2377   8.456   8.725   1.962  0.9213  0.7260 -1.2086
  234SOL     OW 2378   3.277   1.813   6.398  0.2718 -0.2398 -0.0004
  234SOL    HW1 2379   3.263   1.841   6.308  1.5648 -0.4320 -0.2749
  234SOL    HW2 2380   3.295   1.719   6.391 -1.3209 -0.6112  0.6368
  235SOL     OW 2381   6.066   3.845   3.575  0.4757 -0.2807  0.2201
  235SOL    HW1 2382   6.060   3.927   3.526  0.1046  0.7829  2.0147
  235SOL    HW2 2383   5.977   3.831   3.609  0.8805 -0.6434  1.1461
  236SOL     OW 2384   5.545   6.675   0.132  0.2258  0.1218  0.5409
  236SOL    HW1 2385   5.552   6.725   0.050 -0.0990  1.4949  1.3418
  236SOL    HW2 2386   5.452   6.652   0.138  0.1747  0.3787  0.7331
  237SOL     OW 2387   0.134   3.994   3.935  0.1002 -0.0753  0.0687
  237SOL    HW1 2388   0.229   3.990   3.950  0.1164 -0.4538 -0.1181
  237SOL    HW2 2389   0.107   4.077   3.973  0.7946  0.8369 -1.3788
  238SOL     OW 2390   4.763   6.004   1.370  0.6228 -0.2443 -0.1111
  238SOL    HW1 2391   4.855   6.030   1.363  0.4379  0.6249  0.6945
  238SOL    HW2 2392   4.751   5.984   1.463  0.1481 -0.9222 -0.3182
  239SOL     OW 2393   3.817   3.352   3.503  0.1141 -0.4511  0.5747
  239SOL    HW1 2394   3.777   3.439   3.504 -1.8042 -1.3138  0.4376
  239SOL    HW2 2395   3.875   3.354   3.426  0.6218  0.9081  0.9629
  240SOL     OW 2396   3.142   8.837   2.372 -0.1860 -0.1139  0.2665
  240SOL    HW1 2397   3.142   8.808   2.281  1.0490  2.1514 -0.4825
  240SOL    HW2 2398   3.074   8.903   2.377  0.8820  0.9795  0.5759
  241SOL     OW 2399   4.262   4.504   1.951  0.3491 -0.1075  0.5091
  241SOL    HW1 2400   4.352   4.476   1.940 -0.0564 -2.2277  2.2852
  241SOL    HW2 2401   4.210   4.426   1.934 -1.2099  1.2112 -1.0219
  242SOL     OW 2402   5.634   2.713   5.791 -0.2841 -0.1274  0.4055
  242SOL    HW1 2403   5.553   2.710   5.842 -2.2173  0.2606 -2.5201
  242SOL    HW2 2404   5.613   2.767   5.716  2.3868 -0.9265 -0.9866
  243SOL     OW 2405   2.903   8.720   6.014 -0.3137  0.3733 -0.1778
  243SOL    HW1 2406   2.992   8.690   6.033 -0.1210  0.8847 -0.2503
  243SOL    HW2 2407   2.854   8.640   5.997  0.3897  0.1463 -1.2339
  244SOL     OW 2408   6.458   6.514   7.492 -0.3222  0.1379 -0.3326
  244SOL    HW1 2409   6.497   6.534   7.407  0.8672  0.7068  0.3282
  244SOL    HW2 2410   6.522   6.546   7.555 -1.1094 -0.4540  0.7766
  245SOL     OW 2411   1.435   4.222   9.165  0.3119  0.1699  0.7045
  245SOL    HW1 2412   1.479   4.146   9.127 -1.2919 -0.6589  0.4693
  245SOL    HW2 2413   1.457   4.295   9.107 -0.8713 -0.7861 -0.9684
  246SOL     OW 2414   8.238   6.280   7.889 -0.6045 -0.4021 -0.1578
  246SOL    HW1 2415   8.294   6.207   7.863 -0.6880 -0.3324 -0.5384
  246SOL    HW2 2416   8.298   6.343   7.930 -0.3326 -0.1296 -0.9719
  247SOL     OW 2417   6.696   2.722   2.741 -0.4890 -0.1236  0.4238
  247SOL    HW1 2418   6.742   2.772   2.673 -1.1372 -0.5933 -0.3721
  247SOL    HW2 2419   6.636   2.786   2.780  0.3176  0.3048  0.9711
  248SOL     OW 2420   1.472   4.733   5.793  0.6020  0.6149  0.0376
  248SOL    HW1 2421   1.480   4.765   5.883  1.3769  0.7591 -0.0860
  248SOL    HW2 2422   1.551   4.683   5.778 -0.7440 -1.6819  0.3380
  249SOL     OW 2423   1.643   0.431   4.902  0.3949 -0.2228 -0.5206
  249SOL    HW1 2424   1.679   0.516   4.930  1.2173 -0.9657  0.7274
  249SOL    HW2 2425   1.597   0.450   4.821  1.5766  1.2107 -0.8724
  250SOL     OW 2426   5.031   1.612   0.868  0.0831  0.1989  0.2331
  250SOL    HW1 2427   5.101   1.550   0.850  1.6899  1.8408  0.5785
  250SOL    HW2 2428   4.982   1.617   0.786  0.1241 -1.2613  0.1079
  251SOL     OW 2429   0.135   1.289   3.225  0.3242 -1.0996 -0.0950
  251SOL    HW1 2430   0.196   1.220   3.199  1.7429  0.0396  0.1445
  251SOL    HW2 2431   0.096   1.258   3.307  0.4533 -1.9145 -0.3423
  252SOL     OW 2432   3.756   2.870   4.949 -0.6111 -0.7450  0.4110
  252SOL    HW1 2433   3.830   2.809   4.944  1.2365  1.4621  0.2289
  252SOL    HW2 2434   3.729   2.881   4.858 -0.3268 -0.5585  0.3473
  253SOL     OW 2435   4.088   8.929   2.967 -0.1212 -0.2596 -0.1457
  253SOL    HW1 2436   4.167   8.891   2.929  0.2948  0.6809 -0.2287
  253SOL    HW2 2437   4.116   9.014   3.001 -1.1703  0.2239 -0.4784
  254SOL     OW 2438   8.873   3.089   4.139 -0.0877 -0.2900 -0.8519
  254SOL    HW1 2439   8.904   3.032   4.069  1.4898 -0.7963  0.2406
  254SOL    HW2 2440   8.888   3.040   4.219 -0.5533  0.8612 -0.0423
  255SOL     OW 2441   3.454   0.223   1.965 -0.0604  0.3977  0.3132
  255SOL    HW1 2442   3.452   0.137   1.924 -0.3922  0.1655  0.8212
  255SOL    HW2 2443   3.370   0.231   2.009  0.4348  0.5092  1.2429
  256SOL     OW 2444   4.509   4.129   3.887 -0.2458  0.5505 -0.2704
  256SOL    HW1 2445   4.455   4.208   3.886 -0.5270  0.3867  1.1709
  256SOL    HW2 2446   4.503   4.097   3.977  0.8401 -0.4475 -0.5450
  257SOL     OW 2447   2.641   2.526   6.690 -0.1550 -0.2089  0.0820
  257SOL    HW1 2448   2.672   2.444   6.651  2.5748  0.5695  0.4884
  257SOL    HW2 2449   2.566   2.500   6.744 -1.0710 -1.9850 -1.9691
  258SOL     OW 2450   6.868   3.453   6.574 -0.2451 -0.0724  0.1691
  258SOL    HW1 2451   6.853   3.369   6.616 -0.5776 -0.1014 -0.0103
  258SOL    HW2 2452   6.785   3.500   6.584 -1.6844 -1.5423 -3.8852
  259SOL     OW 2453   2.246   8.833   6.195  0.1093  0.5169 -0.1443
  259SOL    HW1 2454   2.333   8.813   6.228 -0.0121  1.1546  0.6027
  259SOL    HW2 2455   2.187   8.796   6.261 -0.1447  1.5104  0.2033
  260SOL     OW 2456   6.051   3.724   7.613  0.1331 -0.2892  0.1947
  260SOL    HW1 2457   6.069   3.665   7.687 -0.5372  0.9308  1.3547
  260SOL    HW2 2458   6.114   3.697   7.546  0.5084 -1.6708  1.0646
  261SOL     OW 2459   1.609   1.348   9.185 -0.3822 -0.4297 -0.1762
  261SOL    HW1 2460   1.550   1.275   9.201 -0.2839 -0.9620 -2.0634
  261SOL    HW2 2461   1.603   1.363   9.090  0.1851  1.5022  0.0699
  262SOL     OW 2462   8.431   0.640   3.482  0.7750 -0.5379 -0.1897
  262SOL    HW1 2463   8.502   0.696   3.451  0.4570  0.8192  1.4356
  262SOL    HW2 2464   8.383   0.695   3.544  0.2681 -2.5194  1.2256
  263SOL     OW 2465   8.286   8.643   5.067 -0.8530 -0.4554 -0.4154
  263SOL    HW1 2466   8.341   8.567   5.049 -0.0773  0.1948 -0.7993
  263SOL    HW2 2467   8.220   8.642   4.998  0.1367  0.1454 -1.3822
  264SOL     OW 2468   7.055   5.410   3.130 -0.3653 -0.2074 -0.2475
  264SOL    HW1 2469   6.979   5.357   3.153  0.8077 -1.4378  0.8588
  264SOL    HW2 2470   7.114   5.350   3.084 -0.0635  0.7306 -1.1036
  265SOL     OW 2471   6.198   8.666   5.617 -0.3675 -0.4795 -0.5719
  265SOL    HW1 2472   6.201   8.612   5.697  0.9147  2.3120  1.3370
  265SOL    HW2 2473   6.290   8.685   5.598 -0.7670  0.3691 -1.6595
  266SOL     OW 2474   8.076   4.125   5.151  0.1746  0.0686 -0.2963
  266SOL    HW1 2475   8.165   4.122   5.186  0.7087  1.2942 -1.4863
  266SOL    HW2 2476   8.088   4.121   5.056 -0.9693  1.1320 -0.4993
  267SOL     OW 2477   2.760   1.452   6.047  0.1907  0.2986  0.7305
  267SOL    HW1 2478   2.758   1.358   6.063 -0.8900 -0.1122 -1.6342
  267SOL    HW2 2479   2.674   1.483   6.076 -0.7877 -0.0387 -1.6809
  268SOL     OW 2480   0.352   1.915   4.112  0.3327  0.8021 -0.0253
  268SOL    HW1 2481   0.351   1.825   4.144 -0.8197  0.3584 -1.2332
  268SOL    HW2 2482   0.278   1.957   4.156  1.4313  1.4276  1.2428
  269SOL     OW 2483   1.435   6.610   7.821  0.7975 -0.8064 -0.3558
  269SOL    HW1 2484   1.526   6.583   7.832  0.7104 -0.8380  0.2881
  269SOL    HW2 2485   1.395   6.596   7.907  0.7476  1.3890 -0.0109
  270SOL     OW 2486   0.037   7.037   4.632  0.1283 -0.2961  0.3026
  270SOL    HW1 2487   0.079   7.001   4.711  0.2993 -0.1686  0.2707
  270SOL    HW2 2488  -0.025   7.101   4.666 -0.9325 -1.3668  0.4119
  271SOL     OW 2489   4.903   6.580   1.275 -0.4727  0.1083 -0.2022
  271SOL    HW1 2490   4.829   6.640   1.266 -1.9607 -1.6392 -0.1074
  271SOL    HW2 2491   4.878   6.523   1.348  0.5587 -1.0831 -0.7521
  272SOL     OW 2492   1.579   4.583   0.687 -0.3475  0.1070 -0.1277
  272SOL    HW1 2493   1.652   4.578   0.749  1.0853 -1.2964 -1.8750
  272SOL    HW2 2494   1.613   4.636   0.614 -1.6728  0.8839 -0.2049
  273SOL     OW 2495   3.204   2.547   1.209  0.0041 -0.1796  0.4846
  273SOL    HW1 2496   3.220   2.498   1.128  0.3286 -0.6771  0.8435
  273SOL    HW2 2497   3.289   2.548   1.253 -0.1941  0.0114  0.8640
  274SOL     OW 2498   6.908   2.566   0.606  0.4356  0.2083  0.0383
  274SOL    HW1 2499   6.887   2.659   0.596  0.5091  0.2365  0.1513
  274SOL    HW2 2500   6.900   2.549   0.700  0.9531  0.2265  0.0869
  275SOL     OW 2501   2.752   2.766   3.419 -0.3046 -0.2502  0.8585
  275SOL    HW1 2502   2.845   2.755   3.397  0.0007  1.8687  1.0122
  275SOL    HW2 2503   2.706   2.716   3.351  0.9410 -2.0275  1.2676
  276SOL     OW 2504   3.622   2.889   6.124 -0.1280 -0.1171 -0.0653
  276SOL    HW1 2505   3.673   2.970   6.127  0.2300 -0.3516  0.2878
  276SOL    HW2 2506   3.552   2.907   6.061  0.0741  0.3924 -0.1492
  277SOL     OW 2507   7.517   6.884   1.599  0.6150 -0.4684 -0.6185
  277SOL    HW1 2508   7.527   6.875   1.504  0.2902 -3.2805 -0.4379
  277SOL    HW2 2509   7.442   6.942   1.610 -0.0594 -1.0350 -2.0926
  278SOL     OW 2510   6.480   5.319   0.900  0.5781  0.1748 -0.0745
  278SOL    HW1 2511   6.541   5.393   0.905  0.3595  0.3338  0.2437
  278SOL    HW2 2512   6.510   5.259   0.968  0.3549  0.2703  0.1069
  279SOL     OW 2513   8.108   3.960   1.105 -0.4755 -0.3794 -0.7068
  279SOL    HW1 2514   8.138   4.026   1.167 -0.5290  1.4905 -2.6227
  279SOL    HW2 2515   8.088   4.009   1.025  1.3925 -2.9327 -2.8481
  280SOL     OW 2516   8.662   8.735   0.342  0.3354 -0.4177 -0.2703
  280SOL    HW1 2517   8.729   8.666   0.347 -0.4567 -1.1091  1.1908
  280SOL    HW2 2518   8.592   8.696   0.289  1.0027  0.2552 -1.6832
  281SOL     OW 2519   8.641   5.586   1.536  0.3822 -0.2671 -0.0696
  281SOL    HW1 2520   8.606   5.589   1.625  0.0643 -0.1978 -0.1941
  281SOL    HW2 2521   8.708   5.654   1.534 -1.2149  1.3596 -0.5441
  282SOL     OW 2522   7.758   0.089   2.536 -0.4771  0.1865 -0.2750
  282SOL    HW1 2523   7.786   0.007   2.575 -0.5881 -0.3370 -1.2847
  282SOL    HW2 2524   7.832   0.117   2.482  0.1662  1.5475  1.2811
  283SOL     OW 2525   2.875   3.512   8.856 -0.2915  0.1665  0.6828
  283SOL    HW1 2526   2.783   3.496   8.878 -0.3287  0.2888  0.6162
  283SOL    HW2 2527   2.924   3.452   8.913 -0.3349  1.2689  1.9197
  284SOL     OW 2528   1.626   6.038   0.780 -0.2788 -0.0819  0.0609
  284SOL    HW1 2529   1.634   5.991   0.863  0.1033  0.1281  0.1456
  284SOL    HW2 2530   1.634   5.970   0.713  2.3144  0.0933  0.1428
  285SOL     OW 2531   2.279   6.181   4.148 -0.0109  0.5060  0.0858
  285SOL    HW1 2532   2.206   6.221   4.194  0.0493  1.0316 -0.2780
  285SOL    HW2 2533   2.275   6.217   4.059  1.1150  1.0848  0.2681
  286SOL     OW 2534   2.180   9.244   8.925  0.1407 -0.4131 -0.5739
  286SOL    HW1 2535   2.104   9.250   8.868  0.0994 -2.0744 -0.6962
  286SOL    HW2 2536   2.145   9.252   9.014  0.0719  0.9313 -0.7092
  287SOL     OW 2537   4.853   6.169   7.501  0.1900  0.5460  0.3572
  287SOL    HW1 2538   4.788   6.099   7.504 -0.7059  1.4391  2.6391
  287SOL    HW2 2539   4.801   6.249   7.488  0.9689  1.0892  0.5616
  288SOL     OW 2540   4.092   1.043   0.004  0.1918  0.7026  0.1445
  288SOL    HW1 2541   4.057   0.974  -0.053  1.0706  0.9647 -0.7380
  288SOL    HW2 2542   4.059   1.124  -0.034  0.2484  0.8458  0.3994
  289SOL     OW 2543   9.141   8.713   2.976 -0.3198 -0.1484  0.2510
  289SOL    HW1 2544   9.231   8.742   2.989 -0.3211 -0.3265  0.6680
  289SOL    HW2 2545   9.106   8.704   3.065 -0.2286 -1.7080  0.1346
  290SOL     OW 2546   2.889   3.084   2.531 -0.0089  0.0224 -0.0027
  290SOL    HW1 2547   2.824   3.079   2.461 -0.9748 -1.6184  0.9792
  290SOL    HW2 2548   2.973   3.094   2.486 -0.6451 -0.7681 -1.3850
  291SOL     OW 2549   5.495   9.166   3.753 -0.0468 -0.4542  0.0667
  291SOL    HW1 2550   5.568   9.131   3.702 -0.2606  0.3196 -0.7778
  291SOL    HW2 2551   5.537   9.222   3.819  0.1036  0.3040 -0.6676
  292SOL     OW 2552   3.739   3.132   3.146  0.0038 -0.6689  0.0706
  292SOL    HW1 2553   3.817   3.182   3.170 -0.6633 -0.5530  2.1443
  292SOL    HW2 2554   3.666   3.188   3.172 -0.7896 -0.6152 -2.1901
  293SOL     OW 2555   8.278   9.092   2.404  0.4288 -0.4072  0.2574
  293SOL    HW1 2556   8.194   9.118   2.366 -0.0153 -0.3878  1.2425
  293SOL    HW2 2557   8.344   9.134   2.348 -0.2292  0.4080  0.0847
  294SOL     OW 2558   2.935   1.007   8.881  0.3021 -0.2219 -0.2279
  294SOL    HW1 2559   3.014   0.972   8.838 -0.0295  1.6811 -2.4793
  294SOL    HW2 2560   2.876   1.028   8.809 -1.3500  0.5843  1.3206
  295SOL     OW 2561   2.369   4.002   5.557  0.4625 -0.1561 -0.2526
  295SOL    HW1 2562   2.328   4.043   5.633  0.9303  0.3704 -0.2840
  295SOL    HW2 2563   2.439   4.062   5.531  1.6935 -1.3648  0.2109
  296SOL     OW 2564   4.530   5.620   8.352  0.1627 -0.5790 -0.3178
  296SOL    HW1 2565   4.605   5.567   8.324 -0.7717 -1.1567 -1.7612
  296SOL    HW2 2566   4.539   5.624   8.447  0.7521 -2.5969 -0.2566
  297SOL     OW 2567   8.075   5.308   2.637 -0.0015  0.4717 -0.1316
  297SOL    HW1 2568   8.137   5.300   2.709 -0.6364  3.2012  0.7966
  297SOL    HW2 2569   8.129   5.301   2.558  0.8522 -1.4567  0.6077
  298SOL     OW 2570   8.685   5.213   8.446 -0.1218  0.2352  0.1708
  298SOL    HW1 2571   8.620   5.144   8.459  1.4464 -1.0676  1.3404
  298SOL    HW2 2572   8.662   5.280   8.510 -0.9046  0.2421 -0.1119
  299SOL     OW 2573   1.074   3.756   3.150  0.0409 -0.2508 -0.1302
  299SOL    HW1 2574   1.108   3.846   3.146  0.6178 -0.4287  0.7230
  299SOL    HW2 2575   1.069   3.736   3.243 -1.6133 -0.5401 -0.2562
  300SOL     OW 2576   8.157   6.391   4.199 -0.1620  0.5051 -0.2556
  300SOL    HW1 2577   8.213   6.457   4.158 -0.1552  1.1789  0.8172
  300SOL    HW2 2578   8.073   6.398   4.153 -0.2268  1.4118 -0.0137
  301SOL     OW 2579   7.838   2.756   4.049 -0.0276 -0.1201 -0.4250
  301SOL    HW1 2580   7.829   2.764   4.144 -0.6352  0.3956 -0.5259
  301SOL    HW2 2581   7.920   2.801   4.029  0.1775 -0.3579 -0.1297
  302SOL     OW 2582   5.027   6.864   2.824 -0.4587 -0.2261 -0.0389
  302SOL    HW1 2583   4.967   6.857   2.898 -0.4905  0.0493 -0.0377
  302SOL    HW2 2584   5.098   6.919   2.856 -0.5047 -0.0544 -0.2346
  303SOL     OW 2585   1.719   0.526   1.433  0.4402 -0.0492  0.4186
  303SOL    HW1 2586   1.790   0.574   1.476  0.2287  0.3790  0.2904
  303SOL    HW2 2587   1.729   0.436   1.464  0.5658  0.1637  1.0043
  304SOL     OW 2588   4.036   7.530   1.431 -0.6159  0.3990 -0.1425
  304SOL    HW1 2589   4.015   7.447   1.387 -0.5134  1.2784 -1.8808
  304SOL    HW2 2590   4.074   7.503   1.514  0.2504 -1.3488 -1.0596
  305SOL     OW 2591   1.671   5.082   6.009  0.1571  0.1417 -0.2291
  305SOL    HW1 2592   1.637   5.171   5.994  0.2106  0.0434 -0.9385
  305SOL    HW2 2593   1.762   5.087   5.982  0.0196 -0.2672 -0.7670
  306SOL     OW 2594   1.396   6.198   4.261 -0.2209  0.0104 -0.3605
  306SOL    HW1 2595   1.432   6.234   4.342 -0.0780 -0.0869 -0.3812
  306SOL    HW2 2596   1.325   6.258   4.238 -1.3195 -0.8518  0.7027
  307SOL     OW 2597   1.623   0.463   8.831  0.0599 -0.4385 -0.2807
  307SOL    HW1 2598   1.667   0.508   8.903 -1.0499 -0.3813  0.3734
  307SOL    HW2 2599   1.694   0.434   8.774  0.9427 -0.3944  0.7832
  308SOL     OW 2600   1.511   2.338   1.353 -0.3373 -0.6139  0.1847
  308SOL    HW1 2601   1.465   2.336   1.270  2.3225  1.8180 -1.4536
  308SOL    HW2 2602   1.474   2.414   1.399  1.4046  0.8777 -0.8102
  309SOL     OW 2603   8.983   5.708   2.864  0.6377 -0.2408 -0.3277
  309SOL    HW1 2604   8.984   5.795   2.904  2.6349  0.4242 -1.7037
  309SOL    HW2 2605   8.936   5.720   2.782  2.6101  0.0538 -1.4669
  310SOL     OW 2606   8.644   8.427   1.424  0.5182  0.4213  0.5309
  310SOL    HW1 2607   8.553   8.437   1.451  1.2015  1.4338  2.5233
  310SOL    HW2 2608   8.646   8.343   1.378 -1.5396  0.6945 -0.1024
  311SOL     OW 2609   1.777   5.412   6.763  0.0994  0.2254  0.0534
  311SOL    HW1 2610   1.800   5.347   6.829  1.5505 -0.0335 -0.6872
  311SOL    HW2 2611   1.723   5.476   6.810  1.3708  0.2100  1.5506
  312SOL     OW 2612   0.428   4.613   1.455 -0.3171  0.3723 -0.3547
  312SOL    HW1 2613   0.378   4.567   1.387  0.2909  0.2756 -0.7436
  312SOL    HW2 2614   0.517   4.577   1.447 -0.0673  0.9098 -0.0064
  313SOL     OW 2615   4.413   6.627   5.202  0.1157  0.3202 -0.4792
  313SOL    HW1 2616   4.347   6.662   5.262  0.5056 -0.8177  0.6205
  313SOL    HW2 2617   4.485   6.689   5.207 -0.3791  0.9279 -0.7785
  314SOL     OW 2618   2.556   9.131   5.899 -0.1312  0.1431  0.1574
  314SOL    HW1 2619   2.648   9.153   5.888  0.4267 -1.8588  0.6103
  314SOL    HW2 2620   2.531   9.170   5.983  0.6945 -0.5090  0.7083
  315SOL     OW 2621   5.690   1.962   5.710 -0.0488  0.0231 -0.1171
  315SOL    HW1 2622   5.615   1.958   5.651  1.0568 -0.6045 -1.4986
  315SOL    HW2 2623   5.756   1.906   5.670  2.3825  3.1478 -0.6768
  316SOL     OW 2624   8.068   1.268   4.409  0.0144  0.6954  0.1025
  316SOL    HW1 2625   8.126   1.277   4.333 -1.6665 -1.4643 -1.5187
  316SOL    HW2 2626   8.082   1.178   4.439 -3.2252 -0.2384 -1.0000
  317SOL     OW 2627   1.149   0.688   4.798 -0.6991  0.1868 -0.1121
  317SOL    HW1 2628   1.079   0.750   4.775  0.2597  2.2611  2.2969
  317SOL    HW2 2629   1.211   0.694   4.726 -0.5573  2.1795  0.1388
  318SOL     OW 2630   9.277   1.651   8.089 -0.4797  0.6496 -0.5980
  318SOL    HW1 2631   9.248   1.635   7.999  0.2687  0.2910 -0.7817
  318SOL    HW2 2632   9.367   1.617   8.091 -0.1988  1.4352  0.0497
  319SOL     OW 2633   8.349   8.006   2.731  0.5962  0.1627 -0.7495
  319SOL    HW1 2634   8.358   8.023   2.824  2.7123  0.4584 -0.9943
  319SOL    HW2 2635   8.313   7.917   2.726  0.1413  0.2825  0.3442
  320SOL     OW 2636   4.340   1.668   8.769 -0.3978 -0.1053 -0.0598
  320SOL    HW1 2637   4.282   1.738   8.797  0.7398 -0.3715  3.1322
  320SOL    HW2 2638   4.425   1.710   8.758  0.3586 -0.9596  2.1490
  321SOL     OW 2639   0.705   3.022   6.731  0.0558  0.6553 -0.2100
  321SOL    HW1 2640   0.659   3.101   6.760 -2.2215 -0.2349 -1.3086
  321SOL    HW2 2641   0.717   3.035   6.637  0.0437 -0.1296 -0.3208
  322SOL     OW 2642   0.798   4.133   0.047  0.0653 -0.1539  0.1972
  322SOL    HW1 2643   0.704   4.117   0.039 -0.4328  1.0204  3.1740
  322SOL    HW2 2644   0.815   4.209  -0.010 -0.4064 -1.5013 -1.7838
  323SOL     OW 2645   8.894   3.205   6.189  0.0303  0.2796  0.3152
  323SOL    HW1 2646   8.818   3.229   6.135  1.0931  0.7451 -0.9977
  323SOL    HW2 2647   8.938   3.135   6.140  2.2011  2.1672 -0.5370
  324SOL     OW 2648   4.361   7.631   7.133  0.5775  0.1279  0.1875
  324SOL    HW1 2649   4.300   7.593   7.195 -1.2641 -0.2253 -1.7912
  324SOL    HW2 2650   4.388   7.558   7.077 -1.7113  1.2873 -2.5838
  325SOL     OW 2651   2.456   8.311   3.181  0.1155 -0.0706  0.6484
  325SOL    HW1 2652   2.429   8.275   3.266 -0.0621  0.4481  0.8200
  325SOL    HW2 2653   2.469   8.235   3.125 -0.8049 -0.3770  0.8394
  326SOL     OW 2654   6.452   1.181   3.343  0.2138 -0.2597  0.0691
  326SOL    HW1 2655   6.531   1.231   3.361  1.5978 -3.3173  3.0959
  326SOL    HW2 2656   6.480   1.113   3.282 -0.4006 -0.4776  0.0238
  327SOL     OW 2657   0.666   1.454   7.464  0.7009 -0.4449 -0.3498
  327SOL    HW1 2658   0.676   1.361   7.447  0.4940 -0.3465 -1.0408
  327SOL    HW2 2659   0.592   1.481   7.408  1.0348  0.2120 -0.4856
  328SOL     OW 2660   6.640   0.933   7.340 -0.5092  0.2958 -0.2489
  328SOL    HW1 2661   6.647   0.842   7.368 -2.1635  0.3160  0.2718
  328SOL    HW2 2662   6.642   0.984   7.421  0.8814  0.7641 -0.5666
  329SOL     OW 2663   4.786   0.205   4.925  0.3202 -0.6236  0.1133
  329SOL    HW1 2664   4.709   0.225   4.872  2.4627 -2.2897 -3.8886
  329SOL    HW2 2665   4.811   0.288   4.964 -0.3574  1.1475 -3.0036
  330SOL     OW 2666   4.481   0.687   0.580 -0.1831  0.0343  0.2193
  330SOL    HW1 2667   4.503   0.774   0.547  1.1197 -0.2221  0.3775
  330SOL    HW2 2668   4.552   0.631   0.550 -2.0783 -1.4475 -1.7204
  331SOL     OW 2669   5.525   5.340   2.047  0.2956 -0.5140  0.6917
  331SOL    HW1 2670   5.574   5.335   1.965  1.4138  0.4220  1.2828
  331SOL    HW2 2671   5.527   5.251   2.082 -1.6495 -1.2955 -1.1103
  332SOL     OW 2672   3.357   4.873   2.227 -0.1016  0.4364 -0.1137
  332SOL    HW1 2673   3.451   4.861   2.212  0.1174  2.9235 -0.9279
  332SOL    HW2 2674   3.329   4.791   2.268  2.5220 -0.1521  0.6217
  333SOL     OW 2675   0.368   1.059   0.825  0.1273 -0.2452  0.1057
  333SOL    HW1 2676   0.402   0.974   0.853  2.1954 -0.0978 -1.8818
  333SOL    HW2 2677   0.392   1.066   0.733 -1.0104  2.0318 -0.0576
  334SOL     OW 2678   4.793   6.344   5.678  0.8793 -0.3176 -0.0296
  334SOL    HW1 2679   4.855   6.375   5.743 -0.3806 -0.4945  1.2684
  334SOL    HW2 2680   4.810   6.398   5.600  1.0288  1.2807  1.0923
  335SOL     OW 2681   2.908   4.059   7.133  0.4146 -0.0568  0.7244
  335SOL    HW1 2682   2.923   4.086   7.043  2.1484  1.0342  1.3058
  335SOL    HW2 2683   2.839   3.993   7.128 -1.9523  2.4674 -1.0291
  336SOL     OW 2684   0.071   9.123   0.252 -0.1866  0.1466 -0.1558
  336SOL    HW1 2685   0.161   9.130   0.220 -0.1994 -1.2486 -0.5297
  336SOL    HW2 2686   0.067   9.038   0.296 -0.7868  1.0615  1.6292
  337SOL     OW 2687   6.595   3.242   3.672  0.6892  0.0722 -0.3129
  337SOL    HW1 2688   6.685   3.272   3.687 -0.0616  0.9685  2.6448
  337SOL    HW2 2689   6.588   3.160   3.722 -0.0431 -0.1817 -0.8184
  338SOL     OW 2690   4.040   6.994   8.075 -0.1596 -0.3017  0.1151
  338SOL    HW1 2691   4.127   6.967   8.104 -0.6854 -1.3167  0.7799
  338SOL    HW2 2692   4.040   6.979   7.981  0.6520  0.4578 -0.0078
  339SOL     OW 2693   6.951   6.238   6.117 -0.0821 -0.3530  0.2687
  339SOL    HW1 2694   6.895   6.296   6.065 -1.0890  0.9577  2.7281
  339SOL    HW2 2695   6.890   6.190   6.173  1.1041 -0.2671  1.6551
  340SOL     OW 2696   9.079   8.084   5.981 -0.0906 -0.4729 -0.0262
  340SOL    HW1 2697   9.007   8.146   5.991 -0.3847 -1.0043  1.3757
  340SOL    HW2 2698   9.076   8.032   6.062  0.7618 -1.6518 -0.7467
  341SOL     OW 2699   3.890   8.122   5.928  0.6874  0.4889  0.5943
  341SOL    HW1 2700   3.884   8.029   5.907 -2.2989  0.6829  0.4488
  341SOL    HW2 2701   3.865   8.167   5.847  1.8633  1.4322  0.7394
  342SOL     OW 2702   3.464   4.035   7.984 -0.1309  0.0332  0.3189
  342SOL    HW1 2703   3.449   3.941   7.982  0.8551 -0.1352  0.4589
  342SOL    HW2 2704   3.405   4.070   7.917  0.5853 -0.8521 -0.8070
  343SOL     OW 2705   6.410   7.629   0.037  0.1401 -0.1217  0.2268
  343SOL    HW1 2706   6.327   7.625   0.083 -0.3223  0.4097 -0.5452
  343SOL    HW2 2707   6.400   7.569  -0.037  0.5923 -0.3726  0.3628
  344SOL     OW 2708   3.305   6.936   8.329  0.1959  0.1238  0.4779
  344SOL    HW1 2709   3.227   6.942   8.274 -0.0903  0.5552  0.9203
  344SOL    HW2 2710   3.281   6.874   8.398  1.6352 -2.8464 -1.6159
  345SOL     OW 2711   5.287   1.885   1.348  0.3898  0.2050 -0.3765
  345SOL    HW1 2712   5.315   1.848   1.264 -1.0658 -1.1864 -0.2582
  345SOL    HW2 2713   5.252   1.972   1.325  1.2723  0.4036 -1.0124
  346SOL     OW 2714   0.542   0.439   9.228 -0.1389  0.3441  0.6437
  346SOL    HW1 2715   0.518   0.347   9.226  0.4688  0.1342  2.2796
  346SOL    HW2 2716   0.637   0.440   9.240 -0.3564  1.1631  2.4978
  347SOL     OW 2717   4.038   7.058   1.767 -0.5129 -0.8342 -0.5905
  347SOL    HW1 2718   4.116   7.077   1.715  0.4847 -2.1835  0.3906
  347SOL    HW2 2719   4.019   7.140   1.812  0.7458 -0.6941 -0.3002
  348SOL     OW 2720   5.719   4.002   4.156  0.2397 -0.1222 -0.2174
  348SOL    HW1 2721   5.779   4.039   4.220 -1.5786  1.7796  0.4400
  348SOL    HW2 2722   5.710   4.069   4.089 -1.3269 -0.2775 -0.1829
  349SOL     OW 2723   2.727   4.434   7.364  0.0760 -0.3125 -0.3641
  349SOL    HW1 2724   2.634   4.426   7.383 -0.2590  1.7020 -0.9791
  349SOL    HW2 2725   2.765   4.350   7.389 -1.8038 -0.9244  0.4753
  350SOL     OW 2726   4.213   9.091   5.572  0.3973  0.2579  0.2292
  350SOL    HW1 2727   4.219   9.185   5.585 -1.7315  0.3361  0.8554
  350SOL    HW2 2728   4.250   9.076   5.485 -0.2072  1.7950 -0.2980
  351SOL     OW 2729   4.267   8.675   3.013  0.2291 -0.3192  0.4761
  351SOL    HW1 2730   4.179   8.645   2.991 -0.9139  2.7752  0.5923
  351SOL    HW2 2731   4.321   8.651   2.938 -1.4946  0.9668 -1.2227
  352SOL     OW 2732   8.434   0.809   4.534 -0.3311  0.1328 -0.0734
  352SOL    HW1 2733   8.420   0.854   4.618 -2.1999  1.6372 -1.1433
  352SOL    HW2 2734   8.523   0.834   4.508 -0.9827  2.5119 -0.1660
  353SOL     OW 2735   7.463   4.772   7.239  0.4536 -0.1063  0.2546
  353SOL    HW1 2736   7.386   4.819   7.271  1.3503  1.0845  0.7061
  353SOL    HW2 2737   7.537   4.826   7.267  1.3561 -0.1270 -1.9928
  354SOL     OW 2738   0.012   5.263   7.641 -0.2844 -0.0489 -0.5819
  354SOL    HW1 2739  -0.051   5.197   7.669  0.0232 -0.4797 -0.9163
  354SOL    HW2 2740   0.056   5.290   7.722 -0.9746  0.3375 -0.3294
  355SOL     OW 2741   8.789   5.015   8.243 -0.2342 -0.5086 -0.0442
  355SOL    HW1 2742   8.720   5.082   8.247 -0.1416 -0.4173  0.0947
  355SOL    HW2 2743   8.849   5.040   8.314 -1.4603 -2.1327  1.6186
  356SOL     OW 2744   4.728   6.705   8.804  0.3032 -0.1377 -0.6599
  356SOL    HW1 2745   4.668   6.768   8.764 -0.5382 -1.0300 -0.8402
  356SOL    HW2 2746   4.793   6.686   8.737 -0.1886 -0.4370 -1.0516
  357SOL     OW 2747   4.227   6.449   4.406 -0.0104 -0.0460 -0.1908
  357SOL    HW1 2748   4.186   6.392   4.471  0.5411 -0.3630 -0.1117
  357SOL    HW2 2749   4.291   6.500   4.455  1.2843 -1.1582 -0.6668
  358SOL     OW 2750   0.959   1.653   1.648  0.7273  0.4236  0.5132
  358SOL    HW1 2751   0.987   1.661   1.739  1.5241 -0.5336  0.3584
  358SOL    HW2 2752   0.877   1.603   1.653 -0.1807  1.9149  0.8401
  359SOL     OW 2753   5.946   9.052   9.248 -0.0223 -0.2200  0.2042
  359SOL    HW1 2754   5.866   9.031   9.295  0.2106  0.3522  0.8572
  359SOL    HW2 2755   6.017   9.024   9.306  0.2522 -0.5293 -0.2783
  360SOL     OW 2756   1.357   4.302   2.337  0.6191  0.5838 -0.0531
  360SOL    HW1 2757   1.417   4.288   2.410  1.1324  0.9005 -0.4097
  360SOL    HW2 2758   1.283   4.349   2.375  0.1690 -0.6244  0.5733
  361SOL     OW 2759   4.955   6.290   3.223 -0.2910 -0.4907  0.0375
  361SOL    HW1 2760   4.988   6.214   3.175  1.3220 -0.0101  0.3467
  361SOL    HW2 2761   4.883   6.323   3.170  1.7359  0.2972 -2.3217
  362SOL     OW 2762   8.916   1.041   4.303 -0.3200  0.5358  0.1730
  362SOL    HW1 2763   8.980   1.099   4.262 -0.7219  0.3508 -0.7162
  362SOL    HW2 2764   8.969   0.974   4.346  0.1235  1.1659  0.6097
  363SOL     OW 2765   2.123   2.202   0.516 -0.1730  0.1076  0.4152
  363SOL    HW1 2766   2.088   2.138   0.454  1.8762 -0.6743  0.0076
  363SOL    HW2 2767   2.216   2.180   0.522 -0.1613  0.7359  3.1131
  364SOL     OW 2768   2.786   4.376   8.529 -0.1759 -0.3512 -0.1749
  364SOL    HW1 2769   2.844   4.440   8.488 -0.1158  0.3259  0.9443
  364SOL    HW2 2770   2.698   4.400   8.499 -0.2256  0.6591  0.7353
  365SOL     OW 2771   2.816   3.570   1.093 -0.1469  0.5650  0.2671
  365SOL    HW1 2772   2.848   3.544   1.006 -0.7750 -0.1151  0.2342
  365SOL    HW2 2773   2.854   3.656   1.107 -0.2240  0.7843 -0.7901
  366SOL     OW 2774   3.531   1.762   3.823  0.4669  0.3257 -0.1203
  366SOL    HW1 2775   3.541   1.670   3.847 -0.1698  0.3896  0.4097
  366SOL    HW2 2776   3.524   1.809   3.906  0.3974  0.8112 -0.3933
  367SOL     OW 2777   7.294   6.521   2.344  0.1793  0.2707  0.1658
  367SOL    HW1 2778   7.370   6.573   2.370  0.1333  0.1022  0.6431
  367SOL    HW2 2779   7.250   6.500   2.427  1.0184 -1.8115  0.1052
  368SOL     OW 2780   4.374   9.221   2.899 -0.1939  0.3061 -0.0491
  368SOL    HW1 2781   4.300   9.281   2.896  0.6977  1.5500  1.5173
  368SOL    HW2 2782   4.405   9.227   2.990  1.6439 -0.3884 -0.6089
  369SOL     OW 2783   6.003   7.094   6.635 -0.0300  0.0341  0.4174
  369SOL    HW1 2784   5.981   7.001   6.633 -0.0467  0.0476 -0.0565
  369SOL    HW2 2785   5.934   7.134   6.688  0.3300 -0.3172  1.1512
  370SOL     OW 2786   4.961   7.053   6.481  0.2218  0.1688  0.1379
  370SOL    HW1 2787   4.964   7.076   6.388  1.0994  0.0141  0.1255
  370SOL    HW2 2788   4.871   7.075   6.508  0.1843  0.9104 -0.5664
  371SOL     OW 2789   1.883   7.314   1.217 -0.3794 -0.2930  0.3560
  371SOL    HW1 2790   1.855   7.224   1.201  1.2675 -0.9994  1.3406
  371SOL    HW2 2791   1.977   7.315   1.198 -0.1624  0.9552  1.3711
  372SOL     OW 2792   7.849   6.603   1.509 -0.3872  0.3662 -0.3311
  372SOL    HW1 2793   7.813   6.658   1.578 -1.4856  0.9340 -1.3379
  372SOL    HW2 2794   7.774   6.557   1.473 -0.0106  1.0143 -1.9744
  373SOL     OW 2795   3.938   7.385   7.555  0.2590  0.1558 -0.6962
  373SOL    HW1 2796   3.874   7.422   7.495 -1.5976 -2.4003 -0.4013
  373SOL    HW2 2797   3.997   7.333   7.500  0.4495  0.3467 -0.6710
  374SOL     OW 2798   4.788   7.545   0.304  0.5281 -0.0658 -0.1230
  374SOL    HW1 2799   4.710   7.492   0.289 -0.3554  0.9276  0.8358
  374SOL    HW2 2800   4.855   7.505   0.250 -1.2881  0.5267 -2.8919
  375SOL     OW 2801   8.222   7.847   0.123  0.0937  0.5241 -0.1568
  375SOL    HW1 2802   8.261   7.929   0.092  0.1045  0.6635  0.2182
  375SOL    HW2 2803   8.293   7.804   0.171  0.2029  0.1094 -0.6984
  376SOL     OW 2804   5.791   1.187   3.899 -0.1627  0.6061  0.5206
  376SOL    HW1 2805   5.732   1.114   3.879 -0.5240  1.1242 -0.3275
  376SOL    HW2 2806   5.836   1.160   3.979 -2.6366  0.8502  2.0375
  377SOL     OW 2807   9.121   6.982   5.241 -0.0818  0.0574 -0.1935
  377SOL    HW1 2808   9.127   6.926   5.164 -0.9359  1.1442 -1.0640
  377SOL    HW2 2809   9.051   6.943   5.294 -1.3830  0.8605 -1.2833
  378SOL     OW 2810   0.699   4.906   7.334 -0.3133 -0.0322  0.5268
  378SOL    HW1 2811   0.664   4.843   7.270  0.1544  0.4824 -0.2454
  378SOL    HW2 2812   0.706   4.856   7.415  0.0639 -0.9818 -0.0839
  379SOL     OW 2813   0.437   4.580   8.574 -0.1773 -0.4080 -0.0346
  379SOL    HW1 2814   0.427   4.667   8.613  1.4356 -0.0255 -0.4406
  379SOL    HW2 2815   0.529   4.575   8.550  0.3138 -3.1389  2.1406
  380SOL     OW 2816   5.724   1.605   6.958 -0.4934 -0.3538  0.0499
  380SOL    HW1 2817   5.793   1.613   6.893 -0.9882 -1.2732 -0.6178
  380SOL    HW2 2818   5.673   1.686   6.950 -1.2068 -0.9322 -1.5008
  381SOL     OW 2819   6.579   4.856   2.433  0.6649  0.0180 -0.6540
  381SOL    HW1 2820   6.532   4.776   2.411  0.1387  0.7444 -2.1812
  381SOL    HW2 2821   6.568   4.864   2.528 -0.9587 -0.6456 -0.7769
  382SOL     OW 2822   3.804   3.167   4.434  0.1977 -0.9759 -0.6224
  382SOL    HW1 2823   3.849   3.142   4.514  0.0930 -1.1362 -0.6129
  382SOL    HW2 2824   3.738   3.098   4.421 -1.4537  0.3476  0.4848
  383SOL     OW 2825   9.278   1.957   9.048 -0.1253  0.7392 -0.9128
  383SOL    HW1 2826   9.197   1.987   9.090  0.8121 -0.5407  1.8972
  383SOL    HW2 2827   9.254   1.873   9.009  0.3231 -0.6081  1.6453
  384SOL     OW 2828   7.132   0.795   6.346 -1.4415  1.2202  0.1200
  384SOL    HW1 2829   7.182   0.750   6.414 -1.3397  0.5845 -0.3728
  384SOL    HW2 2830   7.174   0.881   6.339 -1.0808  1.0747  0.4513
  385SOL     OW 2831   5.148   1.186   3.965  0.1101  0.7797  0.5765
  385SOL    HW1 2832   5.095   1.193   4.044  0.0128  1.5313  0.4549
  385SOL    HW2 2833   5.238   1.200   3.995 -0.0894  2.7300  0.3290
  386SOL     OW 2834   2.212   0.252   6.834  0.2506 -0.5838  0.0422
  386SOL    HW1 2835   2.291   0.205   6.860  0.2436  0.2451  1.6620
  386SOL    HW2 2836   2.144   0.218   6.892  0.0479  0.7442  0.5918
  387SOL     OW 2837   9.106   3.632   8.284  0.1238  0.1267 -0.1934
  387SOL    HW1 2838   9.175   3.616   8.219 -0.5719  2.1112 -1.4512
  387SOL    HW2 2839   9.027   3.647   8.233 -0.8236 -0.0325  1.1853
  388SOL     OW 2840   0.111   4.485   3.216 -0.7889  0.1403 -0.1850
  388SOL    HW1 2841   0.157   4.569   3.217 -4.3697  2.2017 -0.0596
  388SOL    HW2 2842   0.059   4.486   3.135  0.8531 -3.0018 -1.3824
  389SOL     OW 2843   0.898   8.612   2.961  0.1404 -0.0047 -0.2519
  389SOL    HW1 2844   0.863   8.701   2.958  0.6318  0.1483 -5.2669
  389SOL    HW2 2845   0.821   8.556   2.968 -0.2773  0.7023  1.0682
  390SOL     OW 2846   6.811   4.729   6.104 -0.0429  0.5043 -0.1927
  390SOL    HW1 2847   6.753   4.690   6.169 -1.5351  2.3065 -0.3734
  390SOL    HW2 2848   6.840   4.656   6.050 -1.9867 -0.4978  0.0485
  391SOL     OW 2849   2.619   2.326   5.531 -0.7384  0.0705  0.0360
  391SOL    HW1 2850   2.546   2.295   5.478  0.3812 -0.3389 -1.2796
  391SOL    HW2 2851   2.587   2.407   5.571 -2.0690 -0.3447 -0.1587
  392SOL     OW 2852   4.069   3.232   7.004 -0.0404  0.6355 -0.2651
  392SOL    HW1 2853   4.047   3.324   6.992 -1.2595  0.3933  0.0817
  392SOL    HW2 2854   4.115   3.228   7.088  0.3669  0.9793 -0.4689
  393SOL     OW 2855   1.506   6.885   8.846  0.1399 -0.6258  0.0446
  393SOL    HW1 2856   1.471   6.973   8.831 -0.4990 -0.8194  0.3704
  393SOL    HW2 2857   1.559   6.893   8.925  0.1386 -0.5145  0.0337
  394SOL     OW 2858   7.145   0.359   5.575 -0.0263  0.3770 -0.1680
  394SOL    HW1 2859   7.059   0.364   5.532  0.5621  0.5932 -1.3340
  394SOL    HW2 2860   7.194   0.433   5.540  1.5244 -1.2211 -1.4661
  395SOL     OW 2861   3.604   7.081   7.772  0.1627  0.0051 -0.7557
  395SOL    HW1 2862   3.620   7.030   7.852 -2.8972  0.6652  0.3384
  395SOL    HW2 2863   3.671   7.149   7.773  0.7396 -0.5692  0.7561
  396SOL     OW 2864   6.999   1.509   1.655 -0.1246  0.2163  0.0361
  396SOL    HW1 2865   6.952   1.480   1.577  0.4270 -0.8314  0.0763
  396SOL    HW2 2866   7.085   1.468   1.648 -0.0747  0.0934  1.2025
  397SOL     OW 2867   4.681   3.380   2.007  0.3831  0.0826  0.1478
  397SOL    HW1 2868   4.701   3.439   1.935  0.0431  1.3568  1.0799
  397SOL    HW2 2869   4.734   3.302   1.990 -0.6534 -0.1351 -2.1394
  398SOL     OW 2870   8.271   1.242   3.909  0.4178  0.0188  0.2068
  398SOL    HW1 2871   8.254   1.336   3.916 -0.4958 -0.0450 -0.9718
  398SOL    HW2 2872   8.363   1.236   3.882  0.3176  0.5862 -0.2573
  399SOL     OW 2873   4.399   3.858   4.465  0.2533 -0.2930 -0.0312
  399SOL    HW1 2874   4.490   3.880   4.441  0.4238  1.2604  1.8865
  399SOL    HW2 2875   4.350   3.870   4.384  1.3202  1.6712 -0.4276
  400SOL     OW 2876   8.686   1.158   3.661 -0.1828 -0.0448 -0.6318
  400SOL    HW1 2877   8.769   1.161   3.613 -0.9487 -0.6692 -2.0602
  400SOL    HW2 2878   8.625   1.120   3.598 -1.4637  0.0724  0.5327
  401SOL     OW 2879   7.353   8.853   1.448  0.1421 -0.3652 -0.3406
  401SOL    HW1 2880   7.265   8.882   1.425 -0.2226 -2.1564 -1.3100
  401SOL    HW2 2881   7.339   8.784   1.512  0.8166 -0.9897 -0.8629
  402SOL     OW 2882   6.878   1.856   8.755 -0.4907  0.0396  0.2118
  402SOL    HW1 2883   6.926   1.931   8.718  0.2067 -1.3759 -1.8400
  402SOL    HW2 2884   6.828   1.821   8.681 -1.5333 -0.9690  1.3742
  403SOL     OW 2885   1.048   8.083   7.885  0.5527  0.3454 -0.3319
  403SOL    HW1 2886   1.056   7.988   7.887  1.5885  0.4142 -0.6695
  403SOL    HW2 2887   1.088   8.112   7.967  1.9582  0.5822 -1.0741
  404SOL     OW 2888   0.019   3.371   0.061  0.3415  0.5863 -0.7290
  404SOL    HW1 2889   0.064   3.372   0.145 -0.0759  1.1991 -0.5114
  404SOL    HW2 2890   0.073   3.426   0.004  0.2477  0.7463 -0.6641
  405SOL     OW 2891   7.291   7.052   0.938  0.2330  0.0783  0.6517
  405SOL    HW1 2892   7.238   6.977   0.964  0.9971 -0.6919  0.0138
  405SOL    HW2 2893   7.378   7.033   0.972  0.2357  1.0781  1.2201
  406SOL     OW 2894   5.234   1.817   0.811 -0.0265 -0.1104  0.0960
  406SOL    HW1 2895   5.152   1.768   0.823  0.1588 -0.8123 -1.5212
  406SOL    HW2 2896   5.266   1.791   0.726  0.8978  1.6483 -0.1234
  407SOL     OW 2897   6.742   5.494   3.345  0.2424 -0.2046  0.3452
  407SOL    HW1 2898   6.768   5.406   3.317  2.0695  0.9106 -1.6882
  407SOL    HW2 2899   6.819   5.528   3.390 -0.5384  0.2835  1.3206
  408SOL     OW 2900   7.967   0.438   0.332  0.1398  0.6011  0.3526
  408SOL    HW1 2901   8.028   0.498   0.289 -0.0587  0.1480 -0.5685
  408SOL    HW2 2902   7.971   0.463   0.425  0.8045  1.3767  0.1260
  409SOL     OW 2903   8.698   2.264   5.412  0.3963  0.2076  0.3119
  409SOL    HW1 2904   8.675   2.352   5.439 -0.6793 -0.0075  0.1098
  409SOL    HW2 2905   8.764   2.236   5.475 -1.0196  0.2504  1.8497
  410SOL     OW 2906   8.286   7.486   3.661  0.0017  0.0989  0.1799
  410SOL    HW1 2907   8.259   7.405   3.704 -2.3755  1.0313  0.5056
  410SOL    HW2 2908   8.379   7.493   3.680 -0.0998 -1.7486  1.4759
  411SOL     OW 2909   0.564   2.247   5.493 -0.0409  0.5039  0.0600
  411SOL    HW1 2910   0.649   2.290   5.499 -0.1780  0.8926 -0.7216
  411SOL    HW2 2911   0.571   2.173   5.553  1.7351 -0.9224 -1.8045
  412SOL     OW 2912   5.124   1.905   6.518  0.9546  0.4700  0.1696
  412SOL    HW1 2913   5.140   1.998   6.504 -2.4070  1.1033  0.1399
  412SOL    HW2 2914   5.127   1.867   6.431  2.6378  0.4726  0.2123
  413SOL     OW 2915   8.972   3.170   5.390  1.1496 -0.2506 -0.2540
  413SOL    HW1 2916   8.988   3.118   5.311 -1.5549  0.4048 -1.2618
  413SOL    HW2 2917   8.936   3.252   5.358  1.3945  0.5919  1.5892
  414SOL     OW 2918   3.521   7.429   5.695 -0.1404  0.1979 -0.0251
  414SOL    HW1 2919   3.447   7.369   5.692 -0.3091  0.4600 -1.3349
  414SOL    HW2 2920   3.540   7.439   5.788 -0.3312 -1.6127  0.2220
  415SOL     OW 2921   6.592   5.535   7.598  0.3213 -0.5876 -0.6075
  415SOL    HW1 2922   6.656   5.502   7.536 -1.8256 -0.2986 -3.0465
  415SOL    HW2 2923   6.556   5.613   7.557 -1.4304 -0.6115  0.8056
  416SOL     OW 2924   2.255   3.752   1.480 -0.6147 -0.6436  1.0280
  416SOL    HW1 2925   2.166   3.736   1.448 -0.0061 -0.7348 -0.6653
  416SOL    HW2 2926   2.307   3.682   1.440  0.7932  1.2889 -0.6191
  417SOL     OW 2927   5.017   8.839   2.095  0.2102 -0.0444 -0.2008
  417SOL    HW1 2928   4.939   8.893   2.109  0.4913 -0.0606  1.5251
  417SOL    HW2 2929   5.026   8.834   2.000 -0.6933  1.6823 -0.3886
  418SOL     OW 2930   7.797   1.676   5.945 -0.2909 -0.4360  0.0143
  418SOL    HW1 2931   7.734   1.617   5.987  0.5680 -1.2062  0.2435
  418SOL    HW2 2932   7.797   1.754   5.999 -0.2072 -0.8801  0.6543
  419SOL     OW 2933   1.994   6.478   2.618  0.5526 -0.1909  0.4554
  419SOL    HW1 2934   1.957   6.519   2.540 -0.0783  0.8398  1.2863
  419SOL    HW2 2935   2.032   6.550   2.668  2.0942 -1.0001  0.5027
  420SOL     OW 2936   0.450   6.336   4.402 -0.5673 -0.0349  0.1858
  420SOL    HW1 2937   0.488   6.422   4.381  0.5167 -0.9015 -1.5520
  420SOL    HW2 2938   0.441   6.337   4.497 -1.6364  2.4347  0.0977
  421SOL     OW 2939   5.234   3.768   4.111 -0.0797  0.3123 -0.4023
  421SOL    HW1 2940   5.199   3.793   4.197  3.5739  2.6703  0.5249
  421SOL    HW2 2941   5.272   3.681   4.125 -0.4726  0.2191  0.1069
  422SOL     OW 2942   0.846   6.081   3.445 -0.0160 -0.4572 -0.1700
  422SOL    HW1 2943   0.916   6.130   3.489 -1.0867 -0.2313  1.3122
  422SOL    HW2 2944   0.781   6.148   3.422 -1.8669 -1.2236  2.5853
  423SOL     OW 2945   2.394   9.190   0.559  0.4218 -0.2458  0.0071
  423SOL    HW1 2946   2.436   9.218   0.639  1.9710 -2.0362 -0.1381
  423SOL    HW2 2947   2.441   9.111   0.533 -1.6823 -1.1406 -1.2935
  424SOL     OW 2948   3.646   4.938   2.446 -0.7195 -0.2232  0.1245
  424SOL    HW1 2949   3.718   4.887   2.410 -0.4047  0.8839 -0.8613
  424SOL    HW2 2950   3.679   4.972   2.529 -0.3746 -0.3509  0.0382
  425SOL     OW 2951   6.836   1.950   6.623  0.2441  0.4852 -0.7267
  425SOL    HW1 2952   6.886   1.933   6.703  0.0858  1.0191 -0.5126
  425SOL    HW2 2953   6.900   1.940   6.552  0.0760 -1.3639 -0.6448
  426SOL     OW 2954   6.791   0.029   5.465  0.3514 -0.1264 -0.1049
  426SOL    HW1 2955   6.791  -0.043   5.402 -0.0336 -1.4686  1.4024
  426SOL    HW2 2956   6.701   0.035   5.496  0.5786  0.3729  0.4766
  427SOL     OW 2957   2.361   9.098   3.179 -0.1595  0.0065  0.4037
  427SOL    HW1 2958   2.442   9.140   3.207 -1.0574  0.5151  2.3318
  427SOL    HW2 2959   2.384   9.005   3.171  0.7654  0.2362  0.3314
  428SOL     OW 2960   8.781   4.810   4.387  0.5469 -0.0933  0.5474
  428SOL    HW1 2961   8.705   4.854   4.427  0.0460  0.1006 -0.5943
  428SOL    HW2 2962   8.766   4.717   4.403 -1.3179 -0.2697 -1.9827
  429SOL     OW 2963   3.540   2.450   2.089 -0.1718  0.0647 -0.1225
  429SOL    HW1 2964   3.490   2.376   2.053  0.8054 -0.0954 -1.1647
  429SOL    HW2 2965   3.481   2.525   2.080 -0.5975 -0.3070 -0.4655
  430SOL     OW 2966   4.580   0.192   7.058  0.4554  0.7244 -0.1858
  430SOL    HW1 2967   4.542   0.240   6.985 -0.4203 -0.1670 -0.3266
  430SOL    HW2 2968   4.643   0.133   7.018 -0.5452 -0.2749 -0.2952
  431SOL     OW 2969   1.175   8.027   7.452 -0.1661  0.2977  0.4983
  431SOL    HW1 2970   1.245   7.962   7.462 -1.1356 -0.6920  1.0939
  431SOL    HW2 2971   1.189   8.089   7.523 -0.4134 -0.4069  1.1701
  432SOL     OW 2972   4.465   7.275   4.313  0.3408 -0.4611  0.0586
  432SOL    HW1 2973   4.505   7.319   4.238  0.9133 -1.3388 -0.1659
  432SOL    HW2 2974   4.493   7.184   4.305 -0.1231 -0.6951  0.9815
  433SOL     OW 2975   4.309   3.875   8.687 -0.0869 -0.0414 -0.0917
  433SOL    HW1 2976   4.267   3.933   8.751  0.9687  0.2764  0.3263
  433SOL    HW2 2977   4.279   3.787   8.710 -0.9193  0.2345 -0.1146
  434SOL     OW 2978   2.393   0.661   3.773 -0.5884 -0.5602  0.5670
  434SOL    HW1 2979   2.329   0.685   3.840  1.0225 -0.3721  2.0746
  434SOL    HW2 2980   2.420   0.572   3.798 -0.4218 -0.7242 -0.1951
  435SOL     OW 2981   1.582   0.881   2.879  0.2432 -0.1500 -0.5543
  435SOL    HW1 2982   1.569   0.844   2.791  0.7719  0.2680 -0.8124
  435SOL    HW2 2983   1.515   0.839   2.933 -2.1422  1.8914 -1.8139
  436SOL     OW 2984   7.208   5.874   2.508 -0.7328  0.1221  0.0889
  436SOL    HW1 2985   7.136   5.812   2.501 -0.4405 -0.3118  0.8766
  436SOL    HW2 2986   7.268   5.850   2.438 -1.6791  0.9389 -1.0431
  437SOL     OW 2987   8.513   5.018   8.507 -0.2163 -0.5966  0.5778
  437SOL    HW1 2988   8.499   4.946   8.445  0.4068  0.1450 -0.4584
  437SOL    HW2 2989   8.427   5.057   8.518 -0.2460 -0.3876 -0.2916
  438SOL     OW 2990   8.674   7.219   2.154  0.6161 -0.0973 -0.3100
  438SOL    HW1 2991   8.728   7.292   2.124  1.6132 -0.6937 -0.0332
  438SOL    HW2 2992   8.737   7.160   2.198 -0.2934 -0.7373  0.1455
  439SOL     OW 2993   4.179   2.140   8.218  0.5196  0.0323  0.1150
  439SOL    HW1 2994   4.207   2.203   8.151  0.1710 -0.8007 -0.8195
  439SOL    HW2 2995   4.146   2.065   8.168 -1.2204  0.0480  1.2075
  440SOL     OW 2996   2.380   2.395   6.731  0.7764  0.4834  0.4194
  440SOL    HW1 2997   2.366   2.377   6.824 -2.6363  0.0481 -0.1014
  440SOL    HW2 2998   2.350   2.486   6.720  1.4819  0.6419 -0.2117
  441SOL     OW 2999   4.027   0.473   7.142  0.1274 -0.1886  0.1277
  441SOL    HW1 3000   4.044   0.509   7.229  0.9690 -0.4548  0.0830
  441SOL    HW2 3001   3.932   0.470   7.135  0.0454 -1.1085  1.4306
  442SOL     OW 3002   7.397   8.767   3.504 -0.3922 -0.0060 -0.2680
  442SOL    HW1 3003   7.429   8.813   3.582 -1.6194  0.9252 -0.2993
  442SOL    HW2 3004   7.444   8.684   3.504  0.1364  0.2837  1.0807
  443SOL     OW 3005   8.735   1.556   7.294 -0.0178  0.1826 -0.1168
  443SOL    HW1 3006   8.759   1.535   7.203 -2.0190 -0.5125 -0.5025
  443SOL    HW2 3007   8.719   1.650   7.294  0.5475  0.2798 -0.3523
  444SOL     OW 3008   8.511   5.783   8.622  0.0095  0.2864  0.0290
  444SOL    HW1 3009   8.476   5.815   8.705 -0.8165 -0.5877  0.0288
  444SOL    HW2 3010   8.519   5.862   8.568 -1.7132  0.5584  0.1291
  445SOL     OW 3011   2.136   7.642   1.494 -0.1598 -0.3028  0.0983
  445SOL    HW1 3012   2.225   7.616   1.515 -0.3397 -0.6795  0.4131
  445SOL    HW2 3013   2.108   7.581   1.425 -1.1664 -2.0684  2.0171
  446SOL     OW 3014   6.652   3.555   0.050  0.6255 -0.2793 -0.0441
  446SOL    HW1 3015   6.738   3.537   0.088  0.3090 -0.5560  0.5336
  446SOL    HW2 3016   6.634   3.478  -0.004  0.3444 -0.6147  0.5319
  447SOL     OW 3017   8.361   8.115   4.786 -0.0433 -0.2911 -0.1511
  447SOL    HW1 3018   8.346   8.025   4.815  0.2761 -0.9788 -2.0389
  447SOL    HW2 3019   8.457   8.123   4.786 -0.0790  0.1474  0.2745
  448SOL     OW 3020   7.647   1.464   0.788 -0.0017 -0.1996  0.4927
  448SOL    HW1 3021   7.627   1.448   0.880  2.7476  2.3292  1.6445
  448SOL    HW2 3022   7.579   1.524   0.758 -0.4970 -0.4629  1.0870
  449SOL     OW 3023   6.785   2.504   7.763  0.0872 -0.2070 -0.4417
  449SOL    HW1 3024   6.840   2.583   7.759  0.2896 -0.4064 -1.4674
  449SOL    HW2 3025   6.702   2.536   7.798  0.3773  0.3493 -0.2464
  450SOL     OW 3026   5.993   7.505   3.966  0.0660  0.0440  0.1606
  450SOL    HW1 3027   5.907   7.542   3.985 -0.7587 -1.2749 -0.9159
  450SOL    HW2 3028   6.027   7.560   3.895 -0.2498  0.0506  0.0132
  451SOL     OW 3029   3.180   1.818   1.305  1.0290 -0.0756 -0.4843
  451SOL    HW1 3030   3.155   1.871   1.230 -0.2861 -1.9344 -1.3848
  451SOL    HW2 3031   3.265   1.781   1.281  0.7492 -0.4295 -0.9338
  452SOL     OW 3032   8.556   0.499   8.690 -0.7397  0.3273 -0.6291
  452SOL    HW1 3033   8.622   0.529   8.626  0.0922 -0.5319 -0.1863
  452SOL    HW2 3034   8.473   0.530   8.654 -0.3003 -0.2311 -2.1879
  453SOL     OW 3035   9.225   0.847   0.041 -0.2216  0.1058 -0.2732
  453SOL    HW1 3036   9.138   0.846   0.002 -0.8793 -0.0868  1.1526
  453SOL    HW2 3037   9.237   0.758   0.075  1.9854 -0.9511 -3.5081
  454SOL     OW 3038   8.013   7.994   9.223 -0.4288  0.4630 -1.0697
  454SOL    HW1 3039   8.020   8.054   9.148 -0.0804  2.3410  0.4237
  454SOL    HW2 3040   8.094   7.944   9.221  0.2619  1.5498 -1.0968
  455SOL     OW 3041   2.559   1.998   5.939  0.1202  0.0616  0.2326
  455SOL    HW1 3042   2.635   1.963   5.891  0.2050 -0.3432  0.6562
  455SOL    HW2 3043   2.583   2.088   5.961  0.2607  0.1056 -0.1021
  456SOL     OW 3044   3.321   8.408   2.540  0.1059  0.3454  0.1935
  456SOL    HW1 3045   3.278   8.327   2.568  0.4790  0.3403  0.7461
  456SOL    HW2 3046   3.333   8.458   2.621  2.9431 -0.4939  0.3110
  457SOL     OW 3047   1.297   5.594   1.360 -0.1643 -0.1430 -0.4159
  457SOL    HW1 3048   1.231   5.581   1.292 -2.8630 -0.7066  2.2181
  457SOL    HW2 3049   1.316   5.505   1.392 -0.0891  0.2425  0.6301
  458SOL     OW 3050   1.493   5.280   5.215 -0.1237  0.1134  0.0430
  458SOL    HW1 3051   1.581   5.244   5.212 -0.1240  0.1345 -0.2300
  458SOL    HW2 3052   1.447   5.238   5.142  0.1542  1.3912 -0.8916
  459SOL     OW 3053   8.426   2.328   0.622 -0.3000 -0.0711 -0.4435
  459SOL    HW1 3054   8.422   2.365   0.710 -1.2225  0.5022 -0.7082
  459SOL    HW2 3055   8.453   2.401   0.566  1.1955 -0.6692 -0.5147
  460SOL     OW 3056   5.595   6.865   3.645  0.0396  0.2123  0.2879
  460SOL    HW1 3057   5.514   6.907   3.615  0.7862  1.3402 -0.1659
  460SOL    HW2 3058   5.649   6.936   3.679  0.2698 -0.7242  1.9417
  461SOL     OW 3059   2.463   8.072   7.168 -0.4752  0.5260  0.6531
  461SOL    HW1 3060   2.526   8.142   7.151 -0.8528  0.4866 -1.0423
  461SOL    HW2 3061   2.399   8.111   7.228  0.4698  0.9576  1.3917
  462SOL     OW 3062   2.739   6.528   5.859  0.3168 -0.5150 -0.2536
  462SOL    HW1 3063   2.757   6.469   5.932 -0.0796 -1.7096 -1.1172
  462SOL    HW2 3064   2.826   6.561   5.834  0.4858 -0.3242  0.5641
  463SOL     OW 3065   4.892   6.670   8.567 -0.6363  0.2875 -0.7663
  463SOL    HW1 3066   4.961   6.640   8.507 -1.1245  0.1385 -1.2589
  463SOL    HW2 3067   4.900   6.766   8.567 -1.2771  0.3507 -1.8542
  464SOL     OW 3068   8.991   1.327   1.957 -0.0960  0.5437 -0.1421
  464SOL    HW1 3069   8.988   1.250   1.901 -1.6739  0.2803  0.2902
  464SOL    HW2 3070   8.925   1.310   2.024 -1.0265  2.6225 -0.5080
  465SOL     OW 3071   7.973   8.972   0.596 -0.0154  0.2992 -0.0595
  465SOL    HW1 3072   8.060   9.002   0.624  0.1161  1.1598 -1.3561
  465SOL    HW2 3073   7.983   8.950   0.504 -0.9451 -0.5377  0.0319
  466SOL     OW 3074   2.224   3.158   5.885 -0.0067 -0.0099 -0.3002
  466SOL    HW1 3075   2.195   3.072   5.853  0.4565  0.2294 -1.3864
  466SOL    HW2 3076   2.311   3.169   5.846 -0.5462  1.4613 -1.1026
  467SOL     OW 3077   6.193   3.844   8.552 -0.3698  0.4253  0.2493
  467SOL    HW1 3078   6.179   3.937   8.572  2.1354  0.8491  0.1499
  467SOL    HW2 3079   6.175   3.799   8.635 -0.0793  1.1582  0.7129
  468SOL     OW 3080   1.298   0.979   5.394 -0.4645 -0.0816  0.7967
  468SOL    HW1 3081   1.375   1.031   5.419  0.1933 -0.7025  0.0803
  468SOL    HW2 3082   1.228   1.043   5.383  0.3567  0.6636 -0.1556
  469SOL     OW 3083   0.114   6.456   1.270 -0.1465  0.1300  0.0820
  469SOL    HW1 3084   0.067   6.394   1.215  3.1557 -4.1676  1.7914
  469SOL    HW2 3085   0.187   6.486   1.216 -0.6970  1.1019 -0.1216
  470SOL     OW 3086   0.816   6.345   3.750 -0.0135  0.1396  0.0661
  470SOL    HW1 3087   0.730   6.326   3.714  0.2953  0.5567 -0.9189
  470SOL    HW2 3088   0.819   6.296   3.832 -1.0709 -0.1138 -0.0338
  471SOL     OW 3089   7.714   5.149   3.278 -0.6680  0.3021 -0.2915
  471SOL    HW1 3090   7.669   5.101   3.209 -0.1448 -0.6319  0.0085
  471SOL    HW2 3091   7.806   5.148   3.252 -0.1871 -1.6367  1.3081
  472SOL     OW 3092   8.753   5.836   0.627  0.3367 -0.1734  0.1745
  472SOL    HW1 3093   8.788   5.924   0.639 -1.6804  0.8542 -1.0852
  472SOL    HW2 3094   8.793   5.804   0.547  0.1743  0.0590  0.0022
  473SOL     OW 3095   3.263   5.238   5.531  0.0823 -0.3609  0.2970
  473SOL    HW1 3096   3.275   5.235   5.436 -0.5082 -0.1808  0.2180
  473SOL    HW2 3097   3.215   5.157   5.551 -0.4537 -0.0267  0.3504
  474SOL     OW 3098   2.839   9.244   5.872  0.0087  0.3991 -0.0225
  474SOL    HW1 3099   2.846   9.220   5.780 -0.6620 -1.8967  0.4735
  474SOL    HW2 3100   2.902   9.187   5.916 -1.1382 -0.0184  1.1455
  475SOL     OW 3101   1.493   4.913   5.466  0.0431 -0.2999 -0.4995
  475SOL    HW1 3102   1.516   4.999   5.502 -0.7603 -1.0202  1.7418
  475SOL    HW2 3103   1.553   4.852   5.509 -1.0305 -1.1907 -0.2612
  476SOL     OW 3104   7.955   6.478   4.534 -0.2458  0.1036 -0.2450
  476SOL    HW1 3105   7.961   6.410   4.467  2.9233 -1.4815  1.5262
  476SOL    HW2 3106   7.962   6.430   4.617  1.3051  2.5050  1.0540
  477SOL     OW 3107   3.501   2.060   8.072 -0.0348  0.1662  0.1239
  477SOL    HW1 3108   3.440   1.993   8.042  0.7686 -0.7226  0.4446
  477SOL    HW2 3109   3.448   2.117   8.128 -0.4212 -1.0209  0.9978
  478SOL     OW 3110   2.527   7.165   3.941 -0.5354  0.6216  0.0329
  478SOL    HW1 3111   2.507   7.235   4.004 -0.1825  0.7444  0.0111
  478SOL    HW2 3112   2.593   7.111   3.985 -2.3884 -0.9689  0.9304
  479SOL     OW 3113   3.707   3.589   3.474  0.2676  0.0476 -0.3446
  479SOL    HW1 3114   3.746   3.650   3.537  2.7958 -1.5748 -0.2842
  479SOL    HW2 3115   3.705   3.638   3.392  0.6623  0.7921  0.0785
  480SOL     OW 3116   5.454   7.580   1.063 -0.3194 -0.3287 -0.1751
  480SOL    HW1 3117   5.404   7.540   0.992 -0.0213 -1.3846  0.2014
  480SOL    HW2 3118   5.513   7.511   1.093  1.0094  0.7271 -0.2630
  481SOL     OW 3119   1.246   3.549   8.431  0.0619 -0.2110 -0.1180
  481SOL    HW1 3120   1.284   3.521   8.514  0.1321  0.2239 -0.0024
  481SOL    HW2 3121   1.212   3.469   8.392  0.6661 -0.5311  0.0001
  482SOL     OW 3122   4.494   2.273   8.042 -0.1583  0.3673 -0.2143
  482SOL    HW1 3123   4.404   2.306   8.035  0.0644  0.9955 -0.1117
  482SOL    HW2 3124   4.532   2.321   8.116  0.4036  0.4324 -0.5415
  483SOL     OW 3125   7.948   5.024   6.471  0.3422 -0.1059 -0.0589
  483SOL    HW1 3126   7.917   5.038   6.381 -0.6434 -1.2635  0.0891
  483SOL    HW2 3127   8.025   4.968   6.461 -1.8277 -3.2535 -0.0089
  484SOL     OW 3128   3.325   1.045   0.201  0.2350  0.8670  0.3692
  484SOL    HW1 3129   3.390   1.097   0.248 -0.2929  1.5157  0.3940
  484SOL    HW2 3130   3.241   1.078   0.233 -0.0998 -0.4117  0.8061
  485SOL     OW 3131   7.380   3.225   8.064 -0.0063 -0.5824 -0.0992
  485SOL    HW1 3132   7.331   3.306   8.079  1.3954  0.4948 -1.1904
  485SOL    HW2 3133   7.425   3.208   8.146  1.0158  0.6890 -0.3711
  486SOL     OW 3134   4.173   4.795   5.779 -0.4939 -0.2986 -0.4251
  486SOL    HW1 3135   4.249   4.820   5.726 -0.0268  0.2954  0.4994
  486SOL    HW2 3136   4.208   4.790   5.868 -1.1279 -1.8581 -0.2543
  487SOL     OW 3137   6.510   0.020   5.487 -0.0875 -0.1074 -0.0370
  487SOL    HW1 3138   6.429  -0.004   5.441  0.1936 -0.4619 -0.3576
  487SOL    HW2 3139   6.482   0.070   5.563 -0.5156  1.2344 -1.0714
  488SOL     OW 3140   4.201   0.859   4.450  0.2170  0.1787 -0.2724
  488SOL    HW1 3141   4.118   0.906   4.437 -0.7061 -1.8921 -2.3011
  488SOL    HW2 3142   4.188   0.811   4.532 -0.3872  0.3051 -0.2854
  489SOL     OW 3143   7.404   7.662   1.699 -0.4735 -1.0593  0.4159
  489SOL    HW1 3144   7.419   7.608   1.776 -0.5385 -1.2196  0.3177
  489SOL    HW2 3145   7.452   7.743   1.716 -0.2157 -1.2251  0.4789
  490SOL     OW 3146   5.932   2.444   1.666 -0.5491  0.3137 -0.4527
  490SOL    HW1 3147   5.856   2.479   1.714 -0.2903  0.9100 -0.4700
  490SOL    HW2 3148   5.993   2.517   1.663  0.5119 -0.5275  0.5778
  491SOL     OW 3149   7.998   2.445   3.147  0.7754  0.0281 -0.5023
  491SOL    HW1 3150   7.960   2.510   3.206 -1.5912 -0.9376 -0.9132
  491SOL    HW2 3151   7.929   2.427   3.083  2.7082 -0.1838 -2.5783
  492SOL     OW 3152   1.240   6.218   0.633  1.0269 -0.5709 -0.3467
  492SOL    HW1 3153   1.277   6.298   0.671 -1.4688  0.1505  0.6955
  492SOL    HW2 3154   1.251   6.151   0.701 -1.8830  0.3020  1.0828
  493SOL     OW 3155   4.673   6.620   2.220 -0.4740  0.5054 -0.1232
  493SOL    HW1 3156   4.705   6.684   2.156 -0.9556  0.5449 -0.3222
  493SOL    HW2 3157   4.598   6.579   2.178 -0.2388 -0.1101  0.0524
  494SOL     OW 3158   6.980   3.420   4.110  0.3783  0.2274  0.0913
  494SOL    HW1 3159   6.905   3.416   4.170  1.4326  0.4364  1.4329
  494SOL    HW2 3160   7.051   3.376   4.157  1.5610  1.4860 -0.4796
  495SOL     OW 3161   8.187   4.130   0.907  0.0497  0.3049 -0.0427
  495SOL    HW1 3162   8.258   4.189   0.933 -0.8833  1.7337 -0.6730
  495SOL    HW2 3163   8.123   4.187   0.864 -0.3716 -1.3405 -1.6469
  496SOL     OW 3164   8.123   9.019   5.232  0.4050  0.6486  0.9140
  496SOL    HW1 3165   8.136   9.082   5.303  0.7851 -1.6845  2.9739
  496SOL    HW2 3166   8.145   8.934   5.271 -1.1022 -0.9030 -1.4901
  497SOL     OW 3167   4.483   5.250   6.697 -0.7622  0.0880  0.0011
  497SOL    HW1 3168   4.479   5.300   6.615  0.4909 -0.7235 -0.5804
  497SOL    HW2 3169   4.466   5.160   6.670 -0.2636 -0.1904  0.6142
  498SOL     OW 3170   2.026   6.108   2.215  0.0205  0.1996 -0.1568
  498SOL    HW1 3171   1.955   6.162   2.249  0.6087 -0.8459  2.8174
  498SOL    HW2 3172   1.998   6.018   2.232  1.1946 -0.2987 -0.7645
  499SOL     OW 3173   7.190   1.524   4.392 -0.1857 -0.6641 -0.3483
  499SOL    HW1 3174   7.220   1.441   4.430 -1.5989 -0.3844  1.4847
  499SOL    HW2 3175   7.106   1.503   4.352  0.4466 -0.5543 -1.7581
  500SOL     OW 3176   3.553   9.047   1.349  0.1693 -0.0018  0.2507
  500SOL    HW1 3177   3.569   9.054   1.255  0.0324 -0.3090  0.2029
  500SOL    HW2 3178   3.541   9.137   1.378 -0.8556  0.0242 -0.2189
  501SOL     OW 3179   3.741   8.624   1.197 -0.3396 -0.0583 -0.4993
  501SOL    HW1 3180   3.803   8.696   1.214  0.4060 -1.0864  1.3411
  501SOL    HW2 3181   3.779   8.577   1.122  0.8722 -0.3891  0.3017
  502SOL     OW 3182   7.709   9.066   5.396  0.5297 -0.3481 -0.4817
  502SOL    HW1 3183   7.728   9.127   5.467  4.0712  0.6422 -2.1475
  502SOL    HW2 3184   7.772   8.995   5.409  2.0246  0.4047 -3.2250
  503SOL     OW 3185   0.720   0.829   3.330 -0.4064  0.0700 -0.0811
  503SOL    HW1 3186   0.673   0.748   3.350 -1.6738  0.4051 -1.5970
  503SOL    HW2 3187   0.664   0.899   3.363 -0.3221  0.4130 -0.6540
  504SOL     OW 3188   8.478   7.330   4.211  0.5293  0.4569  0.5985
  504SOL    HW1 3189   8.412   7.323   4.142  0.7974  3.4342 -0.0044
  504SOL    HW2 3190   8.428   7.324   4.292 -0.2579  0.8224  0.1514
  505SOL     OW 3191   1.466   2.234   3.643 -0.2934  0.6469 -0.3056
  505SOL    HW1 3192   1.474   2.328   3.653 -2.3905  0.7938  0.2145
  505SOL    HW2 3193   1.532   2.210   3.578 -2.0961  2.9486 -3.0496
  506SOL     OW 3194   6.110   5.729   5.184 -0.3253  0.9023  0.1359
  506SOL    HW1 3195   6.167   5.659   5.152 -2.5892 -0.1429 -1.7737
  506SOL    HW2 3196   6.122   5.728   5.279  0.1649 -1.6942  0.0873
  507SOL     OW 3197   0.701   6.686   7.363  0.0097  0.0356  0.1187
  507SOL    HW1 3198   0.683   6.663   7.454 -2.7061 -0.3226 -0.4852
  507SOL    HW2 3199   0.710   6.602   7.317 -1.5964  0.1875 -0.4968
  508SOL     OW 3200   0.924   7.548   0.087 -0.1970 -0.3047 -0.8995
  508SOL    HW1 3201   0.902   7.481   0.152 -0.7688  0.0341 -0.7380
  508SOL    HW2 3202   0.874   7.625   0.115 -1.9513 -0.6978 -2.8299
  509SOL     OW 3203   2.703   8.381   3.815  0.0624  0.1225 -0.0170
  509SOL    HW1 3204   2.641   8.393   3.887  0.7032 -0.4697  0.6437
  509SOL    HW2 3205   2.704   8.465   3.770  0.8185  1.0281  1.6090
  510SOL     OW 3206   6.556   1.185   2.954  0.6765  0.0159  0.3913
  510SOL    HW1 3207   6.583   1.093   2.954  0.9829  0.0710 -2.0673
  510SOL    HW2 3208   6.465   1.183   2.985  0.9052 -1.0253  1.0159
  511SOL     OW 3209   4.422   7.139   6.506  0.0640 -0.2660 -0.1297
  511SOL    HW1 3210   4.440   7.227   6.473 -1.2149 -0.3497 -1.0979
  511SOL    HW2 3211   4.499   7.088   6.481  0.7081  0.5218  0.2331
  512SOL     OW 3212   2.737   8.861   6.202 -0.0813 -0.0464 -0.9960
  512SOL    HW1 3213   2.729   8.950   6.169  0.9413  0.4903  0.1825
  512SOL    HW2 3214   2.801   8.820   6.144  1.4014  0.7705  0.0466
  513SOL     OW 3215   5.215   4.388   3.006 -0.2341 -0.6729  0.6373
  513SOL    HW1 3216   5.170   4.309   3.036  3.1137 -1.7681  3.0311
  513SOL    HW2 3217   5.306   4.361   2.994  0.6848  2.4769  0.0368
  514SOL     OW 3218   5.652   4.791   3.071  0.4228  0.0785  0.2027
  514SOL    HW1 3219   5.660   4.878   3.111  0.4353 -0.0230  0.4181
  514SOL    HW2 3220   5.569   4.757   3.103  0.2795  0.1288 -0.1112
  515SOL     OW 3221   4.188   9.206   4.750 -0.4389 -0.2604  0.7165
  515SOL    HW1 3222   4.116   9.265   4.775 -2.3370 -3.0680  2.1084
  515SOL    HW2 3223   4.177   9.194   4.656 -1.8496 -0.6980  0.9217
  516SOL     OW 3224   5.065   6.564   7.620  0.2218  0.5643 -0.1497
  516SOL    HW1 3225   5.151   6.600   7.602 -0.1370  1.2915 -0.4331
  516SOL    HW2 3226   5.021   6.560   7.535  0.1171 -0.1731 -0.0622
  517SOL     OW 3227   0.989   8.193   3.001  0.4206 -0.3724  0.0920
  517SOL    HW1 3228   1.029   8.275   2.974 -2.0777  1.0666  0.6785
  517SOL    HW2 3229   1.041   8.164   3.076  1.8102  0.2367 -0.6233
  518SOL     OW 3230   3.100   4.769   7.997  0.1305  0.0142  0.2848
  518SOL    HW1 3231   3.140   4.694   7.953  0.3631 -0.0781  0.6567
  518SOL    HW2 3232   3.138   4.845   7.953  2.8322 -0.0191  2.4781
  519SOL     OW 3233   8.068   3.120   5.749 -0.3816  0.8149  0.3294
  519SOL    HW1 3234   8.020   3.037   5.746 -1.9245  1.7229 -0.7731
  519SOL    HW2 3235   8.006   3.182   5.786  0.2647  1.8038 -0.2425
  520SOL     OW 3236   7.552   7.323   1.398  0.9741 -0.2949  0.3464
  520SOL    HW1 3237   7.576   7.407   1.359 -0.4788 -0.3174 -0.6251
  520SOL    HW2 3238   7.630   7.296   1.445  1.3506  1.7638  0.9616
  521SOL     OW 3239   7.949   3.214   4.194  0.1240  0.4210 -0.1797
  521SOL    HW1 3240   7.956   3.261   4.111 -0.3915  1.8504  0.5625
  521SOL    HW2 3241   7.863   3.173   4.192 -0.2117  1.1247 -0.0011
  522SOL     OW 3242   6.947   0.383   3.591  0.4221 -0.1097  0.6092
  522SOL    HW1 3243   6.921   0.461   3.639 -0.8993 -1.3517  1.9788
  522SOL    HW2 3244   7.041   0.392   3.579  0.2452  1.8048  0.5115
  523SOL     OW 3245   2.983   3.012   7.202  0.0536 -0.5881 -0.3978
  523SOL    HW1 3246   3.022   2.941   7.253 -0.2008  2.0171  3.6539
  523SOL    HW2 3247   2.889   2.997   7.209 -0.0259  0.5213  1.1077
  524SOL     OW 3248   4.937   8.693   0.376 -0.4941  0.1236  0.7785
  524SOL    HW1 3249   4.864   8.641   0.340 -1.3501  0.9354  1.3149
  524SOL    HW2 3250   4.955   8.653   0.461 -0.6380  0.2241  0.8564
  525SOL     OW 3251   3.131   3.974   1.639  0.1772  0.7569 -0.6816
  525SOL    HW1 3252   3.202   3.964   1.575 -0.7103 -0.3454 -1.4987
  525SOL    HW2 3253   3.145   4.062   1.676  0.9205  1.2433 -2.0963
  526SOL     OW 3254   1.173   4.103   9.160  0.5092  0.5823  0.0498
  526SOL    HW1 3255   1.113   4.162   9.115  1.2513  0.6058 -0.9264
  526SOL    HW2 3256   1.243   4.160   9.192  2.0393  0.0920 -2.2404
  527SOL     OW 3257   1.770   3.215   4.446  0.4437  0.4564 -0.1015
  527SOL    HW1 3258   1.778   3.121   4.465 -0.2162  0.4691  0.2843
  527SOL    HW2 3259   1.708   3.247   4.513  1.3624  1.3398  0.3356
  528SOL     OW 3260   6.260   3.719   4.702 -0.1808 -0.3779  0.1587
  528SOL    HW1 3261   6.251   3.627   4.726 -0.8051 -0.2996  0.2390
  528SOL    HW2 3262   6.314   3.719   4.623  0.6761 -0.7374  0.7354
  529SOL     OW 3263   7.051   3.191   6.149 -0.1429 -0.1790 -0.5686
  529SOL    HW1 3264   7.037   3.281   6.122 -1.9753 -0.7618 -1.6659
  529SOL    HW2 3265   7.022   3.188   6.240  0.2327  0.4190 -0.4340
  530SOL     OW 3266   6.444   7.462   1.946 -0.0080 -0.3402 -0.0414
  530SOL    HW1 3267   6.495   7.452   2.026 -2.1136  0.7245  1.4849
  530SOL    HW2 3268   6.419   7.554   1.944 -0.7730 -0.5499 -1.4403
  531SOL     OW 3269   3.578   1.403   8.880 -0.5953  0.5539  0.5154
  531SOL    HW1 3270   3.632   1.403   8.801 -1.4258 -0.5942 -0.0569
  531SOL    HW2 3271   3.490   1.384   8.850 -1.5576  3.5617  1.3252
  532SOL     OW 3272   9.043   6.857   4.926  0.1957 -0.6032 -0.4297
  532SOL    HW1 3273   8.994   6.907   4.860 -0.7865 -2.2615 -0.9972
  532SOL    HW2 3274   9.050   6.769   4.888  0.1190 -1.4234  1.4185
  533SOL     OW 3275   8.454   7.092   3.671 -0.3073  0.2978 -0.1571
  533SOL    HW1 3276   8.477   7.107   3.580  0.0101  0.1268 -0.1027
  533SOL    HW2 3277   8.367   7.133   3.680  0.6688  2.3931  0.0655
  534SOL     OW 3278   5.631   4.243   8.741  0.3263  0.2477 -0.4332
  534SOL    HW1 3279   5.682   4.234   8.822 -0.1896 -3.2561 -0.4046
  534SOL    HW2 3280   5.546   4.203   8.762 -0.6596  1.4698 -1.9996
  535SOL     OW 3281   4.096   2.578   8.701  0.3223  0.7909 -0.0235
  535SOL    HW1 3282   4.150   2.657   8.701  0.8021  0.4963  2.5966
  535SOL    HW2 3283   4.156   2.507   8.723 -0.8340  0.2738  1.6202
  536SOL     OW 3284   8.428   4.963   5.001 -0.6482 -0.0839 -0.3429
  536SOL    HW1 3285   8.373   4.913   4.940 -0.5081 -0.1666 -0.4044
  536SOL    HW2 3286   8.390   4.946   5.087  0.4698 -1.7638 -0.1513
  537SOL     OW 3287   6.012   3.365   0.050  0.3495  0.5243 -0.1713
  537SOL    HW1 3288   5.997   3.351  -0.044 -0.2784  1.1633 -0.1700
  537SOL    HW2 3289   6.107   3.362   0.059  0.4627  1.3750 -0.9784
  538SOL     OW 3290   3.148   1.981   3.372  0.5242  0.5805  0.3768
  538SOL    HW1 3291   3.159   2.061   3.322  1.9134  0.8964  1.1488
  538SOL    HW2 3292   3.187   2.000   3.458  0.5224 -0.7824  0.6977
  539SOL     OW 3293   6.305   2.925   2.168 -0.5663 -0.0103 -0.5467
  539SOL    HW1 3294   6.217   2.886   2.164 -0.6621  0.1367  0.0698
  539SOL    HW2 3295   6.328   2.920   2.260  0.3246 -0.5992 -0.7990
  540SOL     OW 3296   8.303   3.083   5.891  0.0088  0.2782 -0.3306
  540SOL    HW1 3297   8.233   3.106   5.830 -0.0874 -1.7141 -1.0061
  540SOL    HW2 3298   8.282   3.132   5.971 -3.0636 -1.5388  0.0377
  541SOL     OW 3299   5.230   7.297   7.223 -0.3134 -0.5359 -0.3518
  541SOL    HW1 3300   5.236   7.201   7.223 -0.4779 -0.5472  0.9152
  541SOL    HW2 3301   5.321   7.326   7.228 -0.4117 -0.6607  3.3639
  542SOL     OW 3302   8.857   5.189   5.744 -0.5605 -0.1838  0.6260
  542SOL    HW1 3303   8.879   5.169   5.653  0.4653 -1.2212  1.0787
  542SOL    HW2 3304   8.910   5.266   5.764 -0.7844  0.0442  0.3360
  543SOL     OW 3305   5.926   4.049   1.273  0.2617  0.3205  0.0343
  543SOL    HW1 3306   5.966   4.012   1.352 -0.6763  0.0609  0.3986
  543SOL    HW2 3307   5.888   4.132   1.302 -0.3565  0.0760 -0.0716
  544SOL     OW 3308   3.483   1.064   2.211  0.3539  0.3839 -0.1871
  544SOL    HW1 3309   3.426   1.021   2.149  0.2766  0.3375 -0.0835
  544SOL    HW2 3310   3.542   1.117   2.157  0.5823 -0.0110 -0.3231
  545SOL     OW 3311   2.042   9.232   5.537  0.4275  0.1800 -0.0131
  545SOL    HW1 3312   2.064   9.258   5.627 -0.9131  0.1872  0.3235
  545SOL    HW2 3313   1.998   9.309   5.501 -2.3971 -1.0959  0.5570
  546SOL     OW 3314   8.229   1.221   1.001 -0.2900  0.8055 -0.1433
  546SOL    HW1 3315   8.309   1.220   0.948 -0.5989  1.2458 -0.6208
  546SOL    HW2 3316   8.256   1.262   1.084 -0.4204  2.6282 -0.9682
  547SOL     OW 3317   4.325   4.521   5.781 -0.0517  0.5028 -0.3975
  547SOL    HW1 3318   4.289   4.578   5.713 -3.2378 -0.3568  0.5290
  547SOL    HW2 3319   4.285   4.436   5.765  1.0597 -0.3238  1.0814
  548SOL     OW 3320   2.634   0.108   5.063  0.1199 -0.0771 -0.0526
  548SOL    HW1 3321   2.636   0.185   5.006  0.1411  0.1577  0.2618
  548SOL    HW2 3322   2.723   0.102   5.099  0.0426 -0.0858  0.1370
  549SOL     OW 3323   2.235   1.826   7.560  0.8286 -0.0155 -0.0048
  549SOL    HW1 3324   2.181   1.900   7.532 -0.3100 -1.7127 -2.4918
  549SOL    HW2 3325   2.322   1.863   7.574  0.3493  1.7415 -1.5306
  550SOL     OW 3326   6.731   1.916   4.632 -0.4008  0.1814  0.1406
  550SOL    HW1 3327   6.799   1.981   4.611 -0.5825  0.4614  0.4120
  550SOL    HW2 3328   6.710   1.875   4.548 -0.8212  0.9962 -0.1563
  551SOL     OW 3329   6.874   7.141   5.334 -0.3325  0.4179  1.2245
  551SOL    HW1 3330   6.849   7.081   5.404 -1.0841  1.1040  1.5464
  551SOL    HW2 3331   6.888   7.225   5.377  1.0721  0.4144  0.8311
  552SOL     OW 3332   5.343   1.667   7.048 -0.8166 -0.3304 -0.7443
  552SOL    HW1 3333   5.426   1.711   7.028 -0.6857  0.1192  0.7429
  552SOL    HW2 3334   5.277   1.735   7.037 -0.7924 -0.2055 -0.1364
  553SOL     OW 3335   1.595   3.736   6.018 -0.4466  0.0197  1.0834
  553SOL    HW1 3336   1.653   3.794   5.968 -0.5018  0.1168  1.1332
  553SOL    HW2 3337   1.517   3.788   6.034 -1.2549 -0.6663 -0.4566
  554SOL     OW 3338   6.038   3.355   7.918 -0.2227  0.6334 -0.2458
  554SOL    HW1 3339   5.946   3.332   7.902 -0.1239  0.2682 -0.2984
  554SOL    HW2 3340   6.087   3.304   7.853 -0.0539  1.5870 -0.8704
  555SOL     OW 3341   7.737   3.957   3.700  0.1465 -0.7644  0.4881
  555SOL    HW1 3342   7.748   3.862   3.704  1.2142 -0.6355  0.8350
  555SOL    HW2 3343   7.676   3.978   3.771 -0.7342 -1.2752 -0.1078
  556SOL     OW 3344   7.597   2.583   6.875  0.0576 -0.1462  0.2985
  556SOL    HW1 3345   7.588   2.492   6.902 -0.7249  0.8612  3.6394
  556SOL    HW2 3346   7.507   2.615   6.867  0.3288  0.4373 -0.4819
  557SOL     OW 3347   4.359   5.622   6.683  0.0099  0.0069 -0.4247
  557SOL    HW1 3348   4.279   5.577   6.711  0.0528 -1.0479 -1.9697
  557SOL    HW2 3349   4.429   5.561   6.704  0.3571  0.6214  0.2310
  558SOL     OW 3350   5.923   5.700   0.655  0.7808 -0.1567  0.1503
  558SOL    HW1 3351   5.967   5.688   0.739 -1.2387  1.9869  1.5701
  558SOL    HW2 3352   5.836   5.732   0.677  0.3207  0.8142 -2.7593
  559SOL     OW 3353   8.343   8.645   8.779  0.1003  0.0915 -0.7162
  559SOL    HW1 3354   8.275   8.602   8.831  1.4778 -0.4079  0.6852
  559SOL    HW2 3355   8.295   8.710   8.728 -1.4036 -0.0103  0.5140
  560SOL     OW 3356   6.651   8.992   1.923 -0.0364 -0.1789  0.1111
  560SOL    HW1 3357   6.640   8.948   2.007 -1.9865  0.8894  0.4541
  560SOL    HW2 3358   6.574   8.966   1.872  0.0451  0.8612 -0.5607
  561SOL     OW 3359   9.007   8.979   4.477 -0.2322 -0.4151 -0.0711
  561SOL    HW1 3360   8.987   9.064   4.515  0.4660  0.0557 -0.7607
  561SOL    HW2 3361   8.926   8.954   4.431  0.3792  1.0268 -2.0028
  562SOL     OW 3362   5.699   1.554   7.225  0.5216  0.3551  0.1521
  562SOL    HW1 3363   5.616   1.593   7.253 -0.0535 -0.4892 -0.3669
  562SOL    HW2 3364   5.715   1.591   7.139  0.4211  0.1093  0.0291
  563SOL     OW 3365   5.326   7.845   2.749  0.8269  0.0120 -0.4459
  563SOL    HW1 3366   5.289   7.895   2.676 -3.2036  0.2234  1.6012
  563SOL    HW2 3367   5.370   7.910   2.803 -1.2465  0.8161  0.3078
  564SOL     OW 3368   1.640   2.255   1.826  0.5121 -0.1882  0.5467
  564SOL    HW1 3369   1.545   2.253   1.832  0.6006 -0.3289  2.0448
  564SOL    HW2 3370   1.669   2.310   1.899  1.6069 -0.6747  0.5003
  565SOL     OW 3371   2.645   6.747   6.706 -0.3498  0.0019 -0.2192
  565SOL    HW1 3372   2.667   6.806   6.633  0.3948 -1.8203 -1.5226
  565SOL    HW2 3373   2.601   6.673   6.664 -0.9926 -0.5339  1.3571
  566SOL     OW 3374   4.062   2.748   4.183  0.1991 -0.0862 -0.1290
  566SOL    HW1 3375   4.024   2.663   4.206  0.8622  0.2477  2.4472
  566SOL    HW2 3376   4.150   2.728   4.153  0.6679 -0.2930  1.3110
  567SOL     OW 3377   0.241   3.880   6.258 -0.3900  0.6055  0.4660
  567SOL    HW1 3378   0.238   3.947   6.189  1.2764 -1.0773 -1.2995
  567SOL    HW2 3379   0.164   3.826   6.242 -0.5633  0.8198  0.5687
  568SOL     OW 3380   6.360   1.451   0.771  0.4327 -0.9631 -0.2600
  568SOL    HW1 3381   6.277   1.409   0.794 -0.7648  1.1232 -0.6942
  568SOL    HW2 3382   6.336   1.529   0.721  2.6342 -0.1244 -0.1065
  569SOL     OW 3383   7.341   6.987   4.223  0.2492 -0.3888  0.7118
  569SOL    HW1 3384   7.255   6.948   4.206 -0.6511  1.9776 -0.3762
  569SOL    HW2 3385   7.322   7.078   4.245  2.5558  0.3916 -0.4273
  570SOL     OW 3386   7.618   3.567   6.124 -0.0755  0.4713  0.0673
  570SOL    HW1 3387   7.538   3.611   6.152 -0.2986  1.7714 -2.4925
  570SOL    HW2 3388   7.597   3.530   6.038  1.3730 -1.1874  0.3839
  571SOL     OW 3389   9.075   7.353   2.278 -0.1809  0.1885  0.5655
  571SOL    HW1 3390   9.113   7.363   2.365  0.2081 -0.3608  0.4623
  571SOL    HW2 3391   9.065   7.443   2.246 -1.0429  0.4219  1.4799
  572SOL     OW 3392   5.296   7.840   6.342  0.2136 -0.6464  0.6255
  572SOL    HW1 3393   5.272   7.916   6.395  3.5525 -0.8938  2.6519
  572SOL    HW2 3394   5.311   7.875   6.254  0.9518  0.9125  1.3563
  573SOL     OW 3395   7.297   4.141   4.910 -0.1301  0.2865  0.3411
  573SOL    HW1 3396   7.208   4.123   4.881 -1.0743  2.3913  1.7570
  573SOL    HW2 3397   7.317   4.228   4.875  2.1311 -0.9670 -1.6030
  574SOL     OW 3398   6.467   0.930   1.928 -0.2709  0.3483 -0.4679
  574SOL    HW1 3399   6.385   0.883   1.942 -0.2794  0.3859 -0.3926
  574SOL    HW2 3400   6.526   0.865   1.891  0.3210 -0.2425  1.4450
  575SOL     OW 3401   8.360   4.332   5.510  0.4448 -0.2680  0.0778
  575SOL    HW1 3402   8.358   4.354   5.417  0.3840 -1.6385 -0.2580
  575SOL    HW2 3403   8.368   4.416   5.554 -0.6142  0.4841 -1.1220
  576SOL     OW 3404   6.096   4.638   9.289 -0.2685 -0.2707  0.2273
  576SOL    HW1 3405   6.064   4.654   9.201  1.0739 -0.3250 -0.2776
  576SOL    HW2 3406   6.026   4.670   9.346 -0.8096  0.4734 -0.8404
  577SOL     OW 3407   2.424   8.583   8.426  0.4278  0.0360  0.1200
  577SOL    HW1 3408   2.417   8.641   8.501  1.3641 -0.4181  0.5603
  577SOL    HW2 3409   2.375   8.505   8.452  0.6077 -0.0518  0.2014
  578SOL     OW 3410   2.747   8.931   8.904  0.0164 -0.7232  0.1187
  578SOL    HW1 3411   2.834   8.967   8.890 -0.5061  1.1631  1.6449
  578SOL    HW2 3412   2.690   8.984   8.849 -0.1456 -2.2672 -1.2597
  579SOL     OW 3413   8.241   2.740   1.236 -0.5265 -0.1099  0.3263
  579SOL    HW1 3414   8.255   2.663   1.290  0.0053 -0.4803 -0.3298
  579SOL    HW2 3415   8.324   2.753   1.190 -1.8612 -1.6499 -2.7201
  580SOL     OW 3416   5.969   1.849   8.839  0.2856  0.0539 -0.5388
  580SOL    HW1 3417   5.993   1.918   8.901 -0.7182 -0.9306  0.9845
  580SOL    HW2 3418   5.908   1.891   8.779  1.3550  1.0488 -0.9551
  581SOL     OW 3419   7.071   0.544   0.020 -0.4851  0.3483 -0.0788
  581SOL    HW1 3420   7.008   0.607  -0.015 -1.1144  0.4448  1.1921
  581SOL    HW2 3421   7.055   0.464  -0.029 -1.0667  0.5918 -0.2874
  582SOL     OW 3422   2.305   0.814   8.380  0.4175 -0.7296  0.2679
  582SOL    HW1 3423   2.330   0.889   8.434  0.5673  0.9096 -1.9888
  582SOL    HW2 3424   2.271   0.750   8.442  1.7506  0.5691  2.4291
  583SOL     OW 3425   7.649   1.437   6.027 -0.5433  0.3412  0.4737
  583SOL    HW1 3426   7.703   1.383   6.084 -1.0769 -0.1083  0.5562
  583SOL    HW2 3427   7.595   1.375   5.978  1.2003  0.6344 -1.8603
  584SOL     OW 3428   8.860   0.342   4.874  0.6544 -0.0770  0.1791
  584SOL    HW1 3429   8.791   0.293   4.830 -0.6426  2.5441 -0.7780
  584SOL    HW2 3430   8.933   0.343   4.812 -0.1604  1.1675 -0.7953
  585SOL     OW 3431   8.091   8.533   3.286 -0.3824 -0.7262  0.2976
  585SOL    HW1 3432   8.153   8.565   3.352 -1.9605  1.4512  0.7777
  585SOL    HW2 3433   8.058   8.451   3.323  2.8158 -2.3788 -0.3736
  586SOL     OW 3434   3.393   5.964   5.464 -0.3356 -0.0338  0.1123
  586SOL    HW1 3435   3.358   5.877   5.480 -0.2033 -0.3805 -1.3575
  586SOL    HW2 3436   3.484   5.960   5.494  0.4262 -1.1863 -2.1942
  587SOL     OW 3437   3.038   3.035   8.225  0.1590  0.1782 -0.2581
  587SOL    HW1 3438   3.110   2.978   8.250  2.5658  2.8384 -0.9031
  587SOL    HW2 3439   3.042   3.108   8.288 -1.6125  0.6263 -0.6355
  588SOL     OW 3440   3.305   6.274   8.210 -0.5392 -0.3354  0.2738
  588SOL    HW1 3441   3.315   6.361   8.172 -2.4272 -0.0910  0.3131
  588SOL    HW2 3442   3.352   6.279   8.293 -1.6312  1.0128  0.8231
  589SOL     OW 3443   1.009   1.132   1.363  0.9023 -0.8673 -0.0318
  589SOL    HW1 3444   1.059   1.123   1.444  2.1273 -0.7434 -0.7527
  589SOL    HW2 3445   0.921   1.101   1.385  0.5913  1.3201  1.9305
  590SOL     OW 3446   5.031   3.520   4.987  0.1362  0.0070  0.1541
  590SOL    HW1 3447   5.001   3.525   5.077  1.0898  1.4003  0.4022
  590SOL    HW2 3448   5.004   3.433   4.958 -2.0068  0.3323  1.1057
  591SOL     OW 3449   1.934   4.870   8.872  0.0421  0.5055 -0.3311
  591SOL    HW1 3450   1.937   4.959   8.838 -1.3798 -0.1777 -2.3473
  591SOL    HW2 3451   1.954   4.814   8.797 -0.3268 -0.9292  0.6028
  592SOL     OW 3452   3.966   8.847   6.280  0.2419 -0.0489 -0.4034
  592SOL    HW1 3453   3.875   8.852   6.251 -0.3212 -2.0809  0.9288
  592SOL    HW2 3454   4.007   8.787   6.218  1.2106  2.3619 -2.1974
  593SOL     OW 3455   5.125   0.729   7.834 -0.1299  0.3346  0.1119
  593SOL    HW1 3456   5.054   0.693   7.780 -0.5968 -0.1951  1.0758
  593SOL    HW2 3457   5.091   0.727   7.923  1.8105 -1.7372  0.8483
  594SOL     OW 3458   6.267   1.243   6.894  0.0522 -0.4336  0.0836
  594SOL    HW1 3459   6.253   1.186   6.971  1.0737  0.8267  1.2240
  594SOL    HW2 3460   6.183   1.241   6.848 -1.0287 -0.1261  1.9737
  595SOL     OW 3461   5.595   2.501   9.256  0.0794 -0.3318  1.0389
  595SOL    HW1 3462   5.577   2.445   9.332 -1.4582 -1.4276 -0.0882
  595SOL    HW2 3463   5.675   2.548   9.279  1.4492 -3.0241  2.0209
  596SOL     OW 3464   6.298   9.086   4.038  0.0005 -0.1406 -0.2750
  596SOL    HW1 3465   6.215   9.048   4.067  0.1389 -0.9193 -0.8756
  596SOL    HW2 3466   6.365   9.031   4.078  0.2307  0.4871  0.2099
  597SOL     OW 3467   0.936   2.005   1.262  0.0369  0.0810  0.8055
  597SOL    HW1 3468   0.860   1.995   1.205  0.6836  0.2541 -0.0942
  597SOL    HW2 3469   0.941   1.923   1.311  0.6109 -0.8276 -0.7656
  598SOL     OW 3470   2.976   4.211   4.485 -0.0208 -0.0167  0.0557
  598SOL    HW1 3471   2.910   4.195   4.418  0.8405  0.6405 -0.9605
  598SOL    HW2 3472   3.059   4.187   4.444  0.4966  0.1722  0.9685
  599SOL     OW 3473   8.012   3.833   9.204  0.0682 -0.1983  0.2154
  599SOL    HW1 3474   8.072   3.900   9.235 -2.2414  1.8460  0.4138
  599SOL    HW2 3475   7.957   3.811   9.280 -1.5126  0.3057 -0.7447
  600SOL     OW 3476   2.464   1.474   6.136 -0.3532  0.3701  0.2233
  600SOL    HW1 3477   2.449   1.386   6.171 -0.7147  0.7493  1.0332
  600SOL    HW2 3478   2.381   1.499   6.097  0.1327 -0.1701 -1.2130
  601SOL     OW 3479   4.163   1.303   0.702 -0.1752  0.0056  0.2229
  601SOL    HW1 3480   4.125   1.383   0.668  0.3257  1.3199  2.6078
  601SOL    HW2 3481   4.179   1.322   0.795  1.6395 -2.2141  0.4074
  602SOL     OW 3482   0.449   3.189   9.128  0.1214 -0.1868 -0.2822
  602SOL    HW1 3483   0.542   3.172   9.145 -0.4931 -0.9291  2.6041
  602SOL    HW2 3484   0.422   3.248   9.198 -1.8940 -1.0722 -0.2740
  603SOL     OW 3485   7.510   1.561   8.312 -0.1694  0.2044  0.4321
  603SOL    HW1 3486   7.554   1.476   8.307 -0.8514 -0.0978 -0.5958
  603SOL    HW2 3487   7.427   1.542   8.357 -0.2807  0.3369  0.2827
  604SOL     OW 3488   4.791   3.004   1.462 -0.7011  0.1654  0.1527
  604SOL    HW1 3489   4.819   3.095   1.453 -0.6033  0.2603  1.3165
  604SOL    HW2 3490   4.813   2.964   1.378  1.8313  0.5365  0.6053
  605SOL     OW 3491   6.782   0.622   9.228 -1.0871  0.4749  0.4306
  605SOL    HW1 3492   6.808   0.698   9.176  0.3836 -0.2324  0.1205
  605SOL    HW2 3493   6.733   0.567   9.167  1.9877 -1.1135 -0.7098
  606SOL     OW 3494   9.158   2.893   4.855  0.0921 -0.7066  0.7028
  606SOL    HW1 3495   9.248   2.926   4.862 -0.0092 -0.3485  0.3059
  606SOL    HW2 3496   9.168   2.798   4.855  0.3795 -0.6899  1.9800
  607SOL     OW 3497   4.896   1.567   2.581  0.2188 -0.0462 -0.1004
  607SOL    HW1 3498   4.937   1.516   2.511 -0.1718 -0.6873  0.1419
  607SOL    HW2 3499   4.863   1.646   2.537 -0.2242 -0.5523 -0.6686
  608SOL     OW 3500   6.812   0.550   6.204 -0.0122 -0.3338 -0.0643
  608SOL    HW1 3501   6.868   0.626   6.190 -0.0134 -0.1741  0.7893
  608SOL    HW2 3502   6.773   0.534   6.118 -0.8750  1.3147 -0.0097
  609SOL     OW 3503   8.269   0.499   0.672  0.4614  0.4051 -0.4527
  609SOL    HW1 3504   8.327   0.480   0.598 -0.4559 -0.5640 -0.9295
  609SOL    HW2 3505   8.182   0.473   0.642  0.3261 -1.5980  1.5732
  610SOL     OW 3506   4.446   0.173   7.615  0.0446 -0.0272  0.0346
  610SOL    HW1 3507   4.498   0.093   7.626  0.3634  0.1726 -0.0299
  610SOL    HW2 3508   4.389   0.153   7.541 -0.6352 -0.5955  0.7018
  611SOL     OW 3509   0.908   7.237   4.911 -0.4151 -0.0234  0.3430
  611SOL    HW1 3510   0.841   7.195   4.857  0.1718 -0.8825  0.2646
  611SOL    HW2 3511   0.861   7.272   4.986 -0.9688 -0.4884  0.2118
  612SOL     OW 3512   8.254   5.455   8.283  0.1211 -0.2027 -0.0433
  612SOL    HW1 3513   8.224   5.464   8.374 -1.3926 -1.4771 -0.4037
  612SOL    HW2 3514   8.235   5.540   8.243 -2.0502 -0.6207  0.0390
  613SOL     OW 3515   1.182   6.741   1.239  0.5010 -0.2529 -0.2646
  613SOL    HW1 3516   1.267   6.783   1.223  0.8901 -0.7270  0.5205
  613SOL    HW2 3517   1.168   6.752   1.333  0.5711 -1.7941 -0.0592
  614SOL     OW 3518   0.724   6.436   7.260  0.1802 -0.0312 -0.2506
  614SOL    HW1 3519   0.697   6.465   7.173 -3.0784  0.0422  0.7161
  614SOL    HW2 3520   0.754   6.346   7.246 -2.3136 -0.7736 -1.1772
  615SOL     OW 3521   2.654   1.064   8.159 -0.2570 -0.6958  0.0845
  615SOL    HW1 3522   2.638   1.086   8.067  3.0631 -2.0661 -0.9012
  615SOL    HW2 3523   2.631   0.971   8.165 -0.6427 -0.5613  0.7140
  616SOL     OW 3524   8.000   1.579   2.225 -0.4181  0.0352 -0.0384
  616SOL    HW1 3525   7.964   1.609   2.142  0.9377  0.3887 -0.5037
  616SOL    HW2 3526   8.010   1.484   2.214 -0.0396  0.1130 -0.3515
  617SOL     OW 3527   3.077   7.696   9.107 -0.2457  0.1065 -0.1643
  617SOL    HW1 3528   3.042   7.784   9.117 -0.8489 -0.0445 -0.8591
  617SOL    HW2 3529   3.053   7.651   9.188 -2.0767 -0.1270 -0.8080
  618SOL     OW 3530   3.831   3.564   5.724 -0.4780 -0.1576 -0.3149
  618SOL    HW1 3531   3.876   3.555   5.808  1.8306 -0.6664 -1.5836
  618SOL    HW2 3532   3.764   3.495   5.725  0.5369 -1.1480  0.4715
  619SOL     OW 3533   3.779   8.119   4.946 -0.2063 -0.2650 -0.3424
  619SOL    HW1 3534   3.843   8.071   4.892  0.0544  1.3171 -1.4735
  619SOL    HW2 3535   3.790   8.210   4.920 -1.1729  0.3324  1.3002
  620SOL     OW 3536   7.470   3.539   3.590 -0.3442 -0.0561  0.0397
  620SOL    HW1 3537   7.465   3.472   3.658 -2.5721  0.2854  0.2466
  620SOL    HW2 3538   7.416   3.505   3.519 -3.0563  2.3176  0.8829
  621SOL     OW 3539   2.717   5.187   7.190  0.3364 -0.0802  0.1777
  621SOL    HW1 3540   2.768   5.127   7.244  0.9008 -0.3087 -0.6074
  621SOL    HW2 3541   2.754   5.178   7.102 -0.6371  0.2189 -0.2706
  622SOL     OW 3542   8.450   1.963   1.694 -0.0135  0.0770 -0.4339
  622SOL    HW1 3543   8.413   2.016   1.624 -1.1855 -1.8574 -1.3260
  622SOL    HW2 3544   8.526   1.921   1.655 -0.2743 -0.4746 -0.3612
  623SOL     OW 3545   4.737   0.466   8.397 -0.3898  0.0891  0.6984
  623SOL    HW1 3546   4.703   0.459   8.308 -1.5843  0.7526  1.1001
  623SOL    HW2 3547   4.785   0.384   8.410 -0.6163 -0.2302 -0.3734
  624SOL     OW 3548   6.164   4.830   3.108 -0.2246 -0.3715 -0.4381
  624SOL    HW1 3549   6.157   4.809   3.015 -1.9561  0.5922 -0.5541
  624SOL    HW2 3550   6.098   4.774   3.150  1.5130 -1.8346  0.4112
  625SOL     OW 3551   0.167   0.375   6.887  0.3548  0.5666 -0.1821
  625SOL    HW1 3552   0.183   0.320   6.810  0.1655 -1.1204  0.9733
  625SOL    HW2 3553   0.236   0.351   6.948 -1.1380 -0.0893  1.2589
  626SOL     OW 3554   0.184   8.823   2.492 -0.1109 -0.9229 -0.9563
  626SOL    HW1 3555   0.205   8.730   2.482 -0.7529 -1.4116  1.8227
  626SOL    HW2 3556   0.261   8.860   2.537  0.1095 -0.1282 -1.9847
  627SOL     OW 3557   3.131   2.968   3.074  0.0869  0.7670  0.2168
  627SOL    HW1 3558   3.051   2.917   3.058 -0.8777  1.5329  2.3951
  627SOL    HW2 3559   3.151   2.954   3.166  1.1099  2.4954  0.2909
  628SOL     OW 3560   5.349   1.227   1.274 -0.3261 -0.0740  0.2861
  628SOL    HW1 3561   5.400   1.258   1.348  1.5075 -0.0106 -0.9571
  628SOL    HW2 3562   5.259   1.250   1.295  0.3125  1.0076  1.9382
  629SOL     OW 3563   8.506   4.363   6.347  0.1147 -0.2688  0.3880
  629SOL    HW1 3564   8.546   4.369   6.434 -0.7125  1.5031  0.6663
  629SOL    HW2 3565   8.462   4.278   6.347  1.3177 -0.9087  1.1722
  630SOL     OW 3566   6.381   5.035   3.767 -0.5229  0.2999  0.1220
  630SOL    HW1 3567   6.406   5.127   3.776  2.2701  0.0493 -3.8616
  630SOL    HW2 3568   6.348   5.010   3.854  1.6242  4.1724  2.1575
  631SOL     OW 3569   4.528   0.414   2.539  0.1857  0.2184 -0.1576
  631SOL    HW1 3570   4.615   0.438   2.506  0.7355  0.3290  1.3283
  631SOL    HW2 3571   4.520   0.462   2.622 -0.7515 -0.8259  0.3626
  632SOL     OW 3572   6.341   4.614   5.674  0.5648  0.1059  0.0709
  632SOL    HW1 3573   6.334   4.649   5.763 -0.6144 -0.5056  0.2470
  632SOL    HW2 3574   6.377   4.685   5.622  1.5519  0.3693  1.1021
  633SOL     OW 3575   0.261   8.198   0.076  0.1860  0.3438 -0.0035
  633SOL    HW1 3576   0.177   8.160   0.049 -0.6276  1.6278  0.6377
  633SOL    HW2 3577   0.246   8.225   0.167  1.7974 -0.8130  0.6312
  634SOL     OW 3578   1.747   5.234   5.149 -0.0853  0.3417  0.0853
  634SOL    HW1 3579   1.760   5.141   5.171  0.2087  0.2633 -0.4004
  634SOL    HW2 3580   1.779   5.281   5.226 -0.6139  0.0298  0.5032
  635SOL     OW 3581   7.071   3.736   5.109  0.4034 -0.3225  0.2513
  635SOL    HW1 3582   6.980   3.713   5.093  1.4625 -3.1175 -1.9749
  635SOL    HW2 3583   7.104   3.667   5.166  1.0215  0.9811  1.5221
  636SOL     OW 3584   8.511   3.762   1.450  0.0446  0.1178  0.1996
  636SOL    HW1 3585   8.548   3.678   1.475 -1.2218 -0.8517 -1.0866
  636SOL    HW2 3586   8.577   3.800   1.392  0.8051  0.2112  1.1083
  637SOL     OW 3587   2.636   9.168   3.382  0.4767 -0.2106 -0.1091
  637SOL    HW1 3588   2.689   9.173   3.462  1.6548 -1.8434 -0.7613
  637SOL    HW2 3589   2.612   9.258   3.363  0.7308  0.2568  1.7334
  638SOL     OW 3590   8.179   5.077   2.136  0.1424  0.1748  0.0252
  638SOL    HW1 3591   8.195   5.154   2.190  2.1799  0.5676 -1.0970
  638SOL    HW2 3592   8.086   5.057   2.149 -1.1441  4.4521 -1.7985
  639SOL     OW 3593   8.548   3.182   0.966 -0.3939 -0.3700  0.1891
  639SOL    HW1 3594   8.604   3.257   0.986  1.7604 -1.9506  0.2462
  639SOL    HW2 3595   8.551   3.128   1.045  0.2021 -1.7850 -0.7709
  640SOL     OW 3596   9.235   0.773   3.256  0.1155 -0.1985 -0.3232
  640SOL    HW1 3597   9.189   0.856   3.269 -1.7634 -1.0522 -1.3719
  640SOL    HW2 3598   9.238   0.733   3.343  1.1069  0.9751  0.2031
  641SOL     OW 3599   6.252   1.904   5.515 -0.1357  0.5981 -0.2568
  641SOL    HW1 3600   6.261   1.830   5.576 -0.1098  0.5593 -0.3076
  641SOL    HW2 3601   6.246   1.981   5.572  1.4457  0.7264 -0.2438
  642SOL     OW 3602   5.499   2.831   1.832  0.0969 -0.6086 -0.3541
  642SOL    HW1 3603   5.490   2.890   1.906 -0.2855 -0.1604 -0.7530
  642SOL    HW2 3604   5.409   2.808   1.807  0.1748  0.1110 -1.3520
  643SOL     OW 3605   5.325   8.997   3.821  0.2661 -0.4272  0.6600
  643SOL    HW1 3606   5.374   9.059   3.767 -1.4162  1.0702  0.7803
  643SOL    HW2 3607   5.319   9.039   3.907 -2.2906  0.0314  0.2931
  644SOL     OW 3608   7.939   3.823   6.972 -0.1015  0.4671 -0.4856
  644SOL    HW1 3609   7.905   3.848   7.058  1.2964 -0.7262  0.4537
  644SOL    HW2 3610   7.908   3.891   6.913 -1.0030  1.3655  0.9886
  645SOL     OW 3611   6.364   2.936   3.922 -0.6171 -0.2881 -0.4133
  645SOL    HW1 3612   6.456   2.961   3.912  0.5757 -3.3906  1.8491
  645SOL    HW2 3613   6.319   3.018   3.939  1.6085  1.3945 -2.3404
  646SOL     OW 3614   2.823   1.390   4.970  0.1436 -0.3918  0.3394
  646SOL    HW1 3615   2.783   1.401   4.884 -1.5995 -2.4739  0.8404
  646SOL    HW2 3616   2.832   1.478   5.005  0.4234  0.4362 -1.7649
  647SOL     OW 3617   8.298   3.691   7.990 -0.0557 -0.0279  0.1111
  647SOL    HW1 3618   8.289   3.726   7.902 -0.6840  0.7760  0.4838
  647SOL    HW2 3619   8.281   3.598   7.982  1.7570 -0.2827 -0.9272
  648SOL     OW 3620   2.551   5.885   1.647  0.1981 -1.0315 -0.0145
  648SOL    HW1 3621   2.511   5.962   1.688 -0.1502 -1.6805  0.8788
  648SOL    HW2 3622   2.638   5.915   1.621 -1.0533  0.5718 -2.5728
  649SOL     OW 3623   5.602   3.770   4.129  0.6835 -0.3228  0.7084
  649SOL    HW1 3624   5.653   3.850   4.135 -0.6405  0.4789  1.6710
  649SOL    HW2 3625   5.542   3.785   4.056  1.3857 -1.0009 -0.0108
  650SOL     OW 3626   7.122   3.216   7.260  0.6853 -0.5903 -0.4080
  650SOL    HW1 3627   7.077   3.286   7.306  0.8566 -0.5766 -0.2584
  650SOL    HW2 3628   7.211   3.217   7.297  0.6351 -1.0007 -0.2815
  651SOL     OW 3629   0.904   6.695   6.977 -0.7877  0.2080  0.0194
  651SOL    HW1 3630   0.951   6.694   7.060  0.2282  0.4778 -0.5343
  651SOL    HW2 3631   0.971   6.671   6.912 -1.4382  0.5135 -0.7748
  652SOL     OW 3632   6.462   2.892   4.508  0.1607 -0.1194 -0.8283
  652SOL    HW1 3633   6.489   2.919   4.421  0.4454 -0.2619 -0.7838
  652SOL    HW2 3634   6.529   2.830   4.536  0.4230  0.4275 -0.2445
  653SOL     OW 3635   2.299   4.726   8.235  0.3340  0.1024 -0.5434
  653SOL    HW1 3636   2.288   4.820   8.245 -3.2326 -0.1300 -1.6769
  653SOL    HW2 3637   2.266   4.690   8.318 -1.5200 -0.2943 -1.4349
  654SOL     OW 3638   4.583   2.393   1.135 -0.2976  0.7238  0.3398
  654SOL    HW1 3639   4.617   2.375   1.047 -0.3466  0.9451  0.2774
  654SOL    HW2 3640   4.578   2.488   1.141 -1.1952  0.6852  0.2420
  655SOL     OW 3641   2.265   7.928   6.554  0.1202  0.1173 -0.0181
  655SOL    HW1 3642   2.234   8.002   6.502 -0.1936  1.5020  2.0907
  655SOL    HW2 3643   2.333   7.964   6.611 -2.0859 -0.5179  3.1402
  656SOL     OW 3644   7.254   0.981   0.774  0.5099  0.1934  0.0415
  656SOL    HW1 3645   7.181   1.040   0.755  0.0104 -0.6670 -0.7521
  656SOL    HW2 3646   7.290   0.960   0.689 -0.1813 -1.7316  0.1913
  657SOL     OW 3647   2.197   4.845   0.445 -0.3784  0.5970 -0.1215
  657SOL    HW1 3648   2.272   4.862   0.388 -0.8188  1.2864 -0.4978
  657SOL    HW2 3649   2.125   4.894   0.406 -1.3445 -1.0517 -0.4724
  658SOL     OW 3650   1.585   4.494   2.858 -0.2916 -0.1585  0.3915
  658SOL    HW1 3651   1.659   4.551   2.881  0.4119 -0.9565  0.1162
  658SOL    HW2 3652   1.520   4.511   2.925  0.0189  0.7847  0.4641
  659SOL     OW 3653   2.376   3.883   0.832 -0.8298  0.2607  0.1665
  659SOL    HW1 3654   2.341   3.953   0.887  0.4394  0.8770  0.2089
  659SOL    HW2 3655   2.300   3.828   0.811 -1.7729  1.4621  0.4038
  660SOL     OW 3656   7.374   2.144   2.175 -0.7000 -0.0990 -0.5410
  660SOL    HW1 3657   7.285   2.110   2.178 -0.9801  0.6580 -0.2994
  660SOL    HW2 3658   7.374   2.205   2.101 -0.8447  1.2200  0.5448
  661SOL     OW 3659   0.386   3.529   2.992  0.2442 -0.5632  0.4162
  661SOL    HW1 3660   0.401   3.579   2.911 -0.4111 -0.1692  0.5283
  661SOL    HW2 3661   0.474   3.510   3.025  0.5088  0.7632  0.5131
  662SOL     OW 3662   1.219   8.509   6.052  0.1780 -0.0252  0.1262
  662SOL    HW1 3663   1.131   8.538   6.027  0.7792  1.3149 -0.4898
  662SOL    HW2 3664   1.277   8.574   6.014  1.4382 -0.8261  0.6548
  663SOL     OW 3665   1.724   4.835   0.656  0.3130  0.1840  0.3470
  663SOL    HW1 3666   1.740   4.911   0.600 -1.9299  0.1273 -0.4209
  663SOL    HW2 3667   1.653   4.861   0.713  1.7141 -0.2264  2.3434
  664SOL     OW 3668   7.841   2.758   6.276 -0.0118  0.1547 -0.5847
  664SOL    HW1 3669   7.928   2.790   6.299 -1.1516  1.4810  2.0275
  664SOL    HW2 3670   7.851   2.663   6.268  1.2982  0.0940  1.5422
  665SOL     OW 3671   6.347   4.000   7.859 -0.3917 -0.3217  0.2493
  665SOL    HW1 3672   6.296   3.964   7.787 -1.3305 -1.3854  1.4385
  665SOL    HW2 3673   6.438   3.986   7.833 -0.7234 -0.7388 -0.7067
  666SOL     OW 3674   4.425   3.159   3.918 -0.4531  0.2936  0.4015
  666SOL    HW1 3675   4.380   3.077   3.938 -1.0417 -0.3085 -3.1037
  666SOL    HW2 3676   4.389   3.187   3.834  0.6581  3.5166  0.9097
  667SOL     OW 3677   0.537   6.640   7.859 -0.3472 -0.7133 -0.1314
  667SOL    HW1 3678   0.482   6.718   7.856  1.1323  0.3571  0.0148
  667SOL    HW2 3679   0.484   6.572   7.817 -0.5599  1.0377 -2.7881
  668SOL     OW 3680   7.404   5.837   6.289 -0.7777 -0.3553 -0.0661
  668SOL    HW1 3681   7.419   5.905   6.355 -1.6864 -0.4980  0.2870
  668SOL    HW2 3682   7.381   5.887   6.210  0.2812 -0.1881 -0.2752
  669SOL     OW 3683   0.581   5.980   6.920 -0.7186 -0.2293 -0.0442
  669SOL    HW1 3684   0.510   5.978   6.984 -1.7156 -1.9073 -1.1357
  669SOL    HW2 3685   0.576   5.894   6.877  1.5111 -0.0864 -0.6445
  670SOL     OW 3686   7.275   6.378   8.996  0.1168 -0.1524  0.4432
  670SOL    HW1 3687   7.220   6.319   8.945 -0.0901  1.2158 -0.9565
  670SOL    HW2 3688   7.365   6.354   8.973  0.0348 -0.1025  0.0655
  671SOL     OW 3689   4.603   3.860   1.961 -0.0282 -0.4082  0.1587
  671SOL    HW1 3690   4.521   3.891   1.999 -1.0350  0.2265 -2.4683
  671SOL    HW2 3691   4.581   3.836   1.871  2.7043  0.1008 -0.7029
  672SOL     OW 3692   6.439   5.743   6.017 -0.5224 -0.0917 -0.0528
  672SOL    HW1 3693   6.432   5.830   5.977 -0.8607 -0.2883 -0.4272
  672SOL    HW2 3694   6.505   5.698   5.965 -1.8547 -0.7691 -1.1719
  673SOL     OW 3695   5.832   8.296   7.403  0.0207 -0.0908  0.2393
  673SOL    HW1 3696   5.818   8.359   7.332  0.8075  0.3020  0.4271
  673SOL    HW2 3697   5.760   8.311   7.463  0.3623  0.8346  0.4238
  674SOL     OW 3698   1.737   1.440   7.805 -0.5897  0.3258 -0.1261
  674SOL    HW1 3699   1.688   1.514   7.769  0.2862  0.4753 -1.0165
  674SOL    HW2 3700   1.803   1.420   7.739  0.2024 -0.2328  0.8214
  675SOL     OW 3701   4.362   5.513   9.260 -0.0096  0.3818 -0.2700
  675SOL    HW1 3702   4.438   5.501   9.317  0.2411 -1.0464 -0.8843
  675SOL    HW2 3703   4.399   5.542   9.177 -0.3617  2.3105  0.2279
  676SOL     OW 3704   5.250   6.543   4.101 -0.0144  0.7987 -0.2801
  676SOL    HW1 3705   5.217   6.498   4.023 -0.3126  2.1073 -0.9140
  676SOL    HW2 3706   5.203   6.626   4.103  2.8669  2.4995 -0.9116
  677SOL     OW 3707   4.042   7.750   3.005  0.3634  0.3884  0.5410
  677SOL    HW1 3708   3.994   7.778   3.083 -1.9551  2.2258 -1.4516
  677SOL    HW2 3709   4.087   7.829   2.975 -0.3179  0.1811 -1.0504
  678SOL     OW 3710   4.479   7.798   6.570 -0.1354  0.0264  0.0968
  678SOL    HW1 3711   4.559   7.805   6.519  0.0937  1.3539  0.6076
  678SOL    HW2 3712   4.509   7.782   6.660 -0.5590 -3.3634 -0.3226
  679SOL     OW 3713   3.685   4.663   6.475 -0.0462  0.2564 -0.4507
  679SOL    HW1 3714   3.606   4.660   6.529  0.5833 -5.2430  0.4587
  679SOL    HW2 3715   3.653   4.672   6.385 -1.5227  1.2461  0.1575
  680SOL     OW 3716   0.662   7.493   7.182 -0.2793 -0.2204  0.5753
  680SOL    HW1 3717   0.683   7.572   7.231  1.0739  0.8899 -1.6789
  680SOL    HW2 3718   0.686   7.421   7.239  1.8181  1.0336  1.3055
  681SOL     OW 3719   0.206   6.164   3.285  0.1054  0.5303 -0.2388
  681SOL    HW1 3720   0.246   6.250   3.298 -0.5125  0.5496  1.8596
  681SOL    HW2 3721   0.124   6.183   3.238  0.8399  0.8804 -1.3818
  682SOL     OW 3722   3.451   1.304   6.328  0.0328  0.0290  0.1038
  682SOL    HW1 3723   3.427   1.213   6.343 -0.8545  0.3853  0.8794
  682SOL    HW2 3724   3.517   1.300   6.259 -2.0564 -1.0233 -1.9247
  683SOL     OW 3725   5.913   0.392   5.319  0.6059  0.2119  0.3355
  683SOL    HW1 3726   5.970   0.371   5.245 -0.3235 -0.4385 -0.2092
  683SOL    HW2 3727   5.867   0.310   5.337 -1.0230  1.0494  0.0181
  684SOL     OW 3728   5.087   4.618   0.688  0.4812  0.3474  0.6015
  684SOL    HW1 3729   5.149   4.545   0.690 -1.2024 -1.1473 -0.5865
  684SOL    HW2 3730   5.001   4.577   0.691 -0.5085  2.2453 -0.9470
  685SOL     OW 3731   7.135   1.735   0.008  0.0937 -0.2091 -0.4544
  685SOL    HW1 3732   7.137   1.727  -0.088 -2.5603  0.4410 -0.6055
  685SOL    HW2 3733   7.109   1.648   0.038 -0.2493 -0.0876 -0.3995
  686SOL     OW 3734   3.682   8.009   6.929 -0.8286  0.6193 -0.0873
  686SOL    HW1 3735   3.747   8.043   6.868 -1.9700  1.6855 -0.7415
  686SOL    HW2 3736   3.662   7.921   6.896  1.0252 -0.1496  0.7382
  687SOL     OW 3737   6.059   9.205   2.157  0.2775 -0.0994 -0.0754
  687SOL    HW1 3738   6.062   9.300   2.149  0.6209  0.1201  2.3401
  687SOL    HW2 3739   6.020   9.175   2.074 -0.8648  2.1895 -0.4017
  688SOL     OW 3740   3.727   3.407   4.910 -0.1195  0.2824  0.0358
  688SOL    HW1 3741   3.776   3.370   4.983  0.8232  0.1939 -0.6279
  688SOL    HW2 3742   3.668   3.337   4.882 -1.9148  0.9859  1.9750
  689SOL     OW 3743   7.490   8.331   5.494 -0.8874 -0.4252  0.1472
  689SOL    HW1 3744   7.496   8.235   5.488  2.5249 -0.2309 -0.1846
  689SOL    HW2 3745   7.444   8.346   5.577 -2.5752 -2.3342 -0.3892
  690SOL     OW 3746   2.758   1.482   0.724 -0.3742  0.2498 -0.3658
  690SOL    HW1 3747   2.744   1.399   0.768 -1.6551  0.8006  0.2682
  690SOL    HW2 3748   2.849   1.477   0.693 -0.6136 -1.5998 -0.8309
  691SOL     OW 3749   6.332   5.240   1.405  0.3834 -0.7942 -0.6310
  691SOL    HW1 3750   6.373   5.274   1.325  1.1405 -1.6248 -0.6030
  691SOL    HW2 3751   6.396   5.178   1.440 -0.3251 -1.0911  0.1464
  692SOL     OW 3752   1.141   0.141   3.040  0.1088 -0.3388  0.2852
  692SOL    HW1 3753   1.124   0.234   3.052  0.8825 -0.5207  3.0515
  692SOL    HW2 3754   1.070   0.098   3.088  1.4923 -1.1419  1.6372
  693SOL     OW 3755   6.776   8.774   3.351  0.3246  0.2928 -0.1650
  693SOL    HW1 3756   6.733   8.757   3.434  1.1254  0.8126  0.3665
  693SOL    HW2 3757   6.707   8.807   3.294 -0.3869 -0.7912  0.0501
  694SOL     OW 3758   1.537   2.578   4.631 -0.7225  0.2049 -0.1114
  694SOL    HW1 3759   1.565   2.612   4.716 -2.0103  1.0475  0.0001
  694SOL    HW2 3760   1.584   2.496   4.620  0.2332  0.6077  0.9495
  695SOL     OW 3761   1.134   7.836   2.088 -1.0997  0.4364 -0.2139
  695SOL    HW1 3762   1.190   7.883   2.026 -2.1073  2.6640  0.4939
  695SOL    HW2 3763   1.051   7.825   2.043 -1.3239  0.6095  0.1524
  696SOL     OW 3764   7.530   1.003   4.655 -0.3491  0.0571  0.4698
  696SOL    HW1 3765   7.543   1.092   4.687  0.5736  0.3703 -0.7577
  696SOL    HW2 3766   7.500   1.013   4.565 -0.4259 -0.8760  0.3829
  697SOL     OW 3767   0.062   8.177   6.065  0.5506  0.5323  0.0999
  697SOL    HW1 3768   0.074   8.098   6.012  1.0228  2.4864 -2.8530
  697SOL    HW2 3769   0.152   8.206   6.085  0.4720  2.2776 -1.9415
  698SOL     OW 3770   0.681   5.145   5.162  0.1433 -0.8034  0.0503
  698SOL    HW1 3771   0.654   5.166   5.073  0.7251  0.2939  0.1206
  698SOL    HW2 3772   0.683   5.049   5.165  0.1091 -0.8455 -1.1085
  699SOL     OW 3773   6.038   9.176   4.282 -0.0941 -0.4751  0.4205
  699SOL    HW1 3774   6.049   9.114   4.209  0.7225  1.2064 -0.9064
  699SOL    HW2 3775   6.013   9.121   4.356 -1.2456 -2.1830 -1.1928
  700SOL     OW 3776   8.261   6.831   9.120 -0.2076 -0.2864  0.1076
  700SOL    HW1 3777   8.331   6.779   9.161  0.2763  1.5035  1.6292
  700SOL    HW2 3778   8.295   6.920   9.118 -2.3479  0.5737  0.6467
  701SOL     OW 3779   0.685   4.268   4.736  0.0614 -0.0141 -0.8758
  701SOL    HW1 3780   0.647   4.337   4.683  2.2514  1.0065 -1.1686
  701SOL    HW2 3781   0.684   4.190   4.680 -0.7374  0.2205 -1.1905
  702SOL     OW 3782   3.375   2.405   7.924 -0.0904  0.1477 -0.0193
  702SOL    HW1 3783   3.289   2.401   7.966 -0.2038  1.0103 -0.1581
  702SOL    HW2 3784   3.366   2.349   7.847 -0.1497 -0.7303  0.6203
  703SOL     OW 3785   3.719   0.013   5.666  0.2492 -0.7924  0.2199
  703SOL    HW1 3786   3.713  -0.081   5.650  2.9621 -1.1349  0.8478
  703SOL    HW2 3787   3.647   0.032   5.726 -1.7638 -1.9952 -1.7443
  704SOL     OW 3788   5.195   5.448   8.998  0.1260  0.3955 -0.2542
  704SOL    HW1 3789   5.252   5.521   8.971  1.1601  0.0939  1.0798
  704SOL    HW2 3790   5.227   5.373   8.948  1.3012  0.0933  0.9344
  705SOL     OW 3791   3.246   5.444   2.383 -0.6311  0.3802  0.7746
  705SOL    HW1 3792   3.182   5.420   2.316 -0.6515 -0.8095  1.2088
  705SOL    HW2 3793   3.205   5.416   2.466 -0.6563  1.9387  1.2976
  706SOL     OW 3794   7.891   8.722   3.243 -0.0721 -0.4104  0.2238
  706SOL    HW1 3795   7.957   8.654   3.235  1.6135  1.1283  0.8173
  706SOL    HW2 3796   7.927   8.784   3.306 -2.6677 -0.2158  1.5966
  707SOL     OW 3797   6.754   6.374   0.123 -0.7670  0.3427 -0.3613
  707SOL    HW1 3798   6.754   6.464   0.157 -0.9195  0.7880 -1.5370
  707SOL    HW2 3799   6.749   6.384   0.028  0.2707 -0.8916 -0.5554
  708SOL     OW 3800   3.813   8.408   4.903 -0.4910  0.3199 -0.5926
  708SOL    HW1 3801   3.856   8.460   4.836 -1.4153 -0.4847 -1.8509
  708SOL    HW2 3802   3.839   8.448   4.986 -0.0389  1.8790 -1.4677
  709SOL     OW 3803   8.752   8.839   7.199  0.6573 -0.1738 -0.1922
  709SOL    HW1 3804   8.845   8.848   7.217  1.0245 -2.7703 -0.6703
  709SOL    HW2 3805   8.711   8.836   7.286  1.0042  0.7901  0.0142
  710SOL     OW 3806   1.932   2.008   5.485 -0.1575  0.0821 -0.1966
  710SOL    HW1 3807   1.911   2.013   5.392  0.3732  0.2633 -0.3086
  710SOL    HW2 3808   1.967   2.094   5.507 -2.8284  0.9546  0.8151
  711SOL     OW 3809   6.090   8.671   4.125  0.3556 -0.1072 -0.2218
  711SOL    HW1 3810   6.181   8.654   4.100 -0.1050  1.3656 -3.1232
  711SOL    HW2 3811   6.039   8.610   4.071 -0.4997  0.9614 -0.6537
  712SOL     OW 3812   2.419   6.517   9.265  0.2424 -0.6072  0.6068
  712SOL    HW1 3813   2.436   6.472   9.182 -1.7090 -1.8535  0.8479
  712SOL    HW2 3814   2.447   6.456   9.333  1.7205  0.3629  0.8889
  713SOL     OW 3815   8.122   6.238   5.988 -0.2431 -0.1000  0.2530
  713SOL    HW1 3816   8.136   6.152   5.950 -0.8556 -0.4332  0.7836
  713SOL    HW2 3817   8.195   6.291   5.955  1.2732 -1.3433  1.5459
  714SOL     OW 3818   9.068   4.938   7.244 -0.0781  0.6898 -0.3070
  714SOL    HW1 3819   9.137   4.967   7.185  2.0050 -2.1086  0.6566
  714SOL    HW2 3820   9.051   4.847   7.220 -1.7479  0.6029  1.0385
  715SOL     OW 3821   1.883   1.951   4.948  0.0254 -0.6917  0.1577
  715SOL    HW1 3822   1.789   1.935   4.941 -0.1147  0.6737 -1.2508
  715SOL    HW2 3823   1.923   1.864   4.940 -1.1597 -1.4652  2.2373
  716SOL     OW 3824   6.048   2.502   6.001  0.2454 -0.5807 -0.3299
  716SOL    HW1 3825   6.117   2.436   5.991  0.4834 -0.5995  1.3364
  716SOL    HW2 3826   6.005   2.479   6.083 -0.9074  0.2127 -0.7059
  717SOL     OW 3827   8.366   6.924   4.406  0.0731 -0.5900  0.0176
  717SOL    HW1 3828   8.383   6.875   4.326  1.4703 -1.4958  0.8411
  717SOL    HW2 3829   8.319   6.863   4.462 -0.9436  0.0562 -0.1192
  718SOL     OW 3830   1.317   6.490   3.417  0.7065  0.2603 -0.0851
  718SOL    HW1 3831   1.389   6.543   3.452  0.9989  1.2452 -2.1200
  718SOL    HW2 3832   1.357   6.439   3.347 -0.0018 -1.2655  0.6009
  719SOL     OW 3833   6.209   3.292   3.725  0.1863 -0.1660 -0.4689
  719SOL    HW1 3834   6.276   3.355   3.697  1.5593 -1.8757 -1.1543
  719SOL    HW2 3835   6.138   3.303   3.661  0.2581  0.9319 -0.3633
  720SOL     OW 3836   0.556   4.756   5.773  1.0057  0.1695  0.0074
  720SOL    HW1 3837   0.586   4.802   5.695  0.0323  1.1068  0.1623
  720SOL    HW2 3838   0.629   4.701   5.799 -0.0251 -3.3178 -3.9303
  721SOL     OW 3839   9.185   8.386   6.190  0.4158 -0.0302  0.3451
  721SOL    HW1 3840   9.235   8.314   6.150 -0.0353 -0.8343  1.1943
  721SOL    HW2 3841   9.105   8.344   6.223  0.5011  0.7177  1.5311
  722SOL     OW 3842   2.928   3.211   8.920  0.3014 -0.7767 -0.5306
  722SOL    HW1 3843   2.932   3.204   8.824 -0.5144 -0.5505 -0.5894
  722SOL    HW2 3844   2.846   3.167   8.944  0.7644 -1.2790  0.1078
  723SOL     OW 3845   6.068   5.600   1.484 -0.2231  0.2998  0.4380
  723SOL    HW1 3846   6.146   5.628   1.437  0.6682 -1.1061  1.0462
  723SOL    HW2 3847   5.996   5.621   1.424  0.6293  1.3254 -0.2603
  724SOL     OW 3848   6.057   1.778   1.376  0.0402 -0.1985  0.2601
  724SOL    HW1 3849   5.978   1.726   1.392  0.6334 -0.8999  0.9216
  724SOL    HW2 3850   6.113   1.720   1.324  0.2105  0.2217 -0.0229
  725SOL     OW 3851   3.837   3.223   7.240  0.5540  0.8108 -0.5451
  725SOL    HW1 3852   3.775   3.224   7.313  1.0532  0.0652 -0.1047
  725SOL    HW2 3853   3.830   3.310   7.201 -2.7481 -0.1276 -2.1877
  726SOL     OW 3854   1.809   4.167   6.828  0.0891 -0.0405  0.6619
  726SOL    HW1 3855   1.755   4.127   6.896 -0.6774  0.5990  0.4380
  726SOL    HW2 3856   1.785   4.260   6.829  1.1142  0.2280  0.4916
  727SOL     OW 3857   0.993   1.240   4.822 -0.0431  0.2851 -0.5497
  727SOL    HW1 3858   0.951   1.155   4.808 -0.1415  0.1254  0.6088
  727SOL    HW2 3859   1.086   1.219   4.832 -0.2469  0.1269  1.1928
  728SOL     OW 3860   2.572   1.184   8.897  0.4416 -0.8753  0.0614
  728SOL    HW1 3861   2.580   1.175   8.991  0.2790  1.1663  0.2970
  728SOL    HW2 3862   2.493   1.236   8.884 -0.2803 -2.2495 -1.2673
  729SOL     OW 3863   3.636   5.800   6.320 -0.1714 -0.0352 -0.2442
  729SOL    HW1 3864   3.691   5.795   6.242  0.4515  1.0354  0.1060
  729SOL    HW2 3865   3.596   5.714   6.328  0.5852 -0.4705 -1.1481
  730SOL     OW 3866   3.363   0.210   2.597  0.4195  0.2141 -0.0240
  730SOL    HW1 3867   3.356   0.305   2.590 -2.9885 -0.1076 -1.8156
  730SOL    HW2 3868   3.386   0.181   2.508  4.0468 -0.5202  1.0514
  731SOL     OW 3869   5.350   9.280   2.374  0.2077 -0.1819 -0.0438
  731SOL    HW1 3870   5.306   9.210   2.325 -1.6618 -0.6352  2.1663
  731SOL    HW2 3871   5.346   9.356   2.316 -0.6884 -1.0596 -1.1702
  732SOL     OW 3872   0.254   5.862   8.552 -0.3969  0.2960  0.4213
  732SOL    HW1 3873   0.214   5.845   8.637  1.1741  0.7268  1.2732
  732SOL    HW2 3874   0.288   5.777   8.524 -0.3225  0.2897  0.5330
  733SOL     OW 3875   7.483   5.537   6.266 -0.2056 -0.5225  0.3091
  733SOL    HW1 3876   7.451   5.456   6.225  0.7341 -0.2609 -0.9748
  733SOL    HW2 3877   7.407   5.594   6.268 -0.7119 -1.1985  0.5907
  734SOL     OW 3878   7.257   8.824   2.735  0.2325  0.3927 -0.4267
  734SOL    HW1 3879   7.243   8.874   2.654  2.0121 -0.0072 -0.9968
  734SOL    HW2 3880   7.349   8.800   2.733  0.1282 -0.2392  1.3948
  735SOL     OW 3881   0.816   8.107   2.336 -0.0283 -0.4013 -0.1267
  735SOL    HW1 3882   0.821   8.183   2.394  0.7137 -0.1278 -0.5342
  735SOL    HW2 3883   0.761   8.137   2.263 -0.5160 -0.5691  0.1694
  736SOL     OW 3884   1.441   7.665   5.545  0.1962 -0.4084 -0.2619
  736SOL    HW1 3885   1.416   7.588   5.597  1.6020  0.1399  1.2356
  736SOL    HW2 3886   1.487   7.722   5.606  1.2128  0.5940 -1.9338
  737SOL     OW 3887   4.066   7.586   7.008  0.1069 -0.1381 -0.1780
  737SOL    HW1 3888   4.065   7.512   7.068 -2.8575 -1.9816 -2.3694
  737SOL    HW2 3889   4.113   7.555   6.931 -0.8809  0.3303 -0.9888
  738SOL     OW 3890   6.311   5.205   8.071  0.1974  0.1773  0.4615
  738SOL    HW1 3891   6.262   5.217   8.153  1.0094  0.3355  0.9233
  738SOL    HW2 3892   6.367   5.282   8.065  1.1035 -0.4862  0.4167
  739SOL     OW 3893   0.287   6.970   2.638  0.2735  0.2023 -0.4013
  739SOL    HW1 3894   0.225   6.975   2.711  0.3324  1.8096 -0.4357
  739SOL    HW2 3895   0.314   6.879   2.635  0.5168  0.1827  1.7849
  740SOL     OW 3896   0.535   6.626   8.887  0.6298  0.1449  0.3672
  740SOL    HW1 3897   0.568   6.604   8.800  1.7895 -0.9182  1.0440
  740SOL    HW2 3898   0.458   6.570   8.899  0.1915  0.6406 -0.1666
  741SOL     OW 3899   6.955   5.693   3.397  0.0231  0.1863 -0.0441
  741SOL    HW1 3900   6.922   5.778   3.428  0.1254 -0.3200  1.5009
  741SOL    HW2 3901   7.038   5.682   3.443 -1.7699 -2.4817  2.7979
  742SOL     OW 3902   8.277   0.348   7.900  0.3145 -0.0995 -0.1318
  742SOL    HW1 3903   8.227   0.283   7.950  0.3867  1.2879  1.8015
  742SOL    HW2 3904   8.227   0.430   7.910  1.2375  0.5770 -0.9298
  743SOL     OW 3905   4.099   8.836   0.036  0.3724  0.5943  0.1158
  743SOL    HW1 3906   4.178   8.838  -0.019 -1.0786 -0.0726 -2.0717
  743SOL    HW2 3907   4.091   8.744   0.061 -0.4506  0.4096 -0.8036
  744SOL     OW 3908   7.011   6.775   8.560  0.3051 -0.7057 -0.1607
  744SOL    HW1 3909   7.100   6.809   8.569  0.1662 -0.1454 -0.8858
  744SOL    HW2 3910   6.968   6.799   8.642  0.2663  0.7180 -0.5922
  745SOL     OW 3911   8.175   0.402   6.426 -0.8066 -1.1232  0.2879
  745SOL    HW1 3912   8.223   0.387   6.507 -0.4522 -3.7004 -0.3604
  745SOL    HW2 3913   8.100   0.342   6.431 -2.4894  0.8681  0.0390
  746SOL     OW 3914   6.771   8.102   2.123  0.2558 -0.2983  0.3354
  746SOL    HW1 3915   6.782   8.092   2.218  1.6797 -1.1595  0.1090
  746SOL    HW2 3916   6.857   8.131   2.092  0.3482 -1.7640 -0.8867
  747SOL     OW 3917   0.768   1.314   6.706  0.0704 -0.0838  0.3931
  747SOL    HW1 3918   0.732   1.327   6.794 -2.1197  1.3923 -0.6737
  747SOL    HW2 3919   0.718   1.240   6.671  0.9476 -0.6747  0.3851
  748SOL     OW 3920   1.425   0.636   3.004 -0.4387  0.0635 -0.1478
  748SOL    HW1 3921   1.459   0.553   2.972 -3.1447 -0.3113 -2.3394
  748SOL    HW2 3922   1.454   0.642   3.095  3.0927 -1.3862 -1.1213
  749SOL     OW 3923   4.681   6.573   1.057  0.0473 -0.7267  0.1787
  749SOL    HW1 3924   4.691   6.482   1.028  0.3563 -0.9993  1.1259
  749SOL    HW2 3925   4.603   6.572   1.111  0.2459 -0.4947  0.4667
  750SOL     OW 3926   0.307   1.463   3.833 -0.5014  0.0147  0.2550
  750SOL    HW1 3927   0.386   1.480   3.884 -0.1411 -0.5080 -0.1109
  750SOL    HW2 3928   0.235   1.491   3.889 -0.0413  0.7607  0.4783
  751SOL     OW 3929   0.570   6.822   6.514  0.0036  0.2314  0.0432
  751SOL    HW1 3930   0.498   6.826   6.577 -0.2879 -2.6184 -0.0394
  751SOL    HW2 3931   0.627   6.894   6.539 -0.8553  0.0704  2.6478
  752SOL     OW 3932   7.005   0.469   5.828 -0.4794 -0.3003  0.4033
  752SOL    HW1 3933   7.074   0.456   5.763 -1.2307  0.1876 -0.5049
  752SOL    HW2 3934   7.009   0.563   5.847 -0.7720 -0.3060  0.4854
  753SOL     OW 3935   7.608   2.277   1.744 -0.0615 -0.3842 -0.5242
  753SOL    HW1 3936   7.670   2.291   1.816  0.1130  0.0238 -0.7519
  753SOL    HW2 3937   7.596   2.364   1.706 -1.1538 -0.3715 -0.1722
  754SOL     OW 3938   3.838   9.249   3.354 -0.2980 -0.4135  0.1939
  754SOL    HW1 3939   3.811   9.281   3.268 -0.5898  0.9064  0.7687
  754SOL    HW2 3940   3.893   9.318   3.389  0.0131 -1.0537  0.9788
  755SOL     OW 3941   3.082   8.288   6.086 -0.7381  0.0061 -0.5208
  755SOL    HW1 3942   3.052   8.207   6.044 -0.3817 -0.9465  1.0265
  755SOL    HW2 3943   3.031   8.293   6.167 -0.5578  1.1908 -0.4738
  756SOL     OW 3944   3.644   2.950   4.403 -0.4422 -0.4227 -0.3783
  756SOL    HW1 3945   3.552   2.949   4.379 -0.0751 -2.2683 -1.7738
  756SOL    HW2 3946   3.681   2.873   4.362  1.4996 -0.3452  1.1226
  757SOL     OW 3947   5.025   7.672   7.363 -0.1725  0.3869 -0.1049
  757SOL    HW1 3948   4.933   7.679   7.337 -0.3523 -2.3954 -0.3768
  757SOL    HW2 3949   5.050   7.761   7.389 -2.6429  1.3688 -0.9823
  758SOL     OW 3950   5.037   7.857   4.056  0.7690 -0.1267 -0.1161
  758SOL    HW1 3951   5.009   7.866   4.147  4.0201  0.0711  0.9155
  758SOL    HW2 3952   5.049   7.762   4.044 -0.1622 -0.1987 -0.5105
  759SOL     OW 3953   4.874   3.261   2.532  0.0499 -0.2726 -0.0509
  759SOL    HW1 3954   4.920   3.322   2.590  1.9891 -1.6015 -0.1460
  759SOL    HW2 3955   4.785   3.295   2.528  1.2190  2.9168 -0.5881
  760SOL     OW 3956   2.358   3.772   4.666  0.1130  0.2777 -0.5607
  760SOL    HW1 3957   2.320   3.714   4.732 -0.7713 -0.2590 -1.5118
  760SOL    HW2 3958   2.449   3.783   4.692  0.5840 -2.3799 -0.9189
  761SOL     OW 3959   6.525   4.022   6.168  0.1646  0.0592  0.3333
  761SOL    HW1 3960   6.502   3.988   6.081 -0.5313  1.2174  0.0585
  761SOL    HW2 3961   6.478   4.105   6.175  1.0741  0.5011  1.3898
  762SOL     OW 3962   0.257   2.742   2.373 -0.5504  0.0713  0.0421
  762SOL    HW1 3963   0.209   2.825   2.370 -0.9828  0.0153  3.7366
  762SOL    HW2 3964   0.199   2.683   2.421  0.3633 -2.0010 -1.3361
  763SOL     OW 3965   6.577   8.287   6.074  0.0490  0.0850  0.0217
  763SOL    HW1 3966   6.598   8.377   6.051  1.5560 -0.2048  0.2364
  763SOL    HW2 3967   6.632   8.233   6.017 -1.8614 -0.7480 -1.1117
  764SOL     OW 3968   9.192   6.112   6.335 -0.8366  0.2441  0.0356
  764SOL    HW1 3969   9.170   6.193   6.380  1.4389  1.4154 -0.8949
  764SOL    HW2 3970   9.265   6.075   6.385 -1.7847 -1.2113  0.3954
  765SOL     OW 3971   6.523   2.900   8.376  0.1585 -0.2596 -0.5347
  765SOL    HW1 3972   6.464   2.857   8.438  0.4325  0.6984  0.4043
  765SOL    HW2 3973   6.596   2.840   8.367  0.4512 -0.0838  0.6269
  766SOL     OW 3974   2.831   1.127   7.050  0.5302  0.2163  0.6252
  766SOL    HW1 3975   2.776   1.154   7.123  1.1734  2.5082  0.2978
  766SOL    HW2 3976   2.909   1.088   7.091 -0.1202 -0.5846  1.1122
  767SOL     OW 3977   6.995   5.049   2.142  0.1164  0.2965 -0.8844
  767SOL    HW1 3978   7.025   5.033   2.232 -1.7519 -1.4126 -0.5342
  767SOL    HW2 3979   6.941   5.127   2.147 -0.0366  0.1643 -0.5234
  768SOL     OW 3980   4.814   0.091   5.412 -0.0184 -0.7045  0.3887
  768SOL    HW1 3981   4.864   0.012   5.433 -0.4414 -1.4485 -1.4055
  768SOL    HW2 3982   4.779   0.120   5.497  1.3610 -1.5925  1.2795
  769SOL     OW 3983   5.501   3.075   3.723 -0.2221  0.6567 -0.2595
  769SOL    HW1 3984   5.417   3.120   3.735  0.5264  1.9251  0.2707
  769SOL    HW2 3985   5.547   3.089   3.806  0.2572 -0.5924 -0.3100
  770SOL     OW 3986   5.139   8.778   3.939  0.1088 -0.1499 -0.0370
  770SOL    HW1 3987   5.196   8.814   3.871 -0.9668  1.2481 -0.2177
  770SOL    HW2 3988   5.111   8.693   3.906  1.2552 -0.3855 -0.4064
  771SOL     OW 3989   3.239   7.481   2.287 -0.2929 -0.3157 -0.1790
  771SOL    HW1 3990   3.294   7.484   2.365  0.3856 -0.7975 -0.6293
  771SOL    HW2 3991   3.223   7.387   2.274 -0.4226 -0.2329 -0.6031
  772SOL     OW 3992   2.152   7.598   4.373 -0.9260  0.0888 -0.0727
  772SOL    HW1 3993   2.073   7.544   4.366 -0.1097 -1.1168 -0.0656
  772SOL    HW2 3994   2.221   7.537   4.399  0.1330  1.0288 -0.6296
  773SOL     OW 3995   8.226   1.526   8.862 -0.2569  0.3679  0.1331
  773SOL    HW1 3996   8.186   1.526   8.775 -1.7899  0.3765  0.8225
  773SOL    HW2 3997   8.190   1.603   8.905  0.6742  0.4935  0.7065
  774SOL     OW 3998   0.103   4.423   0.418 -0.1271 -0.1576 -0.5259
  774SOL    HW1 3999   0.096   4.332   0.390  0.9043 -1.1215  2.1661
  774SOL    HW2 4000   0.197   4.438   0.429 -0.2704  1.2867 -1.0468
  775SOL     OW 4001   3.776   5.801   5.842  1.0512 -0.3389  0.3647
  775SOL    HW1 4002   3.810   5.719   5.807  1.0390  0.5755 -1.9415
  775SOL    HW2 4003   3.825   5.869   5.796 -0.5873  0.9545  0.4528
  776SOL     OW 4004   3.780   0.249   2.111 -0.4052 -0.7902 -0.3297
  776SOL    HW1 4005   3.874   0.265   2.113 -0.4808 -0.2990 -0.4486
  776SOL    HW2 4006   3.760   0.239   2.017 -0.7051  0.6137 -0.4290
  777SOL     OW 4007   8.215   4.024   9.258  0.2518 -0.2304 -0.0214
  777SOL    HW1 4008   8.204   4.093   9.323  0.1524  1.1345 -1.4562
  777SOL    HW2 4009   8.309   4.014   9.248  0.2602  0.5034 -0.6560
  778SOL     OW 4010   0.431   0.574   3.712 -0.2512 -0.2132  0.4991
  778SOL    HW1 4011   0.435   0.606   3.802 -0.4248  1.8570 -0.2140
  778SOL    HW2 4012   0.500   0.622   3.666 -0.9577 -0.3630 -0.7476
  779SOL     OW 4013   7.177   3.580   8.001  0.6241  0.3914 -0.4629
  779SOL    HW1 4014   7.143   3.670   8.005 -0.3982  0.0335 -1.0173
  779SOL    HW2 4015   7.143   3.538   8.080  1.2107  0.5152 -0.1357
  780SOL     OW 4016   1.235   3.945   8.610 -0.8834 -0.2875 -1.0394
  780SOL    HW1 4017   1.278   3.883   8.669  1.3152  1.7865 -0.4011
  780SOL    HW2 4018   1.168   3.987   8.663 -0.7167 -0.3423 -0.7862
  781SOL     OW 4019   5.295   1.677   0.534  0.3860 -0.0194 -0.1783
  781SOL    HW1 4020   5.380   1.689   0.492  1.1165  0.1569  1.3118
  781SOL    HW2 4021   5.290   1.583   0.551  0.6382  0.0742  0.4393
  782SOL     OW 4022   7.276   6.579   1.149 -0.1176  0.3206 -0.0663
  782SOL    HW1 4023   7.366   6.580   1.116  0.0640  0.7772  0.4398
  782SOL    HW2 4024   7.254   6.486   1.156 -0.3031  0.2117 -1.8723
  783SOL     OW 4025   4.115   3.514   1.988  0.1699  0.2238 -0.2303
  783SOL    HW1 4026   4.135   3.421   1.999  0.5339  0.3180 -0.0695
  783SOL    HW2 4027   4.190   3.549   1.940  0.6569  0.6960  0.8620
  784SOL     OW 4028   7.620   9.235   0.328  0.3172  0.4861  0.2815
  784SOL    HW1 4029   7.580   9.322   0.327 -2.5833 -0.7804 -0.2523
  784SOL    HW2 4030   7.673   9.235   0.408 -1.1353  2.1251  1.3119
  785SOL     OW 4031   4.358   5.601   2.262 -0.1208 -0.3651  0.0249
  785SOL    HW1 4032   4.415   5.668   2.299  1.0870 -0.6716 -1.2341
  785SOL    HW2 4033   4.418   5.542   2.216 -1.5745  0.1199 -2.5883
  786SOL     OW 4034   2.459   5.748   7.654 -0.0543 -0.2830 -0.1499
  786SOL    HW1 4035   2.366   5.738   7.675  0.2929 -1.1763  1.0382
  786SOL    HW2 4036   2.482   5.667   7.608  0.4011 -0.5616  0.5638
  787SOL     OW 4037   8.046   8.105   3.792 -0.2548 -0.1253 -0.0657
  787SOL    HW1 4038   8.057   8.054   3.872  0.2901  0.8856  0.5182
  787SOL    HW2 4039   8.018   8.192   3.823  1.5045  0.7485 -0.8653
  788SOL     OW 4040   5.423   2.159   4.726  0.5112 -0.1274 -0.1632
  788SOL    HW1 4041   5.357   2.182   4.791  0.4750  1.6530 -0.7945
  788SOL    HW2 4042   5.378   2.167   4.642  1.6207  1.4660 -0.6151
  789SOL     OW 4043   6.359   4.405   0.400  0.0970 -0.4796 -0.4897
  789SOL    HW1 4044   6.277   4.391   0.352 -0.7656  0.2538  0.7409
  789SOL    HW2 4045   6.358   4.337   0.468 -0.6359  0.9798  0.9922
  790SOL     OW 4046   2.389   1.532   3.367 -0.6622 -0.8027 -0.2000
  790SOL    HW1 4047   2.362   1.621   3.388  1.1420  0.0951 -1.4963
  790SOL    HW2 4048   2.321   1.476   3.405 -1.3716  1.0703  1.3564
  791SOL     OW 4049   0.916   4.191   5.926  0.1156  0.2221  0.2101
  791SOL    HW1 4050   0.971   4.262   5.892 -0.0710  0.7727  1.0357
  791SOL    HW2 4051   0.978   4.120   5.945  0.0022 -0.8005 -3.0197
  792SOL     OW 4052   5.026   7.725   6.283  0.2914 -0.3773 -0.0110
  792SOL    HW1 4053   5.010   7.686   6.369  2.0934 -1.2398 -0.0481
  792SOL    HW2 4054   5.005   7.818   6.295 -1.4656 -0.8499  0.7924
  793SOL     OW 4055   7.704   1.334   2.935  0.0808 -0.8778  0.2845
  793SOL    HW1 4056   7.765   1.399   2.900 -1.1595  0.9096  1.3197
  793SOL    HW2 4057   7.662   1.296   2.858  1.1713 -0.8146 -0.3516
  794SOL     OW 4058   6.913   1.998   9.020 -0.3637 -0.3426 -0.0893
  794SOL    HW1 4059   6.926   1.925   8.960  0.0515 -0.8300  0.5854
  794SOL    HW2 4060   6.835   2.043   8.987 -0.6065 -1.0775 -0.5254
  795SOL     OW 4061   5.437   9.084   7.912  0.2577  0.2886 -0.9496
  795SOL    HW1 4062   5.499   9.069   7.840  0.5987  1.1593 -0.8404
  795SOL    HW2 4063   5.481   9.148   7.968 -0.1463 -0.1523 -0.1320
  796SOL     OW 4064   2.889   3.813   1.179 -0.1447  0.3897 -0.6325
  796SOL    HW1 4065   2.880   3.814   1.274  0.6242  0.6328 -0.5548
  796SOL    HW2 4066   2.943   3.889   1.159 -0.4454  0.4381 -1.2819
  797SOL     OW 4067   2.374   8.296   4.804  0.3254  0.1235 -0.1588
  797SOL    HW1 4068   2.356   8.374   4.751  1.1618  1.0485  0.8957
  797SOL    HW2 4069   2.302   8.236   4.783  0.5414  0.5381 -2.1983
  798SOL     OW 4070   7.465   6.495   5.794 -0.2693  0.4743 -0.4328
  798SOL    HW1 4071   7.554   6.512   5.765 -0.0438 -1.1847 -0.7877
  798SOL    HW2 4072   7.421   6.457   5.718 -1.3076  1.3742 -0.2898
  799SOL     OW 4073   7.258   4.542   5.395 -0.3329  0.1160  0.1506
  799SOL    HW1 4074   7.315   4.553   5.319 -2.4020  2.4734 -1.1283
  799SOL    HW2 4075   7.178   4.502   5.359 -0.6521 -0.3930  1.3999
  800SOL     OW 4076   0.333   4.308   3.889  0.2055 -0.2145  0.3593
  800SOL    HW1 4077   0.291   4.291   3.805 -1.2329 -0.7516  1.1709
  800SOL    HW2 4078   0.332   4.224   3.934 -0.9267  0.4964  1.7253
  801SOL     OW 4079   3.249   1.208   7.432  0.1402  0.2569  0.0831
  801SOL    HW1 4080   3.205   1.272   7.376  1.2957  1.2014  0.2287
  801SOL    HW2 4081   3.340   1.210   7.402  0.5407 -0.0273  1.2792
  802SOL     OW 4082   1.106   5.207   5.437 -0.2689 -0.0486 -0.6168
  802SOL    HW1 4083   1.180   5.266   5.424 -0.8883  1.1809  1.3000
  802SOL    HW2 4084   1.057   5.213   5.355 -0.4735  2.3672 -0.3689
  803SOL     OW 4085   4.528   7.508   7.572 -0.5256  0.0607 -0.4646
  803SOL    HW1 4086   4.526   7.550   7.657  2.4784 -0.5604 -0.0271
  803SOL    HW2 4087   4.499   7.575   7.511  0.8858  1.6869  0.6298
  804SOL     OW 4088   1.716   3.673   5.620  0.5022 -0.1154  0.5902
  804SOL    HW1 4089   1.776   3.747   5.610  0.7949 -0.6451 -1.8428
  804SOL    HW2 4090   1.662   3.675   5.541 -0.9147 -1.2407  1.5083
  805SOL     OW 4091   2.253   7.136   3.329  0.0377  0.1285 -0.3989
  805SOL    HW1 4092   2.343   7.140   3.297  0.0805  1.6887 -0.1050
  805SOL    HW2 4093   2.244   7.212   3.386 -1.0489 -0.7911  0.6922
  806SOL     OW 4094   1.993   7.576   8.866 -0.4720 -0.4125 -0.3771
  806SOL    HW1 4095   1.919   7.618   8.910  0.6377  0.1022  1.0158
  806SOL    HW2 4096   2.068   7.631   8.886  0.1775 -0.5021 -2.4374
  807SOL     OW 4097   5.088   0.421   1.084  0.0501 -0.0975 -0.1756
  807SOL    HW1 4098   5.179   0.431   1.056  0.0412  0.3096 -0.0731
  807SOL    HW2 4099   5.082   0.331   1.116  1.0643  0.6166  2.1351
  808SOL     OW 4100   3.400   6.846   3.183 -0.3426 -0.4505 -0.3721
  808SOL    HW1 4101   3.320   6.852   3.131 -0.4551  0.4771 -0.1007
  808SOL    HW2 4102   3.455   6.918   3.152 -1.0226  1.0673  1.8130
  809SOL     OW 4103   0.985   0.988   0.627 -0.0200 -0.2220 -1.2100
  809SOL    HW1 4104   0.966   1.077   0.599 -0.6726 -0.0374 -0.2183
  809SOL    HW2 4105   1.078   0.976   0.610  0.2840  0.9799 -0.4732
  810SOL     OW 4106   2.157   3.729   3.257  0.8439 -0.6005  0.2631
  810SOL    HW1 4107   2.134   3.803   3.313  1.7995 -0.9097  1.0774
  810SOL    HW2 4108   2.111   3.746   3.175  0.8521  0.7666  0.5300
  811SOL     OW 4109   6.505   0.274   3.240  0.5400 -0.4402  0.0224
  811SOL    HW1 4110   6.412   0.264   3.260  0.5301  0.1834  0.3120
  811SOL    HW2 4111   6.550   0.253   3.322  0.5801  0.5563  0.2702
  812SOL     OW 4112   8.896   5.092   5.440 -0.6687 -0.4682 -0.9309
  812SOL    HW1 4113   8.801   5.090   5.446 -0.8403  1.3424 -2.5386
  812SOL    HW2 4114   8.919   5.011   5.394 -1.3831 -1.0868 -0.2221
  813SOL     OW 4115   2.626   0.895   4.579  0.0463 -0.3575  0.0265
  813SOL    HW1 4116   2.668   0.831   4.636  0.3120  0.2382  0.5090
  813SOL    HW2 4117   2.620   0.975   4.633 -1.0479 -0.2227 -0.2721
  814SOL     OW 4118   3.377   2.176   6.780  0.1735  0.1789  0.2261
  814SOL    HW1 4119   3.402   2.132   6.698  2.2633  0.3599  0.7256
  814SOL    HW2 4120   3.290   2.142   6.801 -0.4486  0.2492 -2.1477
  815SOL     OW 4121   6.376   8.198   5.398  0.0262 -0.0958  0.6796
  815SOL    HW1 4122   6.359   8.170   5.308 -1.0133 -0.8597  1.1076
  815SOL    HW2 4123   6.422   8.282   5.389  0.9535 -0.7265 -0.5751
  816SOL     OW 4124   9.275   0.763   4.207  0.0148  0.0664  0.2406
  816SOL    HW1 4125   9.314   0.677   4.224  0.3756  0.1918  0.0568
  816SOL    HW2 4126   9.236   0.755   4.120  0.4730  0.2390  0.0188
  817SOL     OW 4127   6.676   5.834   4.658 -0.0005 -0.4270  0.5639
  817SOL    HW1 4128   6.658   5.924   4.685 -1.0546  0.0592 -1.6660
  817SOL    HW2 4129   6.636   5.780   4.726 -0.9295  0.7845  0.9907
  818SOL     OW 4130   5.548   8.908   4.671  0.0087  0.2307 -0.0191
  818SOL    HW1 4131   5.578   8.948   4.753 -1.1285  1.4704 -0.1886
  818SOL    HW2 4132   5.567   8.974   4.604  0.2266 -0.4650 -0.6505
  819SOL     OW 4133   1.682   0.838   8.457  0.1787  0.1616  0.0882
  819SOL    HW1 4134   1.777   0.838   8.445  0.4965 -0.5134  2.4186
  819SOL    HW2 4135   1.661   0.750   8.488 -0.9732  0.8108  1.2471
  820SOL     OW 4136   3.825   8.109   4.496  0.0688  0.1888 -0.1235
  820SOL    HW1 4137   3.899   8.110   4.435  0.2986  0.5068  0.1602
  820SOL    HW2 4138   3.782   8.193   4.482  0.3870  0.4521  0.4748
  821SOL     OW 4139   0.483   5.172   2.024 -0.0280  0.3254  0.0936
  821SOL    HW1 4140   0.459   5.175   1.931 -1.0571 -0.0809  0.3430
  821SOL    HW2 4141   0.402   5.193   2.070  0.2667 -0.3459  0.9294
  822SOL     OW 4142   8.379   0.937   3.755 -0.2408 -0.4958 -0.2025
  822SOL    HW1 4143   8.307   0.974   3.704 -0.6504  1.0617  1.4494
  822SOL    HW2 4144   8.343   0.857   3.794 -0.0391 -1.4855 -1.9882
  823SOL     OW 4145   6.729   9.160   2.709 -0.1213 -0.7352  0.1849
  823SOL    HW1 4146   6.787   9.094   2.670  0.8306  1.5595 -2.4267
  823SOL    HW2 4147   6.643   9.141   2.672  0.6335  0.9615 -2.5175
  824SOL     OW 4148   6.419   4.746   5.916 -0.3958 -0.3740 -0.1367
  824SOL    HW1 4149   6.461   4.769   5.999  1.5263  0.4789 -1.3053
  824SOL    HW2 4150   6.415   4.828   5.867 -3.2335 -0.5000 -0.1736
  825SOL     OW 4151   3.457   8.519   7.264 -0.0376 -0.5238  0.7432
  825SOL    HW1 4152   3.408   8.483   7.190  1.6228 -0.2810 -0.4991
  825SOL    HW2 4153   3.528   8.456   7.279 -0.5545 -0.7501  2.3737
  826SOL     OW 4154   5.591   9.158   5.482 -0.0490  0.1555  0.3101
  826SOL    HW1 4155   5.518   9.116   5.436 -0.3915  0.6243  0.4244
  826SOL    HW2 4156   5.668   9.106   5.457 -0.1262  0.8134 -1.3313
  827SOL     OW 4157   0.097   1.563   0.994  0.0376 -0.0076  0.0439
  827SOL    HW1 4158   0.133   1.646   0.962 -1.5144  0.6418 -0.0667
  827SOL    HW2 4159   0.098   1.505   0.918  1.0405 -0.0760  0.1002
  828SOL     OW 4160   6.789   3.396   3.118  0.1725 -0.2371 -0.1741
  828SOL    HW1 4161   6.755   3.332   3.181 -0.8452 -1.4072 -1.8590
  828SOL    HW2 4162   6.856   3.348   3.070  0.3949  0.4056 -0.5042
  829SOL     OW 4163   0.454   7.941   6.507 -0.1618 -0.3388 -0.0992
  829SOL    HW1 4164   0.402   7.922   6.429 -0.6066 -1.1974  0.3945
  829SOL    HW2 4165   0.488   8.029   6.493 -2.8908  0.7884  0.2015
  830SOL     OW 4166   7.081   8.480   0.781 -0.7944  0.1222  0.6105
  830SOL    HW1 4167   7.103   8.481   0.688 -0.2647 -0.2578  0.7325
  830SOL    HW2 4168   6.988   8.456   0.783 -0.5937 -0.7258  0.2150
  831SOL     OW 4169   7.289   2.016   0.122 -0.2123 -0.2313  0.1092
  831SOL    HW1 4170   7.350   1.990   0.192  0.4371 -0.5867 -0.5762
  831SOL    HW2 4171   7.322   2.101   0.092 -0.6624  0.0588  0.4299
  832SOL     OW 4172   2.919   3.137   3.652 -0.0490 -0.3862 -0.2753
  832SOL    HW1 4173   2.951   3.224   3.631  0.5176 -0.6729 -0.6236
  832SOL    HW2 4174   2.825   3.147   3.664 -0.0148  0.2259 -0.5428
  833SOL     OW 4175   5.405   4.170   7.624 -0.2115 -0.2918 -0.4373
  833SOL    HW1 4176   5.405   4.170   7.528  0.8771  0.1295 -0.4380
  833SOL    HW2 4177   5.362   4.088   7.647 -2.6412  0.6903 -1.2696
  834SOL     OW 4178   8.053   6.630   0.240  0.4897 -0.2786 -0.0352
  834SOL    HW1 4179   8.120   6.687   0.276 -0.3657  0.1301  0.9281
  834SOL    HW2 4180   8.057   6.551   0.294 -1.6130  0.8132  1.7690
  835SOL     OW 4181   4.915   1.713   4.185  0.0629 -0.4282  0.2695
  835SOL    HW1 4182   4.833   1.762   4.190 -0.0798 -0.5057 -1.0675
  835SOL    HW2 4183   4.924   1.691   4.092  0.0656 -3.0385  0.8672
  836SOL     OW 4184   7.542   7.682   8.104  0.3552  0.0556  0.3807
  836SOL    HW1 4185   7.560   7.762   8.055  1.9504  0.0354  0.9190
  836SOL    HW2 4186   7.604   7.618   8.070 -0.5281 -0.7986  0.3559
  837SOL     OW 4187   1.143   6.599   6.019 -0.4199 -0.0367 -0.2120
  837SOL    HW1 4188   1.167   6.615   5.928  0.1697 -0.8874 -0.2181
  837SOL    HW2 4189   1.106   6.511   6.019  2.9232 -1.5525  0.9290
  838SOL     OW 4190   7.696   5.741   4.579 -0.2596  0.7319 -0.1563
  838SOL    HW1 4191   7.757   5.675   4.611 -0.7070 -0.6480 -2.0979
  838SOL    HW2 4192   7.629   5.748   4.648  0.3117 -0.1117  0.4950
  839SOL     OW 4193   8.506   8.055   6.046 -0.0540  0.0811  0.1204
  839SOL    HW1 4194   8.559   8.051   5.967  0.0086 -0.7010  0.1981
  839SOL    HW2 4195   8.541   8.130   6.095  0.9934 -0.4578  0.1917
  840SOL     OW 4196   1.678   5.732   6.680 -0.2204 -0.4102  0.5215
  840SOL    HW1 4197   1.711   5.750   6.768  2.5641 -1.2013 -0.3058
  840SOL    HW2 4198   1.752   5.694   6.634 -1.4221  0.6345 -2.4033
  841SOL     OW 4199   1.301   2.004   4.411 -1.0463  0.3160  0.3775
  841SOL    HW1 4200   1.253   2.065   4.355 -0.0346  0.4051 -0.4196
  841SOL    HW2 4201   1.311   1.925   4.357  0.9923  0.8318 -0.0600
  842SOL     OW 4202   0.245   5.909   8.156  0.0791 -0.3119  0.1733
  842SOL    HW1 4203   0.168   5.922   8.101  0.4092  0.8841 -0.0306
  842SOL    HW2 4204   0.237   5.819   8.188 -1.5558 -0.0946  0.4111
  843SOL     OW 4205   2.824   2.787   1.700  0.1881  0.2319 -0.2732
  843SOL    HW1 4206   2.893   2.724   1.679  0.7360  0.9626 -0.6843
  843SOL    HW2 4207   2.767   2.740   1.761  1.3131 -0.2121  0.4481
  844SOL     OW 4208   5.460   8.967   1.600 -0.2764 -0.0032  0.0897
  844SOL    HW1 4209   5.406   8.981   1.522 -1.9456  0.5197  1.3000
  844SOL    HW2 4210   5.410   9.008   1.670  0.7449 -1.3214  1.6005
  845SOL     OW 4211   8.316   6.116   8.748  0.4052 -0.1459 -0.2442
  845SOL    HW1 4212   8.243   6.163   8.708 -0.4662 -0.9298  0.4160
  845SOL    HW2 4213   8.392   6.173   8.733 -0.9521  2.4776  2.3316
  846SOL     OW 4214   0.166   6.145   5.796  0.6126  0.0490  0.5340
  846SOL    HW1 4215   0.081   6.113   5.765  0.7705  1.4825 -1.4900
  846SOL    HW2 4216   0.200   6.075   5.851 -0.0188 -2.2990 -1.9895
  847SOL     OW 4217   3.020   7.516   0.036 -0.3121  0.0426  0.1201
  847SOL    HW1 4218   3.069   7.524   0.118  0.0558  0.4407 -0.1409
  847SOL    HW2 4219   3.022   7.422   0.016  0.7581  0.1181 -0.1478
  848SOL     OW 4220   0.137   7.342   8.851  0.3816 -0.5905 -0.5832
  848SOL    HW1 4221   0.102   7.260   8.886 -0.6575  0.7379  1.6337
  848SOL    HW2 4222   0.069   7.407   8.870  1.4826  0.9203 -1.6675
  849SOL     OW 4223   6.903   6.221   3.736  0.4373 -0.2395 -0.3429
  849SOL    HW1 4224   6.865   6.307   3.750 -0.3721 -0.5919 -0.3462
  849SOL    HW2 4225   6.901   6.180   3.823 -0.2648 -0.6857 -0.5639
  850SOL     OW 4226   5.282   6.210   8.728 -0.5884 -0.0471  0.2898
  850SOL    HW1 4227   5.372   6.237   8.706 -0.5641  0.4219  0.9553
  850SOL    HW2 4228   5.269   6.242   8.817 -1.9075  1.1324 -0.3076
  851SOL     OW 4229   1.672   5.414   7.215 -0.3662 -0.1010  0.4572
  851SOL    HW1 4230   1.576   5.412   7.214 -0.3942 -1.6217  2.3429
  851SOL    HW2 4231   1.693   5.474   7.287  0.0357 -2.4910  2.3956
  852SOL     OW 4232   0.046   0.143   0.996  0.0474 -0.2896 -0.2999
  852SOL    HW1 4233   0.053   0.238   1.004 -2.2703 -0.1274  0.1265
  852SOL    HW2 4234   0.105   0.109   1.063  0.4304  0.8591 -0.0474
  853SOL     OW 4235   6.733   2.558   0.197  0.0043  0.2012  0.4468
  853SOL    HW1 4236   6.755   2.651   0.205 -1.4457  0.5520  0.6518
  853SOL    HW2 4237   6.796   2.523   0.134  1.0298  1.1604  0.9362
  854SOL     OW 4238   1.226   6.835   6.289 -0.4862 -0.1420  0.4624
  854SOL    HW1 4239   1.200   6.830   6.198  0.3151  0.0347  0.2185
  854SOL    HW2 4240   1.280   6.915   6.294  2.6276 -2.1379  0.2770
  855SOL     OW 4241   4.413   0.117   8.478 -0.1990 -0.0476  0.1843
  855SOL    HW1 4242   4.323   0.135   8.453  0.4230  0.3963 -1.8625
  855SOL    HW2 4243   4.453   0.080   8.399  0.1726 -4.8773  2.5212
  856SOL     OW 4244   2.407   1.433   2.469  0.2029 -0.1931 -0.6360
  856SOL    HW1 4245   2.325   1.416   2.424 -0.7025  0.8124  0.6064
  856SOL    HW2 4246   2.464   1.472   2.403 -0.3457 -0.7971 -1.4692
  857SOL     OW 4247   6.543   5.878   8.503 -0.3890  0.2689  0.1299
  857SOL    HW1 4248   6.635   5.882   8.474 -0.9027 -2.6818 -2.1630
  857SOL    HW2 4249   6.503   5.957   8.467  1.0563  1.2099  0.5360
  858SOL     OW 4250   6.975   5.377   0.884 -0.2640  0.3772 -0.0202
  858SOL    HW1 4251   7.033   5.422   0.822  0.6457  0.1552  0.6645
  858SOL    HW2 4252   7.034   5.327   0.939 -1.1844 -0.6025  0.0807
  859SOL     OW 4253   6.180   4.319   0.156 -0.1939 -0.0495  0.1641
  859SOL    HW1 4254   6.155   4.412   0.153  1.5644  0.4558  0.6097
  859SOL    HW2 4255   6.136   4.280   0.081  2.4910  2.0189 -2.6159
  860SOL     OW 4256   8.496   2.746   1.917 -0.0653  0.2958  0.2021
  860SOL    HW1 4257   8.401   2.742   1.924 -0.1377  0.8185 -0.4946
  860SOL    HW2 4258   8.514   2.827   1.870  0.7746  0.7110  1.2120
  861SOL     OW 4259   0.968   2.849   6.584  0.5226 -0.7743  0.3801
  861SOL    HW1 4260   1.032   2.786   6.552 -1.1298 -1.5184 -1.5543
  861SOL    HW2 4261   0.971   2.921   6.521 -0.3387 -0.6760  0.4487
  862SOL     OW 4262   4.985   4.525   3.893 -0.2164 -0.1732  0.3159
  862SOL    HW1 4263   5.073   4.503   3.862 -0.2769  0.3915 -0.2658
  862SOL    HW2 4264   4.927   4.464   3.848 -0.0478 -1.1460  1.3779
  863SOL     OW 4265   1.401   6.970   0.369  0.2735 -0.3187 -0.1539
  863SOL    HW1 4266   1.431   6.879   0.371  0.7382 -0.1281  1.5223
  863SOL    HW2 4267   1.362   6.984   0.454  2.3597  1.7873  0.4948
  864SOL     OW 4268   2.565   2.290   5.877 -0.8372 -0.1001 -0.0514
  864SOL    HW1 4269   2.481   2.268   5.836 -0.7735 -0.1379 -0.1607
  864SOL    HW2 4270   2.590   2.373   5.837 -1.2312  0.3298  0.5917
  865SOL     OW 4271   9.170   2.797   0.211 -1.0251 -0.1367  0.6562
  865SOL    HW1 4272   9.230   2.735   0.169 -3.1918 -1.3000 -0.8001
  865SOL    HW2 4273   9.174   2.774   0.304  2.1087  0.9801  0.8498
  866SOL     OW 4274   2.661   0.607   2.473  0.2325  0.1827  0.2085
  866SOL    HW1 4275   2.590   0.590   2.535  2.5379 -0.0647  2.8939
  866SOL    HW2 4276   2.661   0.702   2.462 -0.1705  0.2313  0.6158
  867SOL     OW 4277   7.384   6.094   7.469 -0.7092  0.6266  0.0585
  867SOL    HW1 4278   7.403   6.187   7.456  0.1296  0.6435  1.3435
  867SOL    HW2 4279   7.468   6.055   7.495 -1.6741  0.0829  2.5263
  868SOL     OW 4280   8.842   5.748   2.637 -0.4957 -0.4362 -0.1410
  868SOL    HW1 4281   8.893   5.715   2.563  0.6314  0.8103  0.0504
  868SOL    HW2 4282   8.824   5.839   2.614 -1.8204 -0.5934  0.2431
  869SOL     OW 4283   2.824   5.782   7.547  0.3084 -0.0130 -0.5220
  869SOL    HW1 4284   2.753   5.840   7.520 -0.5158 -0.5681  0.4405
  869SOL    HW2 4285   2.902   5.837   7.542 -0.0414  0.3733 -2.3817
  870SOL     OW 4286   8.634   6.606   2.263 -0.1048  0.3509 -0.1636
  870SOL    HW1 4287   8.566   6.602   2.196 -0.3327  0.2723  0.0707
  870SOL    HW2 4288   8.671   6.694   2.255 -0.3102  0.4323 -0.2128
  871SOL     OW 4289   0.652   8.775   1.216  0.2495 -0.1320  0.2202
  871SOL    HW1 4290   0.704   8.744   1.142 -0.4599 -1.2248  0.1533
  871SOL    HW2 4291   0.589   8.836   1.177  1.4032  1.1123  0.2901
  872SOL     OW 4292   3.990   7.587   0.548 -0.3686  0.0476 -0.2735
  872SOL    HW1 4293   3.925   7.656   0.557  2.3122  2.6905 -0.6140
  872SOL    HW2 4294   4.007   7.581   0.454 -0.2276 -0.7658 -0.2067
  873SOL     OW 4295   5.686   8.968   4.911 -0.5026 -0.4111  0.1692
  873SOL    HW1 4296   5.663   8.920   4.990  0.1572 -0.9549  0.0390
  873SOL    HW2 4297   5.782   8.967   4.909 -0.4607  1.7243  0.6437
  874SOL     OW 4298   6.942   8.769   9.188 -0.4390 -0.0812 -0.4453
  874SOL    HW1 4299   6.957   8.864   9.190  1.3360 -0.3799  0.5855
  874SOL    HW2 4300   6.994   8.734   9.260 -2.0532 -1.7289 -0.0420
  875SOL     OW 4301   8.534   7.855   1.461  0.5830  0.0912  0.3218
  875SOL    HW1 4302   8.494   7.934   1.424  1.9638  0.0347 -1.3646
  875SOL    HW2 4303   8.582   7.887   1.538  0.9565  0.8656 -0.2256
  876SOL     OW 4304   7.821   2.533   2.665 -0.1426 -0.3150 -0.3940
  876SOL    HW1 4305   7.766   2.599   2.708 -0.2458 -0.6078 -0.0799
  876SOL    HW2 4306   7.769   2.453   2.669  0.7049 -0.8122  0.7317
  877SOL     OW 4307   1.007   2.483   2.122  0.4407 -0.0709  0.0057
  877SOL    HW1 4308   0.960   2.402   2.142 -0.2848  0.2587 -0.3377
  877SOL    HW2 4309   0.938   2.550   2.117  1.1981  0.8922  1.9304
  878SOL     OW 4310   8.539   5.400   8.573 -0.2234 -0.0723 -0.3508
  878SOL    HW1 4311   8.447   5.379   8.588 -0.3073  0.7490  0.3025
  878SOL    HW2 4312   8.540   5.495   8.560  0.3927 -0.2194 -1.4361
  879SOL     OW 4313   5.993   1.153   3.395 -0.3034 -0.2648 -0.0381
  879SOL    HW1 4314   6.065   1.215   3.411 -1.1175  0.0551  2.6927
  879SOL    HW2 4315   5.915   1.209   3.386 -0.3422 -0.6455 -2.4192
  880SOL     OW 4316   2.035   1.983   6.639  0.7232  0.5048  0.2775
  880SOL    HW1 4317   2.034   1.950   6.729 -0.6812 -0.3944 -0.0328
  880SOL    HW2 4318   2.090   1.921   6.591  1.4606  0.9760  0.5150
  881SOL     OW 4319   4.057   5.801   2.477 -0.4947 -0.2687  0.4662
  881SOL    HW1 4320   4.034   5.788   2.385 -1.2180 -0.2253  0.6395
  881SOL    HW2 4321   3.974   5.814   2.522 -0.0386  1.3673  0.8764
  882SOL     OW 4322   0.124   6.366   4.680  0.2745  0.0794 -0.2056
  882SOL    HW1 4323   0.195   6.317   4.639  0.5202 -1.8126  2.3577
  882SOL    HW2 4324   0.049   6.307   4.676  0.3085 -0.1432  2.0112
  883SOL     OW 4325   6.500   0.029   8.827 -0.2347  0.7059 -0.1984
  883SOL    HW1 4326   6.567   0.069   8.772  0.7325  1.8476  1.7723
  883SOL    HW2 4327   6.431   0.003   8.766  2.6615 -2.0105 -2.5032
  884SOL     OW 4328   1.623   1.839   5.227  0.0113 -0.0587 -0.4160
  884SOL    HW1 4329   1.593   1.875   5.144 -2.0365  1.0248  0.7444
  884SOL    HW2 4330   1.703   1.887   5.247  0.8499 -0.7587 -2.0400
  885SOL     OW 4331   3.989   5.899   0.153  0.1605  0.2824  0.0924
  885SOL    HW1 4332   4.009   5.887   0.246  0.1312  1.4280  0.2634
  885SOL    HW2 4333   4.062   5.859   0.107 -0.0597 -0.7144  0.6002
  886SOL     OW 4334   2.114   1.102   5.071 -0.1576  0.4833 -0.5966
  886SOL    HW1 4335   2.031   1.144   5.094  0.5817  1.3649  0.4718
  886SOL    HW2 4336   2.153   1.160   5.005  0.5698  1.1388  0.4150
  887SOL     OW 4337   5.532   4.329   9.183  0.5465 -0.0053 -0.2964
  887SOL    HW1 4338   5.580   4.409   9.164 -0.1759  0.2055 -1.2988
  887SOL    HW2 4339   5.487   4.346   9.265  0.5157  0.5633 -0.4313
  888SOL     OW 4340   7.473   5.705   8.225 -0.4056  1.0478 -0.0892
  888SOL    HW1 4341   7.539   5.684   8.159  0.0945  1.6690  0.2069
  888SOL    HW2 4342   7.513   5.679   8.308 -2.4871 -3.3095 -0.2894
  889SOL     OW 4343   3.809   3.506   7.171  0.1666  0.4184 -0.7616
  889SOL    HW1 4344   3.714   3.500   7.161  0.1551 -3.4276  0.8821
  889SOL    HW2 4345   3.820   3.557   7.251 -0.6266 -1.1977  0.4138
  890SOL     OW 4346   1.361   8.761   4.085 -0.4384  0.0014  0.5500
  890SOL    HW1 4347   1.269   8.738   4.073 -0.2355 -0.2682 -0.5655
  890SOL    HW2 4348   1.401   8.745   4.000  0.1178  2.6375  0.2712
  891SOL     OW 4349   1.107   9.160   2.639  0.1605 -0.1713  0.1842
  891SOL    HW1 4350   1.096   9.231   2.703  0.4631  0.6738 -0.6881
  891SOL    HW2 4351   1.199   9.166   2.613 -0.7361  1.6244 -2.7970
  892SOL     OW 4352   9.128   0.779   3.936  0.2275  0.2392 -0.5683
  892SOL    HW1 4353   9.092   0.699   3.897  1.4016  0.0869 -1.3481
  892SOL    HW2 4354   9.084   0.850   3.890  2.1651  0.0754 -2.7633
  893SOL     OW 4355   8.472   3.507   3.030  0.4289  0.0019  0.6321
  893SOL    HW1 4356   8.397   3.502   3.089 -0.6360 -1.6819 -0.7766
  893SOL    HW2 4357   8.478   3.419   2.992  0.9424  1.0619 -1.8658
  894SOL     OW 4358   8.926   0.686   7.383  0.1290 -0.6656 -0.4787
  894SOL    HW1 4359   8.885   0.771   7.400  0.2927 -0.4862 -0.9641
  894SOL    HW2 4360   8.861   0.636   7.335  0.3943 -0.4611 -1.0527
  895SOL     OW 4361   3.649   3.993   8.535  0.0885  0.2424  0.2578
  895SOL    HW1 4362   3.659   4.078   8.492 -0.4582  0.1843  0.0065
  895SOL    HW2 4363   3.629   3.932   8.464 -1.0682  0.1928  0.6199
  896SOL     OW 4364   3.549   2.697   8.546  0.3649  0.0882  0.5871
  896SOL    HW1 4365   3.552   2.792   8.548  0.2669  0.0832  2.7832
  896SOL    HW2 4366   3.559   2.674   8.454  0.1862  2.2195  0.0123
  897SOL     OW 4367   7.460   2.699   8.657  0.3966  0.7291 -0.3915
  897SOL    HW1 4368   7.422   2.625   8.705 -0.6401  1.8193  0.5003
  897SOL    HW2 4369   7.434   2.685   8.566  4.3668 -2.6487 -1.1791
  898SOL     OW 4370   2.125   8.277   8.762  0.0486  0.0304 -0.0901
  898SOL    HW1 4371   2.141   8.243   8.850 -0.0885  0.4087  0.0806
  898SOL    HW2 4372   2.047   8.332   8.771  1.2866  1.8169 -0.0066
  899SOL     OW 4373   6.570   6.727   4.773 -0.3906  0.0357 -0.1480
  899SOL    HW1 4374   6.497   6.789   4.779 -0.2584  0.0542  1.4766
  899SOL    HW2 4375   6.639   6.766   4.827 -0.5972 -1.8805  1.5688
  900SOL     OW 4376   3.794   3.785   7.832  0.2015  0.2010 -0.0500
  900SOL    HW1 4377   3.820   3.872   7.862  0.4430  0.1460 -0.0983
  900SOL    HW2 4378   3.816   3.784   7.739 -0.3515  0.2978 -0.1852
  901SOL     OW 4379   9.215   3.472   4.000  0.3494 -0.7681  0.2483
  901SOL    HW1 4380   9.279   3.416   3.955  0.0146 -3.0800  2.5072
  901SOL    HW2 4381   9.131   3.429   3.984  0.2155 -1.6166  2.9364
  902SOL     OW 4382   6.739   2.562   1.536  0.3327 -0.2228 -0.3383
  902SOL    HW1 4383   6.766   2.487   1.589 -3.2919 -0.9879  0.5900
  902SOL    HW2 4384   6.741   2.636   1.598  1.1661 -0.1019 -0.5097
  903SOL     OW 4385   3.787   3.169   1.757  0.3322  0.5597  0.8625
  903SOL    HW1 4386   3.736   3.213   1.825 -0.9607 -1.6154  1.3640
  903SOL    HW2 4387   3.722   3.125   1.702  1.4983  0.3365 -0.3602
  904SOL     OW 4388   8.772   4.133   7.626 -0.0916  0.1715  0.4640
  904SOL    HW1 4389   8.696   4.191   7.620 -1.2424 -1.4397 -1.2353
  904SOL    HW2 4390   8.828   4.160   7.553 -1.1278 -1.5055 -0.9805
  905SOL     OW 4391   7.372   4.572   0.378  0.3318 -0.2455  0.0962
  905SOL    HW1 4392   7.331   4.562   0.464  0.8160 -0.2136  0.3315
  905SOL    HW2 4393   7.317   4.638   0.333  0.0727 -0.2716  0.3739
  906SOL     OW 4394   3.774   8.743   0.859  0.7975 -0.5326 -0.3097
  906SOL    HW1 4395   3.773   8.730   0.765 -1.6923 -0.2830 -0.3694
  906SOL    HW2 4396   3.795   8.835   0.871  1.2486 -0.5972 -0.6260
  907SOL     OW 4397   4.485   1.030   2.156  0.1409 -1.0108 -0.4693
  907SOL    HW1 4398   4.492   1.125   2.167 -1.5465 -0.9630  0.3949
  907SOL    HW2 4399   4.530   0.993   2.232 -1.3040 -0.8477  0.4873
  908SOL     OW 4400   7.195   7.103   0.673  0.4530  0.2260 -0.4694
  908SOL    HW1 4401   7.192   7.009   0.691  0.7388  0.7933  2.8913
  908SOL    HW2 4402   7.112   7.121   0.629  0.3112 -1.5415 -0.9876
  909SOL     OW 4403   0.011   1.081   0.898  0.2542 -0.1108 -0.3139
  909SOL    HW1 4404  -0.060   1.047   0.842  0.5342 -1.1018 -0.0782
  909SOL    HW2 4405   0.075   1.116   0.836 -0.4849  0.8926 -0.5253
  910SOL     OW 4406   2.302   7.812   5.960 -0.3980 -0.1011  0.6044
  910SOL    HW1 4407   2.391   7.778   5.962 -0.6459 -0.7668  0.2937
  910SOL    HW2 4408   2.265   7.779   5.879 -1.2799 -0.7100  1.2429
  911SOL     OW 4409   5.123   5.179   7.875 -0.0476 -0.1894  0.9191
  911SOL    HW1 4410   5.051   5.118   7.858 -0.4936  0.8188 -0.9603
  911SOL    HW2 4411   5.097   5.259   7.830  0.7839  1.2380  2.8904
  912SOL     OW 4412   4.908   8.193   5.200 -0.0019 -0.5215  0.2245
  912SOL    HW1 4413   4.867   8.279   5.196  0.5520 -0.3196 -1.8253
  912SOL    HW2 4414   4.836   8.132   5.214 -0.5226  0.1851  0.6369
  913SOL     OW 4415   5.995   4.670   9.060  0.1610 -0.4135  0.5785
  913SOL    HW1 4416   6.056   4.679   8.987 -0.5664 -0.9373 -0.1056
  913SOL    HW2 4417   5.912   4.703   9.026 -0.2532 -0.9416  1.0744
  914SOL     OW 4418   8.717   9.033   9.008 -0.2164 -0.3000  0.0066
  914SOL    HW1 4419   8.792   9.089   9.029 -0.2193  0.4222 -1.8618
  914SOL    HW2 4420   8.659   9.042   9.084  0.7508  0.5626  0.6613
  915SOL     OW 4421   8.471   6.181   8.229 -0.1522  0.0623 -0.0862
  915SOL    HW1 4422   8.399   6.240   8.209 -1.0617 -1.2243 -0.6020
  915SOL    HW2 4423   8.529   6.187   8.153 -0.2497  0.2639 -0.1457
  916SOL     OW 4424   2.190   0.674   0.571 -0.2124 -0.0700  0.3646
  916SOL    HW1 4425   2.269   0.721   0.597 -0.2301  1.0143 -1.4502
  916SOL    HW2 4426   2.122   0.705   0.632  0.0661  1.3220 -0.0183
  917SOL     OW 4427   0.579   2.322   4.873  0.4455  0.5174  0.0830
  917SOL    HW1 4428   0.551   2.231   4.869  0.5279  0.4875  0.2267
  917SOL    HW2 4429   0.580   2.344   4.966 -2.3417  1.5132 -0.0656
  918SOL     OW 4430   8.108   3.110   0.323 -0.2537 -0.8635 -0.0072
  918SOL    HW1 4431   8.104   3.037   0.261 -1.2732  0.4193 -1.4833
  918SOL    HW2 4432   8.019   3.118   0.357 -0.0557 -0.5447  0.4487
  919SOL     OW 4433   1.274   1.274   0.838 -0.1562 -0.4262  0.0001
  919SOL    HW1 4434   1.201   1.244   0.893 -1.3380  2.0387 -0.1566
  919SOL    HW2 4435   1.232   1.327   0.770  1.8261  1.4158  0.1781
  920SOL     OW 4436   9.144   0.206   6.621 -0.7991  0.4940 -0.3086
  920SOL    HW1 4437   9.062   0.243   6.587 -1.1428  0.1466  0.1348
  920SOL    HW2 4438   9.130   0.112   6.618 -0.2910  0.4252 -0.5261
  921SOL     OW 4439   5.964   8.730   5.027 -0.5080 -0.7800  0.0160
  921SOL    HW1 4440   5.893   8.723   5.091 -0.2626 -2.1308  0.1587
  921SOL    HW2 4441   6.025   8.661   5.052  0.4966 -0.1141 -0.5649
  922SOL     OW 4442   4.540   1.274   2.704 -0.0662  0.3155  0.3036
  922SOL    HW1 4443   4.550   1.225   2.786  3.6523 -1.6662 -1.2057
  922SOL    HW2 4444   4.616   1.333   2.703 -0.2970  0.5843 -1.5384
  923SOL     OW 4445   3.176   5.527   7.437  0.5453 -0.1111 -0.3315
  923SOL    HW1 4446   3.221   5.455   7.393  0.0565 -1.5528  1.4944
  923SOL    HW2 4447   3.100   5.487   7.479 -0.0923  1.5712  0.1633
  924SOL     OW 4448   1.945   4.717   5.906 -0.0090  0.6164 -0.3732
  924SOL    HW1 4449   2.024   4.677   5.944 -1.2682  1.4802  3.3281
  924SOL    HW2 4450   1.976   4.799   5.869  1.0015  0.5447  0.2710
  925SOL     OW 4451   2.164   5.888   0.433  0.5376  0.0432 -0.4099
  925SOL    HW1 4452   2.162   5.838   0.351 -1.0337 -1.2340  0.3673
  925SOL    HW2 4453   2.224   5.839   0.489 -0.8731 -0.9235  0.2941
  926SOL     OW 4454   5.503   2.334   3.810 -0.6281  0.7693 -0.2087
  926SOL    HW1 4455   5.593   2.352   3.837 -1.3622  1.4716  1.8210
  926SOL    HW2 4456   5.475   2.262   3.865 -1.6172  1.1438 -0.2188
  927SOL     OW 4457   0.120   5.466   6.902 -0.3984 -0.5702  0.5731
  927SOL    HW1 4458   0.135   5.403   6.973  1.6260  0.7134  1.3186
  927SOL    HW2 4459   0.167   5.429   6.827 -1.4863 -1.2896  0.2297
  928SOL     OW 4460   7.035   2.074   7.942 -0.1307  0.1157 -0.9660
  928SOL    HW1 4461   7.015   2.000   8.000 -2.4704  0.8491 -0.7711
  928SOL    HW2 4462   6.992   2.052   7.860 -1.8903  1.7971 -0.5179
  929SOL     OW 4463   6.107   8.958   3.305 -0.3207  0.3489  0.0497
  929SOL    HW1 4464   6.054   8.905   3.365  0.6575 -0.8527 -0.1195
  929SOL    HW2 4465   6.122   8.901   3.229 -0.1290  1.2475 -0.6004
  930SOL     OW 4466   6.863   2.068   0.502  0.5948 -0.3289 -0.1979
  930SOL    HW1 4467   6.916   2.004   0.455  1.4534 -1.2123  1.9323
  930SOL    HW2 4468   6.925   2.114   0.558 -0.0462  2.2484 -1.5269
  931SOL     OW 4469   1.888   6.563   3.218  0.5514  0.2716  0.4204
  931SOL    HW1 4470   1.904   6.468   3.219  0.5286  0.2376 -1.0154
  931SOL    HW2 4471   1.793   6.571   3.228  0.6992  0.2171  2.0692
  932SOL     OW 4472   1.963   4.301   3.111 -0.2623 -0.7415  0.0470
  932SOL    HW1 4473   1.912   4.284   3.191 -0.5974  0.2968  0.0527
  932SOL    HW2 4474   1.997   4.215   3.087 -2.0436 -1.4680  0.0232
  933SOL     OW 4475   2.888   1.544   8.572 -0.0467  0.5930 -0.2319
  933SOL    HW1 4476   2.929   1.491   8.640  0.8345  1.1033 -0.3546
  933SOL    HW2 4477   2.805   1.572   8.609  0.0327  0.1374  0.2935
  934SOL     OW 4478   1.244   4.184   6.734  0.3246  0.2412 -0.3229
  934SOL    HW1 4479   1.255   4.191   6.829 -2.0203  0.4765 -0.0349
  934SOL    HW2 4480   1.182   4.111   6.722  0.4950  0.2983 -1.6598
  935SOL     OW 4481   6.145   2.513   5.339  0.4476  0.1368  0.2028
  935SOL    HW1 4482   6.073   2.574   5.327  1.3035  1.1536  0.1480
  935SOL    HW2 4483   6.123   2.466   5.420 -0.3787  0.2694  0.0630
  936SOL     OW 4484   4.169   3.643   7.210 -0.3029  0.3416 -0.1813
  936SOL    HW1 4485   4.258   3.631   7.178 -0.6074  2.2035 -1.8263
  936SOL    HW2 4486   4.177   3.636   7.305  0.9668 -3.1054 -0.4756
  937SOL     OW 4487   5.680   2.619   8.205 -0.3469  0.3453  0.5071
  937SOL    HW1 4488   5.623   2.678   8.155  1.6342  1.6287 -0.3184
  937SOL    HW2 4489   5.682   2.656   8.293  0.5576  1.3028  0.0980
  938SOL     OW 4490   3.439   8.307   0.209  0.1652  0.3282 -0.0317
  938SOL    HW1 4491   3.525   8.308   0.165  1.3600 -1.8259  2.1755
  938SOL    HW2 4492   3.417   8.400   0.219  2.3602  0.9246 -0.3940
  939SOL     OW 4493   7.368   1.813   7.996  0.4895  0.1304 -0.3360
  939SOL    HW1 4494   7.371   1.726   7.956  1.7947 -0.2958  0.6429
  939SOL    HW2 4495   7.451   1.819   8.044 -1.2322  0.4514  2.6508
  940SOL     OW 4496   8.562   3.397   5.031  0.2885 -0.2908 -0.5077
  940SOL    HW1 4497   8.604   3.311   5.043  0.7080  0.0202  0.3220
  940SOL    HW2 4498   8.469   3.380   5.047  0.4306 -0.5083  0.1307
  941SOL     OW 4499   6.623   2.186   6.340 -0.5805 -0.1463  0.2581
  941SOL    HW1 4500   6.572   2.130   6.280 -0.3329 -0.1886  0.0861
  941SOL    HW2 4501   6.707   2.197   6.296 -0.0373 -0.9931  1.0548
  942SOL     OW 4502   8.376   4.019   7.997  0.1299 -0.1357 -0.5123
  942SOL    HW1 4503   8.330   3.937   8.018 -0.5125  0.3127 -0.1713
  942SOL    HW2 4504   8.434   3.995   7.925 -1.3588 -0.4738 -1.6154
  943SOL     OW 4505   4.799   3.548   3.080  0.7401  0.6632 -0.0223
  943SOL    HW1 4506   4.721   3.501   3.109  1.1860  0.5076  0.9364
  943SOL    HW2 4507   4.862   3.535   3.151  2.5572 -1.4583 -1.9594
  944SOL     OW 4508   3.183   6.193   1.967  0.4970 -0.4270 -0.0173
  944SOL    HW1 4509   3.115   6.200   2.034 -0.4328  1.6459 -1.1538
  944SOL    HW2 4510   3.136   6.168   1.888  1.4805 -2.0170 -0.1171
  945SOL     OW 4511   8.139   6.135   0.662 -0.1884 -0.0375  0.6881
  945SOL    HW1 4512   8.058   6.167   0.700 -1.1907 -0.0994 -1.3061
  945SOL    HW2 4513   8.199   6.208   0.667 -0.5883  0.2381  1.5333
  946SOL     OW 4514   6.334   8.191   3.529  0.0175  0.2514 -0.0987
  946SOL    HW1 4515   6.266   8.209   3.464  0.0502 -0.7664 -0.4138
  946SOL    HW2 4516   6.310   8.106   3.566  0.7159  0.2255  0.3044
  947SOL     OW 4517   0.485   8.164   9.237 -0.1128  0.2548  0.3918
  947SOL    HW1 4518   0.513   8.073   9.240  1.3319  0.6694  0.3356
  947SOL    HW2 4519   0.407   8.168   9.292 -1.0245 -1.2830 -0.7774
  948SOL     OW 4520   5.552   4.501   5.142  0.0102  0.1143  0.5264
  948SOL    HW1 4521   5.507   4.506   5.227 -0.1869 -0.0015  0.4284
  948SOL    HW2 4522   5.624   4.563   5.150 -1.4380  1.8977 -0.0909
  949SOL     OW 4523   0.487   3.198   8.294  0.1157 -0.2976 -0.0828
  949SOL    HW1 4524   0.570   3.172   8.255  0.0275  0.2823 -0.6554
  949SOL    HW2 4525   0.441   3.245   8.224  0.1732  1.1926  0.8694
  950SOL     OW 4526   2.037   3.028   2.325 -0.1377 -0.4566  0.7089
  950SOL    HW1 4527   2.113   2.969   2.329 -0.2969 -0.9258 -2.4780
  950SOL    HW2 4528   2.076   3.116   2.319  0.1499 -0.6559 -0.3690
  951SOL     OW 4529   9.043   6.709   5.664  0.2200 -0.2257  0.2348
  951SOL    HW1 4530   9.067   6.640   5.727 -1.2702  0.4109  1.5424
  951SOL    HW2 4531   9.064   6.791   5.708 -2.9357  0.3141  0.9054
  952SOL     OW 4532   2.148   5.225   3.497  0.2145 -0.7412 -0.6991
  952SOL    HW1 4533   2.096   5.296   3.459 -1.7365 -1.8388 -0.1842
  952SOL    HW2 4534   2.204   5.195   3.425 -0.7577 -0.3227 -1.6514
  953SOL     OW 4535   3.502   6.579   6.896 -0.5308  0.0263  0.1244
  953SOL    HW1 4536   3.451   6.548   6.821  0.7952  3.0672 -2.1274
  953SOL    HW2 4537   3.538   6.663   6.869  1.8767  0.1828  3.3521
  954SOL     OW 4538   0.507   4.452   6.134 -0.2867  0.1027  0.3649
  954SOL    HW1 4539   0.564   4.417   6.066  0.3203  0.5089  0.6567
  954SOL    HW2 4540   0.458   4.522   6.090 -1.9429 -1.5060 -0.3719
  955SOL     OW 4541   2.929   0.452   0.397 -0.0706 -0.1311  0.3848
  955SOL    HW1 4542   2.851   0.507   0.401  0.6857  0.9804 -0.0789
  955SOL    HW2 4543   2.993   0.496   0.453  0.8418 -0.0344 -0.7106
  956SOL     OW 4544   7.498   4.025   6.774 -0.5007  0.0555 -0.3927
  956SOL    HW1 4545   7.492   3.955   6.708  0.4556  0.8924 -1.3825
  956SOL    HW2 4546   7.414   4.071   6.766 -0.6695 -0.2675 -0.5399
  957SOL     OW 4547   5.360   0.155   4.986  0.3800 -0.5534 -0.1211
  957SOL    HW1 4548   5.376   0.234   4.935  0.1146 -0.5982 -0.2728
  957SOL    HW2 4549   5.265   0.148   4.990  0.3976 -0.3249  0.7264
  958SOL     OW 4550   5.605   7.932   1.047  0.6837  0.1605  0.3406
  958SOL    HW1 4551   5.594   8.026   1.060  1.0941  0.1452  0.7822
  958SOL    HW2 4552   5.541   7.892   1.105  0.7437  0.1548  0.4021
  959SOL     OW 4553   5.190   2.239   9.257 -0.1502 -0.1445 -0.1297
  959SOL    HW1 4554   5.197   2.145   9.277  0.7114 -0.2251 -0.7398
  959SOL    HW2 4555   5.194   2.282   9.342  2.7356 -0.5077 -0.0124
  960SOL     OW 4556   8.274   7.855   4.834  0.7956  0.4844  0.0467
  960SOL    HW1 4557   8.241   7.817   4.916  0.6382  1.7886  0.5983
  960SOL    HW2 4558   8.195   7.887   4.790  0.6397 -1.9335 -1.5523
  961SOL     OW 4559   1.081   6.249   3.264  0.4534  0.3877 -0.5927
  961SOL    HW1 4560   1.007   6.194   3.237 -0.6568  1.9889 -0.8580
  961SOL    HW2 4561   1.158   6.195   3.247 -0.6505 -1.2985 -0.3325
  962SOL     OW 4562   9.009   7.332   6.003  0.3012  0.1024 -0.1801
  962SOL    HW1 4563   8.916   7.353   5.991  0.0370 -0.7245  0.3504
  962SOL    HW2 4564   9.010   7.237   6.016  1.4444 -0.2053 -2.3709
  963SOL     OW 4565   7.722   1.882   3.681 -0.5533  0.6979 -0.3101
  963SOL    HW1 4566   7.741   1.798   3.640 -0.7248  0.1443  0.7168
  963SOL    HW2 4567   7.691   1.859   3.769 -0.9836  1.8140 -0.1627
  964SOL     OW 4568   1.773   8.856   2.301  0.0742  0.1744 -0.4168
  964SOL    HW1 4569   1.839   8.897   2.245  0.7155  0.3668  0.4701
  964SOL    HW2 4570   1.787   8.762   2.290 -0.5948  0.1885 -1.5011
  965SOL     OW 4571   6.339   4.496   6.025  0.7043 -0.4936 -0.1882
  965SOL    HW1 4572   6.363   4.588   6.018  0.2147 -0.1685  2.1302
  965SOL    HW2 4573   6.255   4.497   6.070  1.0782 -2.1152  0.5630
  966SOL     OW 4574   1.321   8.241   0.534 -0.3576 -0.2564 -0.3609
  966SOL    HW1 4575   1.325   8.221   0.441 -0.1533  0.5699 -0.5315
  966SOL    HW2 4576   1.250   8.305   0.541 -0.4796 -0.4405  0.0699
  967SOL     OW 4577   6.847   6.871   7.929 -0.4929 -0.7067 -0.1431
  967SOL    HW1 4578   6.799   6.954   7.918  0.6333  0.0556  0.5562
  967SOL    HW2 4579   6.834   6.825   7.846  0.0291  0.7897 -1.0949
  968SOL     OW 4580   5.549   0.179   9.076  0.0507  0.1914 -0.4435
  968SOL    HW1 4581   5.619   0.244   9.065 -0.6660  1.0484 -0.0677
  968SOL    HW2 4582   5.468   0.230   9.064 -0.5379 -0.4604  0.7482
  969SOL     OW 4583   0.033   0.515   0.217 -0.2090 -0.1708 -0.0790
  969SOL    HW1 4584   0.050   0.435   0.168  0.1310 -0.5859  0.7016
  969SOL    HW2 4585  -0.029   0.488   0.285  0.0998  0.1763  0.3401
  970SOL     OW 4586   0.941   0.394   8.329 -0.2969  0.0764  0.4360
  970SOL    HW1 4587   0.985   0.336   8.266  0.6392  1.6309 -0.3700
  970SOL    HW2 4588   1.010   0.453   8.359 -1.0668  0.2691  1.8528
  971SOL     OW 4589   7.237   1.827   4.708  0.7075  0.3365  0.3912
  971SOL    HW1 4590   7.218   1.733   4.710  0.1198  0.4513  0.5323
  971SOL    HW2 4591   7.170   1.864   4.650  0.8137  0.6875  0.4873
  972SOL     OW 4592   8.673   5.205   0.966 -0.1714  0.3266  0.3950
  972SOL    HW1 4593   8.736   5.243   1.028 -1.1045 -1.0526  2.2572
  972SOL    HW2 4594   8.591   5.199   1.016 -1.0986 -0.3045 -1.1683
  973SOL     OW 4595   0.010   1.025   7.922 -0.8654 -0.2096 -0.0121
  973SOL    HW1 4596   0.004   0.964   7.995  2.2747 -0.1445  0.3551
  973SOL    HW2 4597   0.035   0.971   7.847 -3.3515 -0.1607 -0.9457
  974SOL     OW 4598   4.947   7.919   6.504  0.1833  0.0116  0.5084
  974SOL    HW1 4599   4.989   7.842   6.541  0.9295  0.3657  0.4046
  974SOL    HW2 4600   4.923   7.972   6.580  1.6052  0.6813  0.4981
  975SOL     OW 4601   2.435   4.620   6.077  0.1114 -1.0331  0.3815
  975SOL    HW1 4602   2.451   4.617   5.983 -0.7146  1.0217  0.1563
  975SOL    HW2 4603   2.522   4.611   6.116  0.6657 -0.1073 -0.6098
  976SOL     OW 4604   1.721   9.031   9.246 -0.0891  0.4443  0.2027
  976SOL    HW1 4605   1.730   9.083   9.326 -0.8984  0.7913  0.0678
  976SOL    HW2 4606   1.637   8.986   9.256 -1.2949  2.2688 -1.4698
  977SOL     OW 4607   8.629   1.905   4.671  0.2453 -0.3865  0.4012
  977SOL    HW1 4608   8.608   1.972   4.736  0.3292 -1.7184  1.8352
  977SOL    HW2 4609   8.545   1.880   4.634  0.1357 -0.0369  0.4119
  978SOL     OW 4610   2.736   5.687   5.982 -0.1794 -0.0976 -0.7061
  978SOL    HW1 4611   2.726   5.780   6.001  2.3463 -0.3031  2.0047
  978SOL    HW2 4612   2.659   5.645   6.020  0.1687  0.5880  0.7996
  979SOL     OW 4613   9.092   0.489   2.141 -0.0000 -0.3929  0.0579
  979SOL    HW1 4614   9.003   0.525   2.135  0.2575  0.2098 -0.1775
  979SOL    HW2 4615   9.092   0.438   2.222 -0.5434 -0.3364  0.0946
  980SOL     OW 4616   8.984   7.387   8.913 -0.3009  0.2791  0.1465
  980SOL    HW1 4617   9.047   7.338   8.859 -0.8432 -0.4057  0.1295
  980SOL    HW2 4618   8.914   7.324   8.932 -1.2778  1.1958 -0.3249
  981SOL     OW 4619   5.393   1.825   7.303  0.4484 -0.6998 -0.2526
  981SOL    HW1 4620   5.435   1.768   7.367 -1.5324 -0.4204  1.3185
  981SOL    HW2 4621   5.310   1.783   7.283 -0.5618  1.0767  0.1146
  982SOL     OW 4622   5.444   5.583   9.206 -0.2734 -0.3500 -0.4130
  982SOL    HW1 4623   5.432   5.644   9.133 -2.2397 -1.8443 -1.4122
  982SOL    HW2 4624   5.367   5.597   9.262 -0.1364 -1.0400 -0.0400
  983SOL     OW 4625   5.684   4.625   8.112 -0.3626 -0.5359 -0.0350
  983SOL    HW1 4626   5.690   4.602   8.205 -0.4426  0.4029  0.2087
  983SOL    HW2 4627   5.715   4.547   8.066  1.2598 -0.4253  0.8195
  984SOL     OW 4628   3.269   7.411   4.264 -0.0414 -0.0785 -0.1319
  984SOL    HW1 4629   3.322   7.365   4.199  1.3676 -0.2574  1.1343
  984SOL    HW2 4630   3.181   7.412   4.226  0.0039 -3.3040 -0.4856
  985SOL     OW 4631   3.266   1.356   9.053 -0.4827  0.4057  0.1345
  985SOL    HW1 4632   3.277   1.396   8.967 -0.6162  2.3572  1.0118
  985SOL    HW2 4633   3.325   1.405   9.110  0.0929 -1.2933  1.0581
  986SOL     OW 4634   0.356   1.792   0.154  0.3666 -0.1396  0.4960
  986SOL    HW1 4635   0.388   1.778   0.065  1.3040 -2.1633  1.1289
  986SOL    HW2 4636   0.433   1.820   0.203  0.0368  0.1268  0.8666
  987SOL     OW 4637   0.325   3.879   4.740 -0.1004 -0.2110  0.1342
  987SOL    HW1 4638   0.308   3.843   4.827 -0.5203  1.1176  0.5991
  987SOL    HW2 4639   0.351   3.802   4.688  1.7648 -0.7726  1.8216
  988SOL     OW 4640   3.886   6.248   2.887  0.7778 -0.5882  0.4039
  988SOL    HW1 4641   3.925   6.333   2.868 -1.0649  0.6273  1.9029
  988SOL    HW2 4642   3.858   6.215   2.801 -0.3749  1.2685  0.0438
  989SOL     OW 4643   6.624   3.539   3.745 -0.1209  0.4615  0.1318
  989SOL    HW1 4644   6.628   3.465   3.806 -1.0611 -0.0092 -0.3605
  989SOL    HW2 4645   6.588   3.611   3.797  1.6520  0.8599  0.8661
  990SOL     OW 4646   8.405   7.084   6.578 -0.5990  0.5347  0.2695
  990SOL    HW1 4647   8.478   7.144   6.592  0.3146  0.2464 -2.8681
  990SOL    HW2 4648   8.335   7.140   6.545 -0.6202  0.2784 -0.1203
  991SOL     OW 4649   9.151   9.195   5.067 -0.3129 -0.1868 -0.0593
  991SOL    HW1 4650   9.153   9.273   5.122  0.9328 -0.2182 -0.0466
  991SOL    HW2 4651   9.168   9.227   4.979 -1.5732 -0.2297 -0.3232
  992SOL     OW 4652   6.912   1.631   5.931 -0.4643 -0.6959 -0.2359
  992SOL    HW1 4653   6.855   1.706   5.917 -0.0667 -0.4750 -0.6866
  992SOL    HW2 4654   6.905   1.613   6.025 -1.0256 -0.4757 -0.2305
  993SOL     OW 4655   5.031   0.957   6.748  0.1998  0.1427  0.4444
  993SOL    HW1 4656   5.038   0.900   6.671  1.5012  0.6568  0.1636
  993SOL    HW2 4657   4.938   0.961   6.767  0.0991 -2.2383  0.5779
  994SOL     OW 4658   9.252   2.406   0.668  0.1121  0.0919 -0.3332
  994SOL    HW1 4659   9.270   2.319   0.703 -0.3317  0.1607  0.0690
  994SOL    HW2 4660   9.181   2.440   0.723 -2.2646 -0.7218 -2.7694
  995SOL     OW 4661   5.414   7.805   5.496 -0.2034 -0.0296  0.2413
  995SOL    HW1 4662   5.327   7.839   5.518 -0.6074 -1.0140  0.1806
  995SOL    HW2 4663   5.472   7.843   5.563 -0.4987  1.4338 -0.3082
  996SOL     OW 4664   6.209   0.852   4.767 -0.0633  0.3262  0.2776
  996SOL    HW1 4665   6.201   0.793   4.692 -0.8239  2.2635 -1.2113
  996SOL    HW2 4666   6.178   0.937   4.734  2.4243  1.9367  1.9224
  997SOL     OW 4667   7.807   5.622   9.121 -0.1042  0.4171  0.5864
  997SOL    HW1 4668   7.855   5.687   9.172 -0.5146  0.9660  0.2714
  997SOL    HW2 4669   7.784   5.667   9.039  1.6532 -0.8170 -0.6413
  998SOL     OW 4670   5.409   8.523   3.986  0.4080  0.2919  0.2311
  998SOL    HW1 4671   5.315   8.519   3.998  0.5664  0.4769  1.6937
  998SOL    HW2 4672   5.438   8.432   3.996  0.6023  0.5175  2.0415
  999SOL     OW 4673   1.856   4.832   6.901 -0.3183 -0.1635 -0.6301
  999SOL    HW1 4674   1.933   4.786   6.933 -0.6356  0.5613  1.2607
  999SOL    HW2 4675   1.789   4.764   6.892  0.1258 -0.5670 -0.8640
 1000SOL     OW 4676   2.340   5.099   1.101  0.2174 -0.2336  0.4685
 1000SOL    HW1 4677   2.331   5.101   1.197 -0.8619  0.1028  0.3629
 1000SOL    HW2 4678   2.272   5.158   1.069  0.7190 -0.1732 -0.5075
 1001SOL     OW 4679   0.093   8.601   9.292  0.5379  0.2075 -0.0236
 1001SOL    HW1 4680   0.141   8.683   9.292 -0.0755  0.5741 -0.2126
 1001SOL    HW2 4681   0.060   8.593   9.382 -0.3822  0.7599 -0.3032
 1002SOL     OW 4682   7.400   4.233   0.709 -0.0835  0.0430  0.3941
 1002SOL    HW1 4683   7.366   4.212   0.622 -1.4121 -0.9128  1.1437
 1002SOL    HW2 4684   7.340   4.299   0.743 -0.5252 -0.8161  1.2674
 1003SOL     OW 4685   7.580   8.610   5.410 -0.2511  0.1384 -0.1886
 1003SOL    HW1 4686   7.523   8.606   5.333  1.5060 -1.4870 -1.4747
 1003SOL    HW2 4687   7.522   8.595   5.484 -1.6415 -0.4349 -1.3689
 1004SOL     OW 4688   8.495   3.807   4.034  0.1607  0.1501 -0.3610
 1004SOL    HW1 4689   8.407   3.788   4.001  0.2836  0.5372 -0.9155
 1004SOL    HW2 4690   8.553   3.789   3.959  0.8233 -2.6564  0.7655
 1005SOL     OW 4691   8.407   5.934   2.553 -0.0632 -0.3778  0.1245
 1005SOL    HW1 4692   8.455   5.853   2.572  1.1975  0.2914 -0.1099
 1005SOL    HW2 4693   8.462   5.980   2.490 -1.9469 -0.4246 -1.6056
 1006SOL     OW 4694   8.721   3.070   3.274 -0.2131 -0.2744  0.5048
 1006SOL    HW1 4695   8.674   3.002   3.225  0.4130 -0.6700  0.4542
 1006SOL    HW2 4696   8.813   3.050   3.260 -0.0291  0.2876  0.9115
 1007SOL     OW 4697   0.597   7.350   6.808  0.2793 -0.1476 -0.1728
 1007SOL    HW1 4698   0.665   7.409   6.839 -0.2916  0.4838 -0.1060
 1007SOL    HW2 4699   0.644   7.281   6.762  1.0158 -0.1723  0.6112
 1008SOL     OW 4700   9.236   6.406   2.962  0.4126 -0.2752 -0.1460
 1008SOL    HW1 4701   9.190   6.434   2.882  0.8334  0.5616 -0.1072
 1008SOL    HW2 4702   9.169   6.362   3.014 -0.3771  0.9582 -0.0817
 1009SOL     OW 4703   1.488   6.165   1.787  0.1237 -0.0731  0.5264
 1009SOL    HW1 4704   1.539   6.084   1.794  0.3697  0.0674  0.3649
 1009SOL    HW2 4705   1.553   6.235   1.798  0.1788  0.1254 -0.9425
 1010SOL     OW 4706   4.068   0.135   8.964 -0.1620  0.9047 -0.0537
 1010SOL    HW1 4707   4.022   0.078   9.025 -0.2453  1.3247  0.2798
 1010SOL    HW2 4708   4.155   0.145   9.002 -0.3595  1.5349  0.2318
 1011SOL     OW 4709   6.790   6.823   8.732  0.3021 -0.5774 -1.2281
 1011SOL    HW1 4710   6.769   6.732   8.751 -0.0374 -0.1709  0.4235
 1011SOL    HW2 4711   6.854   6.848   8.799 -0.4385  0.7104 -0.9711
 1012SOL     OW 4712   4.704   0.034   2.561  0.0898  0.5693  0.7304
 1012SOL    HW1 4713   4.632   0.068   2.509  0.5035  1.8763  0.9867
 1012SOL    HW2 4714   4.667  -0.041   2.607 -0.9852  0.9682  0.5282
 1013SOL     OW 4715   6.626   5.212   1.387  0.1027  0.1011 -0.2482
 1013SOL    HW1 4716   6.709   5.257   1.401 -0.0532  0.0058  1.0760
 1013SOL    HW2 4717   6.592   5.196   1.475 -1.3923  0.2673 -0.7732
 1014SOL     OW 4718   7.439   7.007   4.861  0.2339 -0.5749  0.4887
 1014SOL    HW1 4719   7.475   7.048   4.940  2.0524  0.7278 -0.9701
 1014SOL    HW2 4720   7.450   7.073   4.793 -3.6276 -0.7267 -0.3857
 1015SOL     OW 4721   7.200   2.338   0.685  0.5227 -0.0479 -0.5723
 1015SOL    HW1 4722   7.218   2.388   0.765  2.0321  0.0857 -0.9719
 1015SOL    HW2 4723   7.174   2.251   0.716  1.5630 -0.1442  0.0799
 1016SOL     OW 4724   7.872   5.402   5.251  0.2473 -0.4335  1.0713
 1016SOL    HW1 4725   7.855   5.385   5.344 -0.4563 -0.1207  1.0067
 1016SOL    HW2 4726   7.787   5.388   5.209  0.8434 -1.7610  0.3035
 1017SOL     OW 4727   9.145   4.059   0.766 -0.0107  0.1144  0.3246
 1017SOL    HW1 4728   9.162   4.144   0.726 -1.1543  0.0815 -0.2553
 1017SOL    HW2 4729   9.152   3.996   0.694 -0.6022 -0.1126  0.4577
 1018SOL     OW 4730   3.503   8.035   1.738 -0.2861 -0.4868  0.4446
 1018SOL    HW1 4731   3.537   8.079   1.660  0.5292 -0.5328  0.7738
 1018SOL    HW2 4732   3.523   7.943   1.724 -0.8013 -0.5907  0.3720
 1019SOL     OW 4733   3.842   3.015   2.745  0.5335 -0.0121  0.1762
 1019SOL    HW1 4734   3.859   2.987   2.835  1.0846  0.2999  0.1753
 1019SOL    HW2 4735   3.766   3.072   2.751  1.7657  1.5995  0.7324
 1020SOL     OW 4736   4.732   6.071   5.687  0.4043  0.3657 -0.2103
 1020SOL    HW1 4737   4.814   6.033   5.719 -0.7789 -0.2897  2.1696
 1020SOL    HW2 4738   4.740   6.165   5.707  0.5409  0.2835  0.1265
 1021SOL     OW 4739   8.621   4.537   5.580 -0.1799 -0.3251  0.1053
 1021SOL    HW1 4740   8.672   4.535   5.498 -0.1743 -0.0623  0.1016
 1021SOL    HW2 4741   8.567   4.616   5.572 -1.5333 -1.2910 -0.4584
 1022SOL     OW 4742   0.706   7.230   3.058 -0.2604  0.2456  0.4351
 1022SOL    HW1 4743   0.784   7.281   3.036  0.7060 -1.1776  0.4738
 1022SOL    HW2 4744   0.701   7.233   3.154  1.0758 -1.5371  0.5884
 1023SOL     OW 4745   7.728   4.014   2.732 -0.3799 -1.0467  0.4132
 1023SOL    HW1 4746   7.660   3.969   2.782  0.7007 -1.2274  1.7686
 1023SOL    HW2 4747   7.807   4.007   2.787  0.0748  1.5360  0.1948
 1024SOL     OW 4748   1.371   1.289   7.553  0.1070  0.3466 -0.2496
 1024SOL    HW1 4749   1.349   1.379   7.577  0.1617  0.1447  0.5437
 1024SOL    HW2 4750   1.457   1.296   7.511  0.5311  0.5346  0.6503
 1025SOL     OW 4751   1.012   0.536   9.191 -0.1029 -0.4495 -0.0659
 1025SOL    HW1 4752   1.107   0.549   9.194  0.0176 -1.2220 -0.3995
 1025SOL    HW2 4753   1.000   0.441   9.201 -0.9528 -0.1194  2.5597
 1026SOL     OW 4754   0.581   6.097   5.261 -0.1907  0.2133 -0.1254
 1026SOL    HW1 4755   0.627   6.166   5.309  0.7044  0.9934 -2.0530
 1026SOL    HW2 4756   0.503   6.140   5.226  0.3842  0.2866 -1.3532
 1027SOL     OW 4757   5.700   9.289   7.403 -0.2883  0.1631  0.0735
 1027SOL    HW1 4758   5.681   9.284   7.497  1.4426 -1.4944  0.3692
 1027SOL    HW2 4759   5.703   9.383   7.384 -1.1561  0.5116  1.5617
 1028SOL     OW 4760   5.356   3.590   2.700  0.0473 -0.5994 -0.1843
 1028SOL    HW1 4761   5.448   3.574   2.681  0.9031  1.8100  1.6219
 1028SOL    HW2 4762   5.356   3.673   2.748 -3.1761  0.0730 -1.2342
 1029SOL     OW 4763   1.462   1.993   2.619 -0.7342  0.0597  0.0708
 1029SOL    HW1 4764   1.500   2.004   2.706 -0.7597  3.9510 -0.3093
 1029SOL    HW2 4765   1.367   1.993   2.634 -0.8569  3.7534 -0.0969
 1030SOL     OW 4766   5.489   5.902   5.307  0.4342 -0.3589  0.0196
 1030SOL    HW1 4767   5.400   5.871   5.322  0.6227 -0.5316  0.8366
 1030SOL    HW2 4768   5.485   5.948   5.224 -1.1189  2.3968  1.5554
 1031SOL     OW 4769   3.910   0.719   8.716 -0.2230 -0.2759 -0.6371
 1031SOL    HW1 4770   4.001   0.723   8.744 -0.4878 -0.7569  0.3207
 1031SOL    HW2 4771   3.863   0.682   8.791 -1.2492  0.2284 -1.0123
 1032SOL     OW 4772   3.256   0.023   4.764 -0.2918  0.1063  0.5569
 1032SOL    HW1 4773   3.293   0.083   4.829  1.3148  2.5898 -2.4943
 1032SOL    HW2 4774   3.323  -0.045   4.753 -0.4862 -0.2163  1.3374
 1033SOL     OW 4775   6.920   8.121   1.562 -0.2142 -0.1287  0.2904
 1033SOL    HW1 4776   6.937   8.127   1.656  0.6683  0.4467  0.1046
 1033SOL    HW2 4777   6.947   8.033   1.537  1.8471  0.5214  0.1402
 1034SOL     OW 4778   3.280   2.114   0.847  0.0924  0.0040 -0.3658
 1034SOL    HW1 4779   3.194   2.101   0.807 -0.3076 -1.6547  0.9909
 1034SOL    HW2 4780   3.291   2.038   0.905  2.4512  0.2369 -0.5008
 1035SOL     OW 4781   3.308   1.546   0.021  0.1968  0.1209 -0.0742
 1035SOL    HW1 4782   3.324   1.620   0.080 -0.6190  0.0398  0.2517
 1035SOL    HW2 4783   3.292   1.472   0.079  2.3930 -0.6258 -0.3999
 1036SOL     OW 4784   4.969   8.466   1.913  0.1182  0.2412  0.1427
 1036SOL    HW1 4785   4.998   8.521   1.840 -0.5320  1.3146  0.6836
 1036SOL    HW2 4786   4.880   8.441   1.890  1.0126 -2.1044 -0.9626
 1037SOL     OW 4787   7.170   3.839   5.466  0.9729  0.5406 -0.0146
 1037SOL    HW1 4788   7.094   3.897   5.468 -0.8221 -1.7330  0.7204
 1037SOL    HW2 4789   7.222   3.865   5.543 -0.7990 -0.0550  1.4293
 1038SOL     OW 4790   0.355   2.855   7.549  0.1088  0.1611 -0.0846
 1038SOL    HW1 4791   0.334   2.885   7.637  0.0779  1.7010 -0.6018
 1038SOL    HW2 4792   0.287   2.790   7.529  0.6806 -0.8925  1.3830
 1039SOL     OW 4793   8.664   3.259   4.065  0.0529  0.1949  0.3758
 1039SOL    HW1 4794   8.628   3.220   3.986 -2.1382  1.2811  0.8110
 1039SOL    HW2 4795   8.706   3.186   4.111  1.0079 -0.5121 -1.5744
 1040SOL     OW 4796   2.972   1.159   3.488 -0.0176  0.7835  0.1991
 1040SOL    HW1 4797   3.037   1.229   3.492  2.3159 -1.3953  1.6824
 1040SOL    HW2 4798   2.916   1.173   3.564 -0.5053  1.9071 -0.3577
 1041SOL     OW 4799   2.989   4.408   1.105 -0.2314 -0.2727 -0.8305
 1041SOL    HW1 4800   2.968   4.497   1.077 -2.4445 -0.9800 -1.4699
 1041SOL    HW2 4801   3.057   4.378   1.043 -0.9949  0.2164 -1.9091
 1042SOL     OW 4802   5.868   6.447   4.159  0.1298  0.4220  0.6776
 1042SOL    HW1 4803   5.914   6.524   4.192  0.3734  1.0063 -0.9677
 1042SOL    HW2 4804   5.849   6.468   4.067 -2.2201 -0.3685  0.9468
 1043SOL     OW 4805   2.110   0.908   6.513 -0.3450 -0.3255 -0.7101
 1043SOL    HW1 4806   2.172   0.865   6.454 -0.4730 -2.4343  0.6191
 1043SOL    HW2 4807   2.024   0.887   6.476 -0.3700 -0.2364 -0.7014
 1044SOL     OW 4808   2.098   4.486   2.300 -0.1545 -0.2330  0.0929
 1044SOL    HW1 4809   2.007   4.511   2.284 -0.3261 -1.5830 -1.1401
 1044SOL    HW2 4810   2.141   4.497   2.216  0.5166 -0.9122  0.3425
 1045SOL     OW 4811   6.318   5.004   5.765 -0.3186  0.4778 -0.5551
 1045SOL    HW1 4812   6.258   5.074   5.736 -0.7405  0.8444  1.1483
 1045SOL    HW2 4813   6.404   5.034   5.738 -0.3993  2.0675  0.8639
 1046SOL     OW 4814   8.025   7.898   1.672  0.1596  0.0410 -0.1429
 1046SOL    HW1 4815   8.085   7.848   1.617  0.1109 -0.6120  0.3941
 1046SOL    HW2 4816   7.943   7.901   1.622  0.3636  0.1602 -0.4713
 1047SOL     OW 4817   5.780   8.029   7.336 -0.0184  0.0990  0.2987
 1047SOL    HW1 4818   5.732   8.043   7.255 -0.5742  1.0520  0.7835
 1047SOL    HW2 4819   5.823   8.112   7.354  0.8022 -0.3678  0.5316
 1048SOL     OW 4820   6.036   4.498   0.415 -0.7316  0.0992  0.6177
 1048SOL    HW1 4821   6.056   4.489   0.509 -0.2442  1.3779  0.6490
 1048SOL    HW2 4822   5.951   4.457   0.404 -1.1487  0.6284  1.7794
 1049SOL     OW 4823   6.700   2.885   7.431 -0.3049  0.5580  0.1824
 1049SOL    HW1 4824   6.621   2.838   7.404 -1.3474  1.5458  1.4466
 1049SOL    HW2 4825   6.671   2.942   7.502  1.6944  0.4032  1.1680
 1050SOL     OW 4826   4.715   9.002   0.169  0.1643 -0.2274 -0.8872
 1050SOL    HW1 4827   4.680   9.034   0.086 -2.1955 -0.9646 -0.1949
 1050SOL    HW2 4828   4.758   9.079   0.208 -0.9037  0.7551 -1.6392
 1051SOL     OW 4829   8.155   5.401   6.186  0.4995 -0.3520  0.9164
 1051SOL    HW1 4830   8.213   5.335   6.147  1.0004  0.3575  0.4401
 1051SOL    HW2 4831   8.118   5.358   6.263  0.0438 -1.5367  0.0538
 1052SOL     OW 4832   1.491   7.970   1.701 -0.5671  0.4162 -0.0016
 1052SOL    HW1 4833   1.552   8.031   1.659  0.6785 -0.3954  0.5712
 1052SOL    HW2 4834   1.499   7.890   1.649  1.2339 -0.7044  1.9321
 1053SOL     OW 4835   8.600   4.670   3.415  0.1464  0.0414 -0.1939
 1053SOL    HW1 4836   8.667   4.602   3.419  0.2428  0.0889 -0.9554
 1053SOL    HW2 4837   8.616   4.724   3.492  1.4145  0.4553 -0.7341
 1054SOL     OW 4838   4.563   3.543   6.024 -0.0328 -0.3929 -0.0939
 1054SOL    HW1 4839   4.561   3.515   5.933 -1.7599 -0.5775 -0.0179
 1054SOL    HW2 4840   4.474   3.574   6.042  0.4737  0.2896  1.3253
 1055SOL     OW 4841   1.411   7.275   1.886  0.2446  0.0730  0.0488
 1055SOL    HW1 4842   1.453   7.265   1.971 -0.1458  2.8922  0.6245
 1055SOL    HW2 4843   1.484   7.286   1.824  0.4812 -0.4135  0.2382
 1056SOL     OW 4844   2.531   4.161   6.454 -0.1634  0.3208  0.6292
 1056SOL    HW1 4845   2.441   4.193   6.456  0.3546  1.8469 -0.4037
 1056SOL    HW2 4846   2.567   4.186   6.539 -0.5010  0.3006  0.7811
 1057SOL     OW 4847   7.147   1.784   4.290 -0.5334 -0.1888 -0.0464
 1057SOL    HW1 4848   7.150   1.701   4.337  0.5904 -0.2914 -0.2894
 1057SOL    HW2 4849   7.059   1.819   4.308 -0.4573 -0.6718  1.3467
 1058SOL     OW 4850   7.479   9.289   0.693 -0.4239  0.3370 -0.1795
 1058SOL    HW1 4851   7.457   9.377   0.661  1.9227  1.1056  0.2761
 1058SOL    HW2 4852   7.472   9.295   0.788  1.0222  0.3937 -0.0717
 1059SOL     OW 4853   8.403   4.736   2.192 -0.3032 -0.3854 -0.7032
 1059SOL    HW1 4854   8.469   4.701   2.252 -1.8700 -0.7473  0.8449
 1059SOL    HW2 4855   8.342   4.784   2.247 -0.6207  1.0936 -2.2837
 1060SOL     OW 4856   6.497   9.216   4.547  0.2007  0.0218 -0.1012
 1060SOL    HW1 4857   6.592   9.233   4.550 -0.0489  1.3430  0.7810
 1060SOL    HW2 4858   6.477   9.217   4.453  1.2224 -1.2533 -0.3476
 1061SOL     OW 4859   3.656   3.401   5.947  0.0746  0.0399  0.4127
 1061SOL    HW1 4860   3.733   3.372   5.996  0.2199  0.1322  0.2416
 1061SOL    HW2 4861   3.584   3.349   5.982  0.2862 -0.3256  0.3027
 1062SOL     OW 4862   8.395   1.869   5.678  0.0237 -0.2512  0.0639
 1062SOL    HW1 4863   8.304   1.890   5.660  0.7638  2.2527 -0.8967
 1062SOL    HW2 4864   8.391   1.792   5.735 -2.6247 -1.4084 -1.5760
 1063SOL     OW 4865   5.955   6.401   8.827 -0.5232 -0.0693 -0.9293
 1063SOL    HW1 4866   5.948   6.415   8.921  0.1452  0.3627 -0.9397
 1063SOL    HW2 4867   5.928   6.310   8.814  0.2831 -0.4163 -0.2087
 1064SOL     OW 4868   0.698   6.106   8.991 -0.1207 -0.2308  0.0284
 1064SOL    HW1 4869   0.731   6.171   8.929 -1.7459  0.2072 -0.4173
 1064SOL    HW2 4870   0.776   6.066   9.028  0.9018  1.3467 -0.3615
 1065SOL     OW 4871   2.876   9.066   0.088  0.2297 -0.1697 -0.3059
 1065SOL    HW1 4872   2.811   9.108   0.032  0.6510 -2.1301 -2.3176
 1065SOL    HW2 4873   2.843   9.080   0.177 -1.0790  1.9358 -1.0680
 1066SOL     OW 4874   4.276   6.655   8.290  0.1013  0.0150 -0.2250
 1066SOL    HW1 4875   4.282   6.746   8.261  0.8466  0.3947  1.0804
 1066SOL    HW2 4876   4.321   6.654   8.375 -0.7144 -1.3776  0.1995
 1067SOL     OW 4877   4.603   3.719   7.349  0.0177 -0.1872 -0.0566
 1067SOL    HW1 4878   4.587   3.783   7.279 -0.7015 -1.0166 -0.6585
 1067SOL    HW2 4879   4.698   3.710   7.351  0.2228  1.9295  0.9753
 1068SOL     OW 4880   8.788   5.617   3.338  0.6999  0.1495  0.1124
 1068SOL    HW1 4881   8.782   5.710   3.359  2.0682  0.5852 -1.3066
 1068SOL    HW2 4882   8.882   5.600   3.333  0.4539 -0.6485 -2.3798
 1069SOL     OW 4883   1.428   1.474   4.155  0.4284  0.1512  0.2113
 1069SOL    HW1 4884   1.419   1.383   4.184  1.6250  0.3689  1.3218
 1069SOL    HW2 4885   1.387   1.525   4.225  2.9126  0.6535  1.3570
 1070SOL     OW 4886   5.521   3.326   2.565  0.1482 -0.2682 -0.1762
 1070SOL    HW1 4887   5.563   3.325   2.479  1.0656 -0.9210  0.2771
 1070SOL    HW2 4888   5.438   3.280   2.552 -0.0969  0.3583 -0.8935
 1071SOL     OW 4889   4.247   1.828   2.562  0.6680  0.2633  0.5104
 1071SOL    HW1 4890   4.286   1.750   2.522  0.9755  0.2913  0.7496
 1071SOL    HW2 4891   4.155   1.806   2.571  0.2723  0.9245 -1.7939
 1072SOL     OW 4892   5.771   7.209   4.458  0.9112 -0.1638  0.1447
 1072SOL    HW1 4893   5.782   7.262   4.379 -0.1914 -0.3772 -0.1636
 1072SOL    HW2 4894   5.812   7.260   4.528  3.1589 -0.6091 -0.7993
 1073SOL     OW 4895   0.812   7.300   3.922 -1.2608 -0.1111  0.5141
 1073SOL    HW1 4896   0.899   7.293   3.884 -1.1691  2.7707  0.0936
 1073SOL    HW2 4897   0.828   7.308   4.017 -1.0098  0.8977  0.3974
 1074SOL     OW 4898   2.851   1.828   5.435  0.2797  0.8005  0.1702
 1074SOL    HW1 4899   2.904   1.749   5.442  0.7047  1.1565  1.1199
 1074SOL    HW2 4900   2.887   1.874   5.359  0.4020  0.3544 -0.0437
 1075SOL     OW 4901   2.054   2.500   8.781  0.0272 -0.0056 -0.1391
 1075SOL    HW1 4902   1.999   2.422   8.791 -0.0622  0.1129  0.3082
 1075SOL    HW2 4903   2.033   2.532   8.694 -0.1566 -0.3141 -0.2124
 1076SOL     OW 4904   5.589   1.816   1.302 -0.4210  0.2758 -0.0514
 1076SOL    HW1 4905   5.584   1.729   1.263  1.9566  0.5273 -1.0206
 1076SOL    HW2 4906   5.597   1.875   1.228 -2.6286  1.4236  0.5690
 1077SOL     OW 4907   7.781   5.766   0.219 -0.4590 -0.0708  0.3750
 1077SOL    HW1 4908   7.725   5.691   0.200 -0.1332 -0.0851 -0.5301
 1077SOL    HW2 4909   7.865   5.727   0.245 -0.0358 -0.0134 -0.8857
 1078SOL     OW 4910   4.101   4.569   6.664 -0.0238  0.1058  0.4631
 1078SOL    HW1 4911   4.078   4.501   6.600  1.5859 -0.0406  0.0139
 1078SOL    HW2 4912   4.018   4.593   6.704 -0.8779 -0.7630 -0.7428
 1079SOL     OW 4913   2.456   6.416   1.062 -0.4846 -0.6062  0.2649
 1079SOL    HW1 4914   2.545   6.415   1.027 -0.6104  0.9484 -0.1041
 1079SOL    HW2 4915   2.459   6.479   1.133 -1.7321  0.8159 -0.9234
 1080SOL     OW 4916   6.420   3.422   8.454 -0.6709 -0.0613 -0.7856
 1080SOL    HW1 4917   6.453   3.359   8.390  0.2182  1.2234 -1.6247
 1080SOL    HW2 4918   6.392   3.497   8.401 -1.5276  0.3314  0.2041
 1081SOL     OW 4919   8.473   8.409   4.048  0.1722 -0.4167  0.4892
 1081SOL    HW1 4920   8.565   8.437   4.054  0.5323 -1.6805  0.9553
 1081SOL    HW2 4921   8.476   8.323   4.008 -0.7906 -0.6119  0.8177
 1082SOL     OW 4922   8.481   5.863   7.210  0.2788 -0.0430  0.2674
 1082SOL    HW1 4923   8.473   5.795   7.276  0.8492  0.3666  0.7699
 1082SOL    HW2 4924   8.405   5.919   7.222  0.8646  0.5672  1.2095
 1083SOL     OW 4925   7.979   2.784   1.203  0.0886  0.5446  0.3856
 1083SOL    HW1 4926   8.075   2.778   1.202  0.1130  0.7360 -1.7833
 1083SOL    HW2 4927   7.950   2.696   1.181 -0.2733  0.1604  2.3655
 1084SOL     OW 4928   2.164   8.910   4.159 -0.0487 -0.3803  0.1671
 1084SOL    HW1 4929   2.070   8.904   4.179 -0.0332  0.1960  0.4337
 1084SOL    HW2 4930   2.168   8.962   4.078  0.0949  0.4778  0.7200
 1085SOL     OW 4931   7.859   2.545   0.867 -0.5266  0.2568 -0.1940
 1085SOL    HW1 4932   7.902   2.541   0.953  0.6756  0.4921 -0.7679
 1085SOL    HW2 4933   7.862   2.638   0.844 -4.1188  0.7649  1.1093
 1086SOL     OW 4934   7.235   2.998   0.947  0.0300  0.1616 -0.2393
 1086SOL    HW1 4935   7.279   2.994   0.863  1.1505  1.6156  0.2435
 1086SOL    HW2 4936   7.243   3.090   0.973 -2.9633  0.3928  0.0425
 1087SOL     OW 4937   7.018   1.883   4.554  0.0658 -0.3369 -0.5946
 1087SOL    HW1 4938   6.967   1.815   4.598 -0.7108 -0.1275 -1.1591
 1087SOL    HW2 4939   6.953   1.943   4.520  0.7654  1.0421  0.4352
 1088SOL     OW 4940   7.092   5.482   6.235  0.4819 -0.4836 -0.4367
 1088SOL    HW1 4941   7.142   5.564   6.230 -0.6069  0.0860 -2.2300
 1088SOL    HW2 4942   7.070   5.474   6.328  0.7502  1.1694 -0.2126
 1089SOL     OW 4943   1.442   2.072   5.595  0.2206  0.2574 -0.2662
 1089SOL    HW1 4944   1.394   2.117   5.664 -1.6332 -0.0186 -1.3496
 1089SOL    HW2 4945   1.446   1.981   5.624 -0.9048  0.0637 -0.6769
 1090SOL     OW 4946   0.133   1.167   5.564 -0.2402  0.6685 -0.8315
 1090SOL    HW1 4947   0.115   1.183   5.656  0.9364  2.2172 -0.8550
 1090SOL    HW2 4948   0.074   1.226   5.517 -1.6090 -0.8949 -1.1040
 1091SOL     OW 4949   1.561   1.679   9.121  0.1899 -0.4130  0.3907
 1091SOL    HW1 4950   1.591   1.686   9.030 -1.4157  1.7994 -0.0168
 1091SOL    HW2 4951   1.628   1.725   9.172  0.0661  0.1097  0.0852
 1092SOL     OW 4952   2.821   2.363   1.684 -0.3750 -0.2252  0.2309
 1092SOL    HW1 4953   2.854   2.366   1.774  0.3120 -1.5069  0.0298
 1092SOL    HW2 4954   2.854   2.281   1.649 -0.4289  0.3830 -1.2857
 1093SOL     OW 4955   5.516   3.680   0.348  0.5419 -0.1863 -0.0957
 1093SOL    HW1 4956   5.454   3.607   0.354  0.1189 -0.1199 -2.7761
 1093SOL    HW2 4957   5.474   3.751   0.396 -0.4746 -0.7875 -0.0678
 1094SOL     OW 4958   3.362   0.524   0.912 -0.4298  0.0475 -0.0868
 1094SOL    HW1 4959   3.455   0.501   0.909 -1.0346 -2.3955 -0.8692
 1094SOL    HW2 4960   3.333   0.519   0.821 -1.4037  0.4800  0.1950
 1095SOL     OW 4961   9.124   0.896   4.391 -0.3173  0.0822  0.1828
 1095SOL    HW1 4962   9.180   0.872   4.317  0.8125  0.3296  0.9373
 1095SOL    HW2 4963   9.116   0.816   4.442 -0.5648  0.0696  0.1212
 1096SOL     OW 4964   5.830   4.981   2.878 -0.0273 -0.2641  0.0129
 1096SOL    HW1 4965   5.920   4.949   2.879 -0.3902 -1.2859  0.9929
 1096SOL    HW2 4966   5.779   4.908   2.844 -0.5904  0.0417  0.1961
 1097SOL     OW 4967   0.995   7.549   0.794 -0.2628  0.1460  0.0151
 1097SOL    HW1 4968   0.919   7.550   0.735 -0.5004  1.0095  0.3330
 1097SOL    HW2 4969   1.021   7.641   0.802  0.5391 -0.0951  0.2708
 1098SOL     OW 4970   5.254   3.856   2.528 -0.2850 -0.3450 -0.0225
 1098SOL    HW1 4971   5.235   3.779   2.474 -0.0018  0.4387 -1.2588
 1098SOL    HW2 4972   5.349   3.854   2.540  0.1791  1.7455 -3.0484
 1099SOL     OW 4973   4.885   2.134   0.530 -0.0711  0.1828 -0.0440
 1099SOL    HW1 4974   4.960   2.161   0.584 -0.7508  1.0698  0.4537
 1099SOL    HW2 4975   4.852   2.055   0.573  0.7810 -0.4260 -0.4664
 1100SOL     OW 4976   7.116   0.941   8.142  0.7624 -0.2003  0.0537
 1100SOL    HW1 4977   7.191   0.923   8.199  0.6844 -2.6863 -0.5791
 1100SOL    HW2 4978   7.052   0.874   8.164 -0.4260  0.6053 -0.9065
 1101SOL     OW 4979   7.147   9.067   2.254  0.1009  0.4438  0.3878
 1101SOL    HW1 4980   7.076   9.104   2.201 -0.3490  0.1589  0.7848
 1101SOL    HW2 4981   7.219   9.056   2.193 -1.4001 -2.8448 -0.9268
 1102SOL     OW 4982   4.684   5.594   7.415  0.0907 -0.2375  0.1143
 1102SOL    HW1 4983   4.604   5.612   7.463 -0.9954 -1.3065 -1.2445
 1102SOL    HW2 4984   4.665   5.514   7.366  1.0531  0.9576 -2.2898
 1103SOL     OW 4985   7.985   7.583   5.197  0.0741 -0.0218  0.4138
 1103SOL    HW1 4986   8.021   7.500   5.228  0.7833  0.8814  2.0959
 1103SOL    HW2 4987   7.906   7.559   5.148 -1.0166 -1.5528  2.8330
 1104SOL     OW 4988   0.448   7.606   3.061  0.1217 -0.2178 -0.3989
 1104SOL    HW1 4989   0.405   7.521   3.067 -0.9745  0.3642 -0.0311
 1104SOL    HW2 4990   0.426   7.638   2.973 -0.0156 -0.0146 -0.2909
 1105SOL     OW 4991   8.734   1.089   5.495  0.0699  0.0636  0.1433
 1105SOL    HW1 4992   8.825   1.071   5.472 -0.3602 -1.7367 -0.2409
 1105SOL    HW2 4993   8.709   1.016   5.553 -1.8418 -0.8037 -1.7006
 1106SOL     OW 4994   0.766   7.806   3.639 -0.1973  0.4943  0.0005
 1106SOL    HW1 4995   0.685   7.841   3.676  0.4762  0.4249  1.6044
 1106SOL    HW2 4996   0.818   7.884   3.617  0.5586  0.5432  1.8768
 1107SOL     OW 4997   2.610   2.608   8.336 -0.0447 -0.4407 -0.0683
 1107SOL    HW1 4998   2.663   2.637   8.411 -1.4086  0.8994  0.4071
 1107SOL    HW2 4999   2.671   2.608   8.263  0.3154  2.6353  0.1423
 1108SOL     OW 5000   0.213   1.905   5.690 -0.1710  0.4689  0.2409
 1108SOL    HW1 5001   0.238   1.987   5.647 -0.7308  0.1184 -0.7683
 1108SOL    HW2 5002   0.167   1.934   5.769  0.7569  1.1166  0.5588
 1109SOL     OW 5003   7.860   1.758   8.298  0.1660  0.1224  0.0640
 1109SOL    HW1 5004   7.950   1.778   8.270  0.0807 -0.2147 -0.4361
 1109SOL    HW2 5005   7.854   1.798   8.385  0.8188  0.1053  0.1243
 1110SOL     OW 5006   1.544   8.994   7.882 -0.0474  0.0603 -0.4361
 1110SOL    HW1 5007   1.581   9.074   7.921 -1.1259 -0.0853  0.9138
 1110SOL    HW2 5008   1.449   9.004   7.891 -0.2571 -0.6198 -1.7871
 1111SOL     OW 5009   8.155   5.835   7.850  0.6237  0.0242  0.1739
 1111SOL    HW1 5010   8.228   5.786   7.888  0.9923 -0.9774 -1.7838
 1111SOL    HW2 5011   8.182   5.855   7.761 -1.2641  0.1135 -0.4056
 1112SOL     OW 5012   2.926   2.427   3.773  0.0648 -0.0532  0.0034
 1112SOL    HW1 5013   2.852   2.460   3.723  0.0266  1.0124  0.7468
 1112SOL    HW2 5014   2.990   2.399   3.707  0.6963  2.8247 -0.6760
 1113SOL     OW 5015   2.863   6.066   3.723  0.1860  0.0121  0.0647
 1113SOL    HW1 5016   2.815   6.008   3.783  1.9482 -1.5286  0.0043
 1113SOL    HW2 5017   2.897   6.135   3.780 -0.6473  0.1850  0.3704
 1114SOL     OW 5018   4.754   1.009   9.196 -0.0412 -0.4927 -0.2650
 1114SOL    HW1 5019   4.737   1.086   9.251 -0.2002 -0.7031 -0.0190
 1114SOL    HW2 5020   4.849   0.996   9.203 -0.1202 -0.7785  0.3120
 1115SOL     OW 5021   2.705   6.785   6.181  0.1271  0.4633  0.0162
 1115SOL    HW1 5022   2.692   6.874   6.151  2.1670  1.1221  0.9690
 1115SOL    HW2 5023   2.798   6.768   6.168 -0.0193 -1.1515  0.8351
 1116SOL     OW 5024   7.532   0.802   9.203  0.0298  0.2217  0.8565
 1116SOL    HW1 5025   7.453   0.767   9.161  0.2228  0.4465  0.3004
 1116SOL    HW2 5026   7.600   0.791   9.137  0.7214 -1.0508  1.7516
 1117SOL     OW 5027   8.022   5.206   4.230 -0.6522 -0.3491  0.0767
 1117SOL    HW1 5028   8.080   5.258   4.174  0.4325  0.7633  2.1665
 1117SOL    HW2 5029   7.943   5.193   4.177 -0.7227  2.9697 -0.7402
 1118SOL     OW 5030   2.795   7.105   4.397  0.6133 -0.7785 -0.7336
 1118SOL    HW1 5031   2.821   7.088   4.488  0.3494 -0.5399 -0.6109
 1118SOL    HW2 5032   2.877   7.118   4.351  0.7981 -1.8989 -0.7335
 1119SOL     OW 5033   0.833   3.548   2.638  0.3455  0.3420 -0.6214
 1119SOL    HW1 5034   0.915   3.507   2.665 -0.7554 -1.9283 -0.5238
 1119SOL    HW2 5035   0.788   3.479   2.588 -1.6695  1.3878 -0.2932
 1120SOL     OW 5036   6.656   6.772   5.406 -0.0092 -0.0145 -0.7780
 1120SOL    HW1 5037   6.708   6.731   5.475  0.4984 -1.3808 -1.9363
 1120SOL    HW2 5038   6.715   6.837   5.368 -0.1232  0.4094 -0.2209
 1121SOL     OW 5039   8.237   6.872   6.647 -0.4231 -0.2721 -0.2201
 1121SOL    HW1 5040   8.264   6.861   6.739  0.2215  0.1307 -0.3561
 1121SOL    HW2 5041   8.309   6.922   6.607 -0.1937 -1.3675 -1.1978
 1122SOL     OW 5042   3.435   8.847   6.976  0.3461  0.4357 -0.3695
 1122SOL    HW1 5043   3.490   8.883   7.046 -0.5259 -0.3683  0.7331
 1122SOL    HW2 5044   3.400   8.924   6.932 -0.7893  0.9923  1.4204
 1123SOL     OW 5045   6.446   5.023   2.006 -0.1187 -0.3183  0.1910
 1123SOL    HW1 5046   6.541   5.015   2.006 -0.0737  0.0858 -0.7913
 1123SOL    HW2 5047   6.413   4.934   2.020  0.4031 -0.6052 -0.3828
 1124SOL     OW 5048   4.080   1.805   6.972 -0.4928 -0.2486  0.3912
 1124SOL    HW1 5049   4.114   1.761   6.895 -0.5281 -1.0988  0.8525
 1124SOL    HW2 5050   4.098   1.898   6.957  0.6781 -0.5367 -0.0344
 1125SOL     OW 5051   4.007   5.037   2.749 -0.3334  0.0463 -0.4210
 1125SOL    HW1 5052   4.089   4.987   2.753  0.6679  1.7341  3.3548
 1125SOL    HW2 5053   4.035   5.126   2.726 -1.4288  0.0982 -1.5835
 1126SOL     OW 5054   8.637   0.349   3.243 -0.1549 -0.0600 -0.3798
 1126SOL    HW1 5055   8.616   0.264   3.283 -1.0937  0.6947  0.7643
 1126SOL    HW2 5056   8.555   0.379   3.205 -0.2855  1.1692  0.8250
 1127SOL     OW 5057   1.179   3.577   3.386 -0.4832 -0.2859 -0.4656
 1127SOL    HW1 5058   1.143   3.501   3.431 -0.5177  0.4297  0.7271
 1127SOL    HW2 5059   1.152   3.652   3.439  1.8197  0.3474 -0.1300
 1128SOL     OW 5060   0.908   4.141   4.180 -0.2659  0.3680  0.2695
 1128SOL    HW1 5061   0.861   4.183   4.253 -0.7689  0.1110  0.0979
 1128SOL    HW2 5062   0.850   4.151   4.105 -0.3993 -0.6245  0.2257
 1129SOL     OW 5063   8.311   8.732   2.616 -0.0984 -0.5104 -0.0188
 1129SOL    HW1 5064   8.403   8.757   2.611  0.0476 -0.2315  3.0962
 1129SOL    HW2 5065   8.312   8.641   2.645 -0.8140 -0.4254  0.2775
 1130SOL     OW 5066   8.719   6.760   8.515  0.2074 -0.3167 -0.3124
 1130SOL    HW1 5067   8.708   6.757   8.420  0.6963 -0.5770 -0.3607
 1130SOL    HW2 5068   8.653   6.700   8.549  0.3797 -0.6218 -0.5170
 1131SOL     OW 5069   1.094   4.220   8.016 -0.1519  0.4568 -0.2946
 1131SOL    HW1 5070   1.144   4.251   8.091  1.2764  0.1934 -1.1066
 1131SOL    HW2 5071   1.064   4.133   8.041 -2.5561  1.7090  1.2566
 1132SOL     OW 5072   5.800   0.944   3.486 -0.0368  0.4189  0.4778
 1132SOL    HW1 5073   5.746   0.974   3.559  0.2420 -0.2084  0.9467
 1132SOL    HW2 5074   5.872   1.007   3.483 -0.3274  0.7485  0.4106
 1133SOL     OW 5075   0.552   3.243   6.515  0.0374  0.6996 -0.1717
 1133SOL    HW1 5076   0.646   3.256   6.524  0.2243  0.3564 -1.5757
 1133SOL    HW2 5077   0.512   3.316   6.563  1.0081  0.9151  0.3080
 1134SOL     OW 5078   4.020   6.156   4.335 -0.4791 -0.2984  0.4033
 1134SOL    HW1 5079   4.020   6.062   4.316 -0.7230 -0.0745 -0.7421
 1134SOL    HW2 5080   4.113   6.180   4.336 -0.4131 -0.5574  0.7616
 1135SOL     OW 5081   8.001   6.998   8.696  0.0048 -0.1367  0.0939
 1135SOL    HW1 5082   8.086   7.026   8.730 -0.1261 -1.4831  1.5850
 1135SOL    HW2 5083   7.937   7.042   8.751 -0.2428 -0.6210  0.1976
 1136SOL     OW 5084   7.546   7.800   4.377 -0.0560  0.4820  0.3891
 1136SOL    HW1 5085   7.517   7.892   4.372  0.8899  0.6891 -2.4558
 1136SOL    HW2 5086   7.503   7.758   4.302  1.1140 -0.9153  0.4908
 1137SOL     OW 5087   5.265   0.686   2.781  0.0221  0.3779 -0.3339
 1137SOL    HW1 5088   5.271   0.592   2.764  0.7800  0.0371  1.6514
 1137SOL    HW2 5089   5.348   0.721   2.750 -0.4247  0.4622 -1.4509
 1138SOL     OW 5090   4.477   8.489   6.000 -0.1991  0.4646 -0.3284
 1138SOL    HW1 5091   4.545   8.552   5.976 -0.5874  0.3459 -1.8339
 1138SOL    HW2 5092   4.400   8.518   5.952 -0.5540 -0.7801 -0.5364
 1139SOL     OW 5093   1.293   8.717   6.928 -0.2507  0.0597  0.7157
 1139SOL    HW1 5094   1.281   8.649   6.861 -0.5587  0.1883  0.6404
 1139SOL    HW2 5095   1.209   8.719   6.975 -0.0553  0.0041  1.0746
 1140SOL     OW 5096   2.177   0.993   3.516  0.3544 -0.5542  0.3806
 1140SOL    HW1 5097   2.217   1.038   3.591  0.2438 -2.2161  1.4616
 1140SOL    HW2 5098   2.227   0.911   3.508 -0.7070 -1.1391 -0.3287
 1141SOL     OW 5099   3.647   6.451   5.244 -0.2830  0.7684 -0.5050
 1141SOL    HW1 5100   3.574   6.512   5.237  0.7913  2.3754  1.4992
 1141SOL    HW2 5101   3.607   6.365   5.250 -1.9593  1.5407 -0.4104
 1142SOL     OW 5102   1.713   3.717   4.428 -0.6842  0.6649 -0.2190
 1142SOL    HW1 5103   1.698   3.624   4.409  1.1147  0.3578 -0.2058
 1142SOL    HW2 5104   1.683   3.763   4.349 -1.4304  0.0663 -0.2895
 1143SOL     OW 5105   3.091   6.485   2.407 -0.3764 -0.3538  0.5596
 1143SOL    HW1 5106   3.166   6.429   2.387 -0.5912 -0.6385  0.5477
 1143SOL    HW2 5107   3.060   6.515   2.322 -0.1038 -0.0122  0.5823
 1144SOL     OW 5108   0.437   8.218   4.684 -0.6274  0.1416 -0.5372
 1144SOL    HW1 5109   0.362   8.159   4.676  0.8500 -1.5386 -2.9460
 1144SOL    HW2 5110   0.505   8.164   4.724 -0.1465  1.0849 -0.0895
 1145SOL     OW 5111   7.267   2.115   2.481 -0.0529  0.9724  0.7974
 1145SOL    HW1 5112   7.178   2.085   2.461  0.6302 -1.3812  1.0421
 1145SOL    HW2 5113   7.265   2.133   2.575 -0.0489  0.0023  0.9932
 1146SOL     OW 5114   4.484   0.322   1.626  0.7113  0.6880 -0.8053
 1146SOL    HW1 5115   4.551   0.299   1.562 -0.2129  0.2467 -1.6242
 1146SOL    HW2 5116   4.442   0.400   1.590  0.1909  0.4384 -0.7335
 1147SOL     OW 5117   2.254   7.012   4.719  0.4953  1.1984 -0.2661
 1147SOL    HW1 5118   2.317   6.953   4.679  1.5605  2.2783 -0.2336
 1147SOL    HW2 5119   2.169   6.979   4.693  0.9187 -2.2276  2.3752
 1148SOL     OW 5120   4.842   6.616   2.594  0.1904  0.1554  0.5571
 1148SOL    HW1 5121   4.863   6.575   2.510 -1.3368  2.2761 -0.8978
 1148SOL    HW2 5122   4.922   6.605   2.646  0.9548 -1.6832 -0.9475
 1149SOL     OW 5123   6.049   1.113   3.762  0.2557 -0.2129 -0.3154
 1149SOL    HW1 5124   5.966   1.160   3.761  1.7404  2.5859  1.3715
 1149SOL    HW2 5125   6.096   1.145   3.684  0.2070 -0.9532 -0.6553
 1150SOL     OW 5126   3.014   4.109   9.190  0.3152  0.1640  0.0151
 1150SOL    HW1 5127   3.082   4.155   9.239  0.4098  0.2991 -0.2417
 1150SOL    HW2 5128   3.039   4.121   9.098  0.8291 -1.1388 -0.0274
 1151SOL     OW 5129   4.407   7.357   3.097  0.7996 -1.0874  0.6784
 1151SOL    HW1 5130   4.395   7.287   3.034  0.4847 -0.9034  0.5317
 1151SOL    HW2 5131   4.325   7.407   3.093  2.7234  2.0042 -2.5663
 1152SOL     OW 5132   4.170   9.066   4.517 -0.1846 -0.0221  0.4469
 1152SOL    HW1 5133   4.121   9.095   4.441 -0.2095 -0.1925  0.3957
 1152SOL    HW2 5134   4.225   8.995   4.484 -1.4552 -1.2697  0.9310
 1153SOL     OW 5135   1.606   0.813   8.185  0.5462  0.3368  0.2114
 1153SOL    HW1 5136   1.589   0.812   8.279  2.8792  0.6192  0.6644
 1153SOL    HW2 5137   1.702   0.818   8.178  0.3046  2.3141 -2.1636
 1154SOL     OW 5138   1.866   4.537   8.364 -0.0602  0.4437  0.3467
 1154SOL    HW1 5139   1.883   4.446   8.341 -0.3171  0.1882  1.1454
 1154SOL    HW2 5140   1.839   4.578   8.282 -2.8734 -0.9186  0.5132
 1155SOL     OW 5141   0.488   5.126   7.496 -0.2375  0.0639 -0.0926
 1155SOL    HW1 5142   0.449   5.212   7.508 -0.2170  0.0159  0.3373
 1155SOL    HW2 5143   0.473   5.105   7.404 -1.3320  0.0045  0.0941
 1156SOL     OW 5144   0.747   3.136   1.588  0.1797  0.0957  0.0580
 1156SOL    HW1 5145   0.679   3.091   1.538  1.1445 -1.2019 -0.0999
 1156SOL    HW2 5146   0.734   3.107   1.678  0.9683 -0.7389 -0.0850
 1157SOL     OW 5147   8.698   2.397   2.124 -0.2061  0.5869 -0.3115
 1157SOL    HW1 5148   8.716   2.482   2.164 -2.0588  1.0087 -0.2981
 1157SOL    HW2 5149   8.654   2.347   2.194 -0.2839  0.0694 -0.7267
 1158SOL     OW 5150   4.326   7.005   3.171  0.4063 -0.2820 -0.3305
 1158SOL    HW1 5151   4.402   6.968   3.217  1.2706 -0.9832 -2.2441
 1158SOL    HW2 5152   4.325   6.959   3.086 -3.6030 -2.0545  0.5644
 1159SOL     OW 5153   3.825   8.980   5.832  0.3491  0.7910 -0.1036
 1159SOL    HW1 5154   3.736   8.982   5.797  0.7269  0.2686 -1.1197
 1159SOL    HW2 5155   3.830   9.055   5.891 -0.5664  1.1928 -0.5381
 1160SOL     OW 5156   7.489   7.619   8.678  0.1015 -0.5598  0.7334
 1160SOL    HW1 5157   7.432   7.672   8.622  0.3237  0.3929  1.4029
 1160SOL    HW2 5158   7.498   7.536   8.631  0.5794  0.3584 -0.8205
 1161SOL     OW 5159   4.492   8.851   5.200 -0.5405 -0.0775  0.0248
 1161SOL    HW1 5160   4.423   8.877   5.260  0.1540 -1.0755  1.2746
 1161SOL    HW2 5161   4.472   8.760   5.177 -0.0877 -0.1128 -0.2359
 1162SOL     OW 5162   3.551   9.091   2.741  0.2456  0.1663 -0.2226
 1162SOL    HW1 5163   3.544   9.180   2.705  0.1503  0.7254  1.1719
 1162SOL    HW2 5164   3.605   9.101   2.819  1.2194 -1.2039 -0.7048
 1163SOL     OW 5165   5.501   2.275   9.092 -0.3292 -0.5653 -0.2617
 1163SOL    HW1 5166   5.412   2.242   9.105 -0.2053 -1.7491 -2.2096
 1163SOL    HW2 5167   5.501   2.360   9.135 -2.3866 -0.5710 -0.1777
 1164SOL     OW 5168   8.336   5.051   7.467  0.2765  0.2043 -0.3026
 1164SOL    HW1 5169   8.389   4.972   7.471  0.0045  0.0345 -0.0203
 1164SOL    HW2 5170   8.382   5.114   7.523 -0.8438 -0.5665  1.5467
 1165SOL     OW 5171   4.411   6.073   7.594 -0.2423  0.6633  0.0289
 1165SOL    HW1 5172   4.426   6.162   7.627  2.3411  0.0143  0.6672
 1165SOL    HW2 5173   4.416   6.081   7.499  1.5042  0.9642  0.1310
 1166SOL     OW 5174   5.736   4.702   7.279  0.3546  0.0125 -0.5398
 1166SOL    HW1 5175   5.813   4.647   7.292  0.8638  0.2329 -2.4727
 1166SOL    HW2 5176   5.731   4.715   7.184 -0.1886  2.6949 -0.1839
 1167SOL     OW 5177   4.880   4.713   5.858  0.0123  0.2990  0.1104
 1167SOL    HW1 5178   4.820   4.737   5.787 -0.7590 -0.0196  0.6457
 1167SOL    HW2 5179   4.892   4.793   5.908  0.3501  0.4597 -0.2214
 1168SOL     OW 5180   6.167   4.461   7.831  0.0969  0.6872  0.2210
 1168SOL    HW1 5181   6.119   4.379   7.831 -0.0186  0.7504  0.7352
 1168SOL    HW2 5182   6.100   4.528   7.818  0.1947  0.6997 -0.2376
 1169SOL     OW 5183   6.233   6.708   5.764  0.3937  0.2043  0.0163
 1169SOL    HW1 5184   6.272   6.633   5.719  1.6281  0.4661  0.6321
 1169SOL    HW2 5185   6.302   6.774   5.766 -0.7356  1.4520 -0.6849
 1170SOL     OW 5186   1.095   4.942   7.469 -0.3254 -0.6149  0.2522
 1170SOL    HW1 5187   1.096   4.882   7.395  0.8201 -0.1400 -0.1376
 1170SOL    HW2 5188   1.136   5.022   7.436  0.4965 -0.5092  1.4854
 1171SOL     OW 5189   8.528   1.247   2.116 -0.1557 -0.2130 -0.2641
 1171SOL    HW1 5190   8.572   1.329   2.095 -0.2826  0.6328  2.5110
 1171SOL    HW2 5191   8.599   1.189   2.143 -0.3712  0.1447  1.1522
 1172SOL     OW 5192   4.747   7.708   3.487  0.0637  0.8823 -0.2666
 1172SOL    HW1 5193   4.747   7.724   3.392  1.0225 -1.8712 -0.7865
 1172SOL    HW2 5194   4.807   7.773   3.523  0.8897  0.9767 -1.7705
 1173SOL     OW 5195   3.719   4.161   1.541  0.2029  0.3088  0.5893
 1173SOL    HW1 5196   3.756   4.117   1.618 -0.5889  1.4149  1.6173
 1173SOL    HW2 5197   3.752   4.251   1.546 -0.6329  0.6466  0.1849
 1174SOL     OW 5198   6.403   6.189   6.827 -0.1086 -0.1530  0.3338
 1174SOL    HW1 5199   6.388   6.127   6.898  1.1371  0.6499  1.3009
 1174SOL    HW2 5200   6.495   6.178   6.804 -0.5583 -0.6027 -1.3537
 1175SOL     OW 5201   8.221   2.328   1.843  0.2364  0.1269 -0.2678
 1175SOL    HW1 5202   8.220   2.272   1.766  2.2190 -1.4095  0.7464
 1175SOL    HW2 5203   8.311   2.360   1.848 -0.4717  2.1440  0.0800
 1176SOL     OW 5204   0.742   5.210   1.322  0.2829  0.2025 -0.0467
 1176SOL    HW1 5205   0.761   5.122   1.290 -0.0487  0.5199 -1.1604
 1176SOL    HW2 5206   0.820   5.261   1.300 -0.1258  0.5265 -0.7866
 1177SOL     OW 5207   9.098   4.406   1.967  0.0371 -0.2427 -0.5710
 1177SOL    HW1 5208   9.120   4.432   1.878 -0.0714 -1.6937 -1.0364
 1177SOL    HW2 5209   9.183   4.402   2.012  0.0172  1.2865 -0.3698
 1178SOL     OW 5210   0.096   1.243   0.403 -0.0112 -0.3330  0.0743
 1178SOL    HW1 5211   0.036   1.169   0.397 -0.8367  0.3625 -0.2653
 1178SOL    HW2 5212   0.099   1.279   0.314 -2.2572  2.0981  0.9221
 1179SOL     OW 5213   8.459   7.218   5.746  0.0593 -0.4176  0.3418
 1179SOL    HW1 5214   8.376   7.231   5.699  1.9784  2.4364 -2.5102
 1179SOL    HW2 5215   8.469   7.298   5.798  1.1613 -0.6299  0.4636
 1180SOL     OW 5216   5.000   3.563   3.806  0.0384  0.5314  0.2862
 1180SOL    HW1 5217   5.071   3.564   3.870  1.0121 -0.5229 -0.7437
 1180SOL    HW2 5218   4.980   3.655   3.789  1.2775  0.8317  0.4620
 1181SOL     OW 5219   4.262   2.285   2.624 -0.1152 -0.1650 -0.4378
 1181SOL    HW1 5220   4.307   2.202   2.614 -1.4548 -0.9137 -0.4329
 1181SOL    HW2 5221   4.264   2.303   2.718  0.5930  0.0535 -0.4921
 1182SOL     OW 5222   6.384   6.498   4.405  0.1586 -0.4508 -0.0905
 1182SOL    HW1 5223   6.295   6.479   4.434  0.1839 -0.2192  0.1395
 1182SOL    HW2 5224   6.409   6.421   4.354 -0.0401 -0.6776  0.1517
 1183SOL     OW 5225   4.898   2.040   5.115  0.1156 -0.2257 -0.4639
 1183SOL    HW1 5226   4.804   2.052   5.100  0.0343 -0.4846 -0.1816
 1183SOL    HW2 5227   4.902   1.976   5.187  0.4498  2.0724  1.6295
 1184SOL     OW 5228   5.503   6.092   5.093 -0.2299 -0.3093  0.1670
 1184SOL    HW1 5229   5.527   6.181   5.117 -0.6270 -0.8078  2.4906
 1184SOL    HW2 5230   5.572   6.064   5.033  0.3371  1.2674  0.0638
 1185SOL     OW 5231   0.245   5.687   1.789  0.1697 -0.0300  0.3271
 1185SOL    HW1 5232   0.267   5.660   1.878  0.9314 -1.9580 -0.4361
 1185SOL    HW2 5233   0.253   5.783   1.790  0.5427 -0.0757  2.2111
 1186SOL     OW 5234   0.177   6.921   2.894  0.3492  0.3445 -0.3089
 1186SOL    HW1 5235   0.198   6.897   2.985  2.0386 -0.6754 -0.9501
 1186SOL    HW2 5236   0.230   6.999   2.878  0.0759  0.5021 -0.4496
 1187SOL     OW 5237   8.584   1.455   8.681  0.1210  0.2332 -0.2055
 1187SOL    HW1 5238   8.496   1.451   8.643  0.3422  0.8990 -0.8098
 1187SOL    HW2 5239   8.632   1.384   8.640 -0.1817 -0.2470  0.2612
 1188SOL     OW 5240   2.793   2.091   2.945 -0.0047  0.7162  0.1713
 1188SOL    HW1 5241   2.795   2.171   2.892  0.1409  1.1601  0.8441
 1188SOL    HW2 5242   2.723   2.039   2.907  0.6454  0.6686 -0.9864
 1189SOL     OW 5243   0.834   1.173   8.481  0.6087  0.3976 -0.2551
 1189SOL    HW1 5244   0.921   1.144   8.508  0.9389  2.2985  0.7632
 1189SOL    HW2 5245   0.844   1.197   8.389  1.3182  1.1821  0.0209
 1190SOL     OW 5246   3.043   8.473   9.193 -0.0908  0.4386  0.0410
 1190SOL    HW1 5247   3.049   8.522   9.110 -1.3582  0.4300 -0.0609
 1190SOL    HW2 5248   3.110   8.405   9.185 -0.8725 -0.1768 -1.3896
 1191SOL     OW 5249   1.019   3.827   3.433  0.2739  0.1770  0.3621
 1191SOL    HW1 5250   0.989   3.771   3.505 -0.3143 -1.5336 -1.1607
 1191SOL    HW2 5251   0.939   3.860   3.394  0.5521  0.1544 -0.2304
 1192SOL     OW 5252   1.630   8.443   0.776  0.7024  0.6249  0.2943
 1192SOL    HW1 5253   1.626   8.508   0.846  1.9813  0.3914  0.6008
 1192SOL    HW2 5254   1.638   8.359   0.822  0.5971  0.3860 -0.1181
 1193SOL     OW 5255   3.053   9.002   0.830  0.2061  0.2141  0.4673
 1193SOL    HW1 5256   3.106   8.929   0.798 -1.2033  0.0284 -1.5386
 1193SOL    HW2 5257   3.070   9.005   0.924  1.3540 -1.8037  0.3482
 1194SOL     OW 5258   0.725   7.938   5.544 -0.3273 -0.0852 -0.2510
 1194SOL    HW1 5259   0.655   7.963   5.606 -0.3759  1.3290 -0.8501
 1194SOL    HW2 5260   0.806   7.953   5.593 -0.4005 -0.1886 -0.0970
 1195SOL     OW 5261   4.078   8.747   5.393 -0.0028  0.1365  0.2614
 1195SOL    HW1 5262   4.010   8.719   5.332 -0.3963  0.3589  0.6007
 1195SOL    HW2 5263   4.053   8.836   5.417 -0.2775 -0.2402  1.3721
 1196SOL     OW 5264   4.934   5.966   6.659 -0.1821  0.4545 -0.4144
 1196SOL    HW1 5265   4.886   6.029   6.714 -0.8596 -0.6869  0.3397
 1196SOL    HW2 5266   4.998   6.018   6.612 -0.3257  1.6227  0.6690
 1197SOL     OW 5267   3.904   0.193   5.108 -0.5822 -0.1622  0.1639
 1197SOL    HW1 5268   3.851   0.269   5.085  0.0456  0.4912  0.7973
 1197SOL    HW2 5269   3.899   0.189   5.204  0.3414 -0.2069  0.2137
 1198SOL     OW 5270   8.134   2.189   1.610 -0.0204  0.4692 -0.2962
 1198SOL    HW1 5271   8.148   2.258   1.546  0.7432 -0.0111 -0.6521
 1198SOL    HW2 5272   8.185   2.115   1.578 -1.2147 -0.4270 -0.1776
 1199SOL     OW 5273   0.112   2.595   5.769 -0.2579  0.2117  0.5449
 1199SOL    HW1 5274   0.160   2.618   5.690 -0.9217 -0.7560 -0.1557
 1199SOL    HW2 5275   0.148   2.511   5.796  0.3453  0.7930  1.5960
 1200SOL     OW 5276   8.259   5.076   8.531  0.1397  0.1462 -0.2334
 1200SOL    HW1 5277   8.204   5.100   8.606  0.1149 -0.1797 -0.1484
 1200SOL    HW2 5278   8.196   5.049   8.463 -0.0047  3.0255 -1.3182
 1201SOL     OW 5279   8.959   0.614   5.237  0.6539 -0.6129 -0.8849
 1201SOL    HW1 5280   8.999   0.555   5.301 -1.6029 -0.8857  0.3293
 1201SOL    HW2 5281   8.903   0.557   5.183 -1.4324  0.3320  0.2098
 1202SOL     OW 5282   0.490   5.635   5.104  0.2292  0.2840 -0.4102
 1202SOL    HW1 5283   0.537   5.700   5.156  0.9974  0.7908 -1.7028
 1202SOL    HW2 5284   0.430   5.593   5.166 -0.1357  2.0773  0.4768
 1203SOL     OW 5285   5.564   7.048   8.654  0.5117 -0.1660  0.0091
 1203SOL    HW1 5286   5.552   6.973   8.711 -0.0413 -1.0643 -1.2567
 1203SOL    HW2 5287   5.480   7.094   8.657  1.0392  0.7222  1.2278
 1204SOL     OW 5288   7.774   8.365   1.544  0.4126 -0.5625  0.5358
 1204SOL    HW1 5289   7.681   8.344   1.539  0.2480 -0.0686  1.4585
 1204SOL    HW2 5290   7.798   8.348   1.635  0.8463  0.8613  0.6957
 1205SOL     OW 5291   2.943   1.253   0.025 -0.1337  0.1691 -0.0995
 1205SOL    HW1 5292   2.969   1.225  -0.063 -2.0138  0.0016 -0.6331
 1205SOL    HW2 5293   2.848   1.238   0.027 -0.1706  0.5878  1.8074
 1206SOL     OW 5294   1.822   6.788   7.203 -0.3874  0.3952 -0.0499
 1206SOL    HW1 5295   1.745   6.733   7.189 -1.1001  1.7208 -1.6588
 1206SOL    HW2 5296   1.896   6.729   7.192 -1.1702 -0.6781  0.3933
 1207SOL     OW 5297   7.141   5.294   9.229 -0.1503  0.0535  0.3364
 1207SOL    HW1 5298   7.158   5.341   9.311 -0.9676 -0.2306  0.6741
 1207SOL    HW2 5299   7.229   5.276   9.194  0.1773  2.3095 -0.1004
 1208SOL     OW 5300   7.066   2.230   9.040  0.0374  0.1857 -0.7150
 1208SOL    HW1 5301   7.036   2.140   9.033  0.0294  0.0279  1.0955
 1208SOL    HW2 5302   6.994   2.276   9.083  0.8779  0.5759  0.3162
 1209SOL     OW 5303   1.850   2.006   3.246  0.2654 -0.5448  0.1050
 1209SOL    HW1 5304   1.821   1.915   3.241  0.1840 -0.4020 -2.7328
 1209SOL    HW2 5305   1.833   2.042   3.159  2.1146  1.6481  0.5973
 1210SOL     OW 5306   3.302   5.985   5.203  0.0435  0.1635 -0.7583
 1210SOL    HW1 5307   3.241   5.923   5.163 -1.8847  1.7492 -0.3126
 1210SOL    HW2 5308   3.301   5.962   5.296  1.5418 -0.9709 -0.9943
 1211SOL     OW 5309   1.961   6.475   2.897 -0.3259 -0.5416  0.2084
 1211SOL    HW1 5310   1.986   6.550   2.844 -1.6491  0.3120  0.7603
 1211SOL    HW2 5311   2.032   6.466   2.961 -1.1668  1.6227  1.5273
 1212SOL     OW 5312   3.404   8.832   1.917  0.0328  0.3930  0.6604
 1212SOL    HW1 5313   3.378   8.871   1.834 -0.5044  0.3155  0.7865
 1212SOL    HW2 5314   3.450   8.901   1.963 -2.7159  1.5753  1.7508
 1213SOL     OW 5315   4.954   4.903   5.033 -0.1026 -0.1963 -0.5011
 1213SOL    HW1 5316   5.013   4.845   4.984  1.3101  0.8100 -0.0273
 1213SOL    HW2 5317   4.918   4.847   5.102  0.9416 -0.6340 -0.2899
 1214SOL     OW 5318   5.331   8.680   1.681 -0.1419 -0.5135  0.2789
 1214SOL    HW1 5319   5.383   8.757   1.704 -0.7394 -0.9979  3.3628
 1214SOL    HW2 5320   5.316   8.689   1.587  2.8660  1.2454 -0.0991
 1215SOL     OW 5321   0.169   2.705   4.174  0.0908  0.2106  0.3354
 1215SOL    HW1 5322   0.167   2.690   4.268 -0.0846  1.4278  0.5310
 1215SOL    HW2 5323   0.146   2.798   4.163  1.7411  0.5089 -0.7932
 1216SOL     OW 5324   1.661   0.312   4.528 -0.1213 -0.2552  0.1933
 1216SOL    HW1 5325   1.606   0.367   4.583 -0.2844 -0.6017  0.3808
 1216SOL    HW2 5326   1.603   0.241   4.500  0.1113 -0.3843  0.0341
 1217SOL     OW 5327   7.237   7.699   4.431  0.0794 -0.0005 -0.3165
 1217SOL    HW1 5328   7.154   7.650   4.431  0.7361 -1.1613 -2.2039
 1217SOL    HW2 5329   7.299   7.641   4.475 -0.0520  0.8339  1.0179
 1218SOL     OW 5330   4.852   7.039   1.977  0.0191 -0.2688  0.4869
 1218SOL    HW1 5331   4.941   7.006   1.986  0.7937  1.6723 -0.0265
 1218SOL    HW2 5332   4.851   7.086   1.894 -0.8373  1.6853  1.5580
 1219SOL     OW 5333   2.330   1.118   0.108 -0.1996 -0.3767 -0.0528
 1219SOL    HW1 5334   2.335   1.039   0.055 -0.3859  0.3024 -1.0903
 1219SOL    HW2 5335   2.315   1.087   0.197 -0.9559 -1.4676 -0.5652
 1220SOL     OW 5336   7.184   3.135   9.151 -0.1319 -0.0170  0.1276
 1220SOL    HW1 5337   7.187   3.231   9.145 -0.4923 -0.0295 -0.2614
 1220SOL    HW2 5338   7.146   3.107   9.068 -2.2427 -0.3595  1.1773
 1221SOL     OW 5339   2.648   8.296   7.228  0.1712 -0.0821 -0.2770
 1221SOL    HW1 5340   2.709   8.319   7.158 -0.4394  2.8798  0.0908
 1221SOL    HW2 5341   2.625   8.380   7.268 -0.0817 -1.6286  2.9938
 1222SOL     OW 5342   6.913   7.894   3.685  0.6214 -0.4201 -0.1056
 1222SOL    HW1 5343   6.916   7.980   3.727  0.8509  0.1158 -1.2005
 1222SOL    HW2 5344   6.820   7.874   3.679  0.5096  0.3368 -1.0113
 1223SOL     OW 5345   8.401   6.244   6.249 -0.1857 -0.2367 -1.0189
 1223SOL    HW1 5346   8.450   6.235   6.331  0.5273  0.7459 -1.3199
 1223SOL    HW2 5347   8.464   6.219   6.181  0.1463  1.6632 -1.4594
 1224SOL     OW 5348   7.122   1.266   0.778 -0.1379  0.4821 -0.9282
 1224SOL    HW1 5349   7.124   1.274   0.682 -2.3719  1.1499 -0.9653
 1224SOL    HW2 5350   7.171   1.343   0.809  3.0403 -1.2428 -1.5174
 1225SOL     OW 5351   7.949   2.785   3.638 -0.2246  0.5831 -0.5792
 1225SOL    HW1 5352   8.007   2.852   3.602  1.8985 -0.1494  1.3600
 1225SOL    HW2 5353   8.007   2.727   3.688 -2.4019 -1.1273  0.0737
 1226SOL     OW 5354   4.163   1.012   7.958  0.0410  0.7317 -0.0533
 1226SOL    HW1 5355   4.227   1.056   8.014 -1.0555  1.4165  0.6747
 1226SOL    HW2 5356   4.167   1.060   7.875  1.6737 -0.2924 -0.5989
 1227SOL     OW 5357   7.872   2.064   5.068 -0.4768 -0.3192 -0.3855
 1227SOL    HW1 5358   7.953   2.073   5.119 -1.3556  1.0640  0.8215
 1227SOL    HW2 5359   7.838   1.978   5.091 -0.7157  0.1740  1.1766
 1228SOL     OW 5360   8.367   4.396   8.091 -0.0311  0.3231  0.5370
 1228SOL    HW1 5361   8.436   4.373   8.029 -0.8046  0.1221 -0.2588
 1228SOL    HW2 5362   8.287   4.395   8.039 -0.4580  1.9721  1.1304
 1229SOL     OW 5363   1.187   0.467   7.305 -0.5316 -0.7193  0.2218
 1229SOL    HW1 5364   1.271   0.513   7.303 -1.8545  1.7663 -0.0687
 1229SOL    HW2 5365   1.188   0.412   7.226 -0.0267  0.8924 -0.9152
 1230SOL     OW 5366   2.232   6.187   5.335 -0.2871  0.1409 -0.1040
 1230SOL    HW1 5367   2.234   6.221   5.424 -2.2399  0.1483 -0.0425
 1230SOL    HW2 5368   2.275   6.254   5.282  2.1129 -0.4662  0.9848
 1231SOL     OW 5369   0.231   5.240   7.003  0.0828 -0.3021  0.4191
 1231SOL    HW1 5370   0.243   5.145   7.009 -0.2491 -0.3685  0.0590
 1231SOL    HW2 5371   0.317   5.273   6.977 -0.2020 -0.6648 -1.0432
 1232SOL     OW 5372   0.797   6.799   0.177 -0.5219  0.4297  0.3327
 1232SOL    HW1 5373   0.879   6.845   0.195  0.0962 -0.5473  0.0231
 1232SOL    HW2 5374   0.782   6.812   0.083 -0.0558 -0.4667  0.1307
 1233SOL     OW 5375   2.768   1.917   3.970 -0.0273 -0.2635 -0.0640
 1233SOL    HW1 5376   2.815   1.834   3.969 -1.1045 -0.9282  1.9154
 1233SOL    HW2 5377   2.826   1.977   4.017 -0.8545 -0.8999  1.7777
 1234SOL     OW 5378   5.212   1.667   4.547 -0.1566 -0.2823 -0.1860
 1234SOL    HW1 5379   5.183   1.629   4.629 -0.7595  2.0553  0.7253
 1234SOL    HW2 5380   5.161   1.621   4.480  1.1947 -3.0403  0.5994
 1235SOL     OW 5381   6.971   4.239   6.960 -0.2555 -0.1819  0.1613
 1235SOL    HW1 5382   6.884   4.206   6.938 -0.7683 -1.3821  3.6980
 1235SOL    HW2 5383   7.028   4.163   6.955 -0.0024 -0.0438  0.8379
 1236SOL     OW 5384   3.398   1.195   7.054 -0.2573  0.4510  0.3175
 1236SOL    HW1 5385   3.468   1.256   7.034 -0.6805  1.5176  2.0150
 1236SOL    HW2 5386   3.335   1.206   6.983  0.9095  0.0501 -0.7914
 1237SOL     OW 5387   2.426   0.707   1.631 -0.6450 -0.3437  0.2148
 1237SOL    HW1 5388   2.436   0.668   1.718  0.0193 -1.1264 -0.2102
 1237SOL    HW2 5389   2.444   0.636   1.570 -1.0726  0.2124 -0.5723
 1238SOL     OW 5390   7.881   7.178   3.018  0.1568  0.5267  0.2226
 1238SOL    HW1 5391   7.973   7.170   2.994  0.1043  0.0595  0.1733
 1238SOL    HW2 5392   7.874   7.264   3.060  0.4124  0.9903 -0.6713
 1239SOL     OW 5393   3.081   7.873   4.518  0.4458  0.1304  0.0574
 1239SOL    HW1 5394   3.013   7.811   4.489 -0.1885  0.3674  0.9940
 1239SOL    HW2 5395   3.042   7.959   4.504 -0.0364  0.2488  1.9319
 1240SOL     OW 5396   5.341   3.448   6.251  0.5879  0.0056 -1.0079
 1240SOL    HW1 5397   5.307   3.359   6.240  1.6201 -0.5350  0.1675
 1240SOL    HW2 5398   5.264   3.499   6.276  0.4956 -1.0912  1.0506
 1241SOL     OW 5399   5.840   0.428   0.274  0.0345  0.0797  0.1769
 1241SOL    HW1 5400   5.767   0.454   0.217 -0.2552 -0.4177  0.3210
 1241SOL    HW2 5401   5.798   0.401   0.356  0.3253 -0.9018  0.0051
 1242SOL     OW 5402   5.800   7.330   8.372 -0.1209  0.3544 -0.2914
 1242SOL    HW1 5403   5.800   7.270   8.446  1.3256 -0.1691 -0.6876
 1242SOL    HW2 5404   5.863   7.292   8.311 -0.1439  1.6022 -1.1057
 1243SOL     OW 5405   7.465   8.006   0.928  0.5842  1.2950 -0.3432
 1243SOL    HW1 5406   7.373   8.019   0.903 -0.5496 -2.3928  1.4910
 1243SOL    HW2 5407   7.470   8.044   1.016  0.6188  0.7636 -0.1191
 1244SOL     OW 5408   0.233   8.921   1.535  0.4789  1.0191  0.7165
 1244SOL    HW1 5409   0.287   8.860   1.485  1.3564  2.3659  0.0114
 1244SOL    HW2 5410   0.248   8.897   1.626  0.4112 -0.1550  0.4280
 1245SOL     OW 5411   3.473   1.390   5.818  0.5156 -0.1560  0.0267
 1245SOL    HW1 5412   3.511   1.459   5.763  1.2360 -1.3220 -0.9730
 1245SOL    HW2 5413   3.547   1.335   5.842 -0.2631 -1.4405 -0.4450
 1246SOL     OW 5414   2.470   8.987   3.515  0.0911 -0.0637  0.2001
 1246SOL    HW1 5415   2.533   9.032   3.458 -0.8871  1.1330  0.0291
 1246SOL    HW2 5416   2.524   8.943   3.580  1.2103 -1.0561 -1.3666
 1247SOL     OW 5417   5.696   4.194   2.186 -0.2204 -0.0851  0.2233
 1247SOL    HW1 5418   5.706   4.226   2.097  0.9939 -1.4728 -0.1469
 1247SOL    HW2 5419   5.720   4.269   2.241 -2.0710  1.1349 -0.5729
 1248SOL     OW 5420   8.764   3.814   5.474  0.4129  0.2104  0.4174
 1248SOL    HW1 5421   8.817   3.786   5.549  1.1322  3.6141  1.2678
 1248SOL    HW2 5422   8.675   3.823   5.510  0.3885  0.0892  0.3914
 1249SOL     OW 5423   6.297   4.259   6.777 -0.0182  0.1712 -0.1079
 1249SOL    HW1 5424   6.362   4.207   6.729 -0.8100 -0.8300 -0.1159
 1249SOL    HW2 5425   6.295   4.220   6.864 -0.8687 -0.0612 -0.2212
 1250SOL     OW 5426   7.471   8.163   2.675  0.3389  0.5029 -0.4328
 1250SOL    HW1 5427   7.529   8.207   2.613  0.5579  0.0113 -0.5859
 1250SOL    HW2 5428   7.462   8.074   2.640  1.8357 -0.3008  1.1479
 1251SOL     OW 5429   3.490   3.765   8.011 -0.0583 -0.1621 -0.4437
 1251SOL    HW1 5430   3.469   3.682   8.054  1.0164  0.5222  1.4839
 1251SOL    HW2 5431   3.575   3.789   8.047 -0.4471  1.8690 -0.8535
 1252SOL     OW 5432   1.921   5.444   8.583 -0.6836  0.0539 -0.0976
 1252SOL    HW1 5433   1.860   5.476   8.650  0.0191 -0.8710  1.0244
 1252SOL    HW2 5434   1.925   5.513   8.518 -0.3765  1.5487  1.4852
 1253SOL     OW 5435   6.492   8.627   2.378  0.1916 -0.0427 -0.1035
 1253SOL    HW1 5436   6.570   8.579   2.353  0.3442 -0.3471  0.9435
 1253SOL    HW2 5437   6.525   8.701   2.429 -0.1890 -0.0759  0.1930
 1254SOL     OW 5438   0.183   2.195   7.321  0.0622 -0.4578 -0.6202
 1254SOL    HW1 5439   0.221   2.200   7.233 -0.2670  1.9255 -0.6690
 1254SOL    HW2 5440   0.092   2.169   7.307 -0.3285  1.1264 -1.1056
 1255SOL     OW 5441   3.298   3.941   2.370  0.5888  0.3499  0.2820
 1255SOL    HW1 5442   3.333   3.867   2.420  1.5068 -0.0807 -0.9836
 1255SOL    HW2 5443   3.362   4.011   2.383  1.1998  0.0133 -0.8585
 1256SOL     OW 5444   1.898   0.340   4.413 -0.0427  0.5897 -0.2289
 1256SOL    HW1 5445   1.807   0.347   4.444 -0.4084 -0.7846 -0.9705
 1256SOL    HW2 5446   1.920   0.429   4.385 -0.9856  1.0454  0.4172
 1257SOL     OW 5447   0.364   0.593   2.566  0.6986  0.5086 -0.1582
 1257SOL    HW1 5448   0.273   0.613   2.589  0.9975  1.1462  0.4600
 1257SOL    HW2 5449   0.415   0.618   2.643  1.3211 -0.5810 -0.1978
 1258SOL     OW 5450   7.453   3.281   3.341 -0.3171  0.5557 -0.0028
 1258SOL    HW1 5451   7.358   3.293   3.345 -0.3467  0.6079 -0.9208
 1258SOL    HW2 5452   7.487   3.362   3.303 -0.0348 -0.0630 -1.0649
 1259SOL     OW 5453   6.379   2.080   2.843 -0.0128  0.0945  0.5810
 1259SOL    HW1 5454   6.362   2.089   2.937  0.3152 -1.0624  0.7600
 1259SOL    HW2 5455   6.293   2.092   2.802  0.0349  1.8039  0.9254
 1260SOL     OW 5456   6.461   9.190   0.754 -0.1777  0.1507 -0.2054
 1260SOL    HW1 5457   6.507   9.196   0.838 -0.9660  0.3576  0.2140
 1260SOL    HW2 5458   6.506   9.252   0.697 -0.2746  0.7432  0.3628
 1261SOL     OW 5459   6.822   8.359   8.928 -0.1105 -0.3113  0.0594
 1261SOL    HW1 5460   6.788   8.417   8.997 -2.7248  1.4778 -2.5710
 1261SOL    HW2 5461   6.780   8.275   8.944 -1.6013  0.4069  0.0368
 1262SOL     OW 5462   0.567   6.926   1.380 -0.2719  0.1331  0.6574
 1262SOL    HW1 5463   0.593   6.997   1.437 -0.2684 -0.0705  0.9088
 1262SOL    HW2 5464   0.478   6.904   1.407  0.0680 -0.5856  1.2115
 1263SOL     OW 5465   8.878   5.976   4.503  0.8075  0.0805  0.3280
 1263SOL    HW1 5466   8.880   5.949   4.411 -0.4674  1.9220 -0.2840
 1263SOL    HW2 5467   8.968   6.000   4.523  0.9435  0.4699 -0.7049
 1264SOL     OW 5468   4.241   2.391   8.774  0.4212 -0.5723  0.2329
 1264SOL    HW1 5469   4.179   2.319   8.787  0.9091 -0.9799  0.2926
 1264SOL    HW2 5470   4.324   2.357   8.807  1.2017 -0.8352 -1.9819
 1265SOL     OW 5471   8.022   4.769   7.102  0.1430  0.4291  1.1633
 1265SOL    HW1 5472   8.110   4.734   7.117  0.9027  1.7871 -0.0181
 1265SOL    HW2 5473   8.026   4.858   7.138  0.2739  1.6806 -1.8273
 1266SOL     OW 5474   8.536   4.801   8.349 -0.3061 -0.3753 -0.1603
 1266SOL    HW1 5475   8.598   4.805   8.276 -0.6314  0.7614 -0.3725
 1266SOL    HW2 5476   8.459   4.756   8.313 -0.7290  0.7715 -0.7174
 1267SOL     OW 5477   4.944   8.754   5.503  0.4624  0.3481 -0.6342
 1267SOL    HW1 5478   4.866   8.790   5.461 -0.8149 -2.0351 -0.4412
 1267SOL    HW2 5479   4.926   8.762   5.597 -0.1119 -1.2397 -0.5821
 1268SOL     OW 5480   3.071   1.770   9.287 -0.4194 -0.0362  0.2227
 1268SOL    HW1 5481   3.087   1.738   9.375 -1.6436  1.0879  0.8819
 1268SOL    HW2 5482   3.060   1.692   9.233  2.2012 -0.7647  0.6717
 1269SOL     OW 5483   0.502   3.812   2.722 -0.2720  0.3508  0.1826
 1269SOL    HW1 5484   0.537   3.730   2.759 -0.3177  0.0385 -0.4616
 1269SOL    HW2 5485   0.501   3.873   2.796  0.7331  0.0774  0.4372
 1270SOL     OW 5486   0.633   8.982   7.844 -0.4656  0.0328 -0.0949
 1270SOL    HW1 5487   0.618   8.898   7.801 -2.3045 -0.4984  1.4858
 1270SOL    HW2 5488   0.714   8.970   7.894  0.8663  0.1845 -2.1868
 1271SOL     OW 5489   1.208   6.328   5.182  0.0238 -0.1633  0.1650
 1271SOL    HW1 5490   1.291   6.299   5.222  0.2067 -0.8994 -0.7529
 1271SOL    HW2 5491   1.148   6.255   5.196  0.3293 -0.7834 -1.6508
 1272SOL     OW 5492   1.800   6.823   4.119  0.6623  0.2379 -0.1924
 1272SOL    HW1 5493   1.895   6.833   4.117  0.7120 -0.1584  0.3304
 1272SOL    HW2 5494   1.773   6.842   4.029  1.1916  0.7698 -0.2438
 1273SOL     OW 5495   5.863   7.432   0.541 -0.0188  0.0453  0.2152
 1273SOL    HW1 5496   5.780   7.479   0.546  0.2957  0.7350 -0.8706
 1273SOL    HW2 5497   5.866   7.399   0.451  0.4492 -0.7995  0.5351
 1274SOL     OW 5498   8.760   2.640   9.000 -0.6129 -0.5274  0.1785
 1274SOL    HW1 5499   8.706   2.563   8.984 -0.7211 -0.4280  0.0642
 1274SOL    HW2 5500   8.793   2.628   9.089 -2.4928  0.4402  1.0161
 1275SOL     OW 5501   2.846   3.729   0.163  0.6997  0.3005  0.1286
 1275SOL    HW1 5502   2.863   3.651   0.216 -1.7242  0.9956  2.0540
 1275SOL    HW2 5503   2.823   3.695   0.076  1.1670 -1.0590  0.5208
 1276SOL     OW 5504   7.805   5.238   3.910  0.0892  0.3513 -0.7019
 1276SOL    HW1 5505   7.722   5.282   3.889 -0.3971 -0.2057  0.0305
 1276SOL    HW2 5506   7.833   5.200   3.826  0.2865  1.6395 -1.2435
 1277SOL     OW 5507   4.168   2.992   2.397 -0.2238 -0.6587  0.6502
 1277SOL    HW1 5508   4.129   2.905   2.401 -3.4023  0.6046 -1.4175
 1277SOL    HW2 5509   4.250   2.980   2.350 -1.0830 -2.3906 -0.4368
 1278SOL     OW 5510   3.802   1.116   6.922  0.0755 -0.6597 -0.1971
 1278SOL    HW1 5511   3.775   1.202   6.954  0.7426  0.1030 -1.6107
 1278SOL    HW2 5512   3.732   1.091   6.861 -0.2965 -1.2889  0.4802
 1279SOL     OW 5513   7.459   5.935   0.137  0.2686 -0.3440 -0.3031
 1279SOL    HW1 5514   7.434   5.875   0.208  2.3625  0.0090  0.7589
 1279SOL    HW2 5515   7.406   6.013   0.152 -1.6549 -1.4683 -1.0407
 1280SOL     OW 5516   2.742   9.062   3.155 -0.3062 -0.1690  0.1750
 1280SOL    HW1 5517   2.712   9.093   3.241 -1.2194  0.7754 -0.4602
 1280SOL    HW2 5518   2.769   9.142   3.109 -0.8426 -0.5394 -0.7957
 1281SOL     OW 5519   7.830   4.991   4.372 -0.2208 -0.4265  0.2579
 1281SOL    HW1 5520   7.910   4.983   4.320 -1.0019 -1.3625 -0.8199
 1281SOL    HW2 5521   7.775   5.052   4.323 -0.6829 -0.7866  0.3152
 1282SOL     OW 5522   2.536   8.626   5.187  0.4106 -0.2463 -0.2376
 1282SOL    HW1 5523   2.440   8.618   5.191  0.5756 -1.9769  0.9819
 1282SOL    HW2 5524   2.564   8.554   5.131  1.0136  0.2251 -0.5457
 1283SOL     OW 5525   4.100   7.754   5.629 -0.5298 -0.0543  0.6914
 1283SOL    HW1 5526   4.026   7.704   5.595 -0.5412  0.0436  0.5692
 1283SOL    HW2 5527   4.178   7.708   5.596 -0.5286 -0.4087  1.1852
 1284SOL     OW 5528   7.174   7.955   1.175  0.8707  0.0963 -0.2860
 1284SOL    HW1 5529   7.204   7.870   1.207 -0.1618 -0.4241 -0.6985
 1284SOL    HW2 5530   7.203   8.017   1.242 -1.0643 -0.9519  1.5515
 1285SOL     OW 5531   7.163   8.016   5.005 -0.2992 -0.5027 -0.3644
 1285SOL    HW1 5532   7.223   8.064   5.062  0.6600 -0.4275 -1.4022
 1285SOL    HW2 5533   7.163   7.927   5.040 -0.0854 -0.3436  0.0374
 1286SOL     OW 5534   0.592   1.867   5.360  0.1128  0.2349 -0.1880
 1286SOL    HW1 5535   0.620   1.794   5.305 -1.6008 -0.2798 -0.4042
 1286SOL    HW2 5536   0.566   1.827   5.443  0.0263  0.6882  0.0079
 1287SOL     OW 5537   3.803   5.466   1.488 -0.5360  0.8380 -0.1946
 1287SOL    HW1 5538   3.842   5.513   1.561  4.8115 -2.3833 -0.7088
 1287SOL    HW2 5539   3.805   5.528   1.415  4.1345  0.8468 -0.2367
 1288SOL     OW 5540   2.730   8.258   1.187  0.3655 -0.5676  0.0990
 1288SOL    HW1 5541   2.698   8.297   1.106 -0.0198  1.3903  1.1595
 1288SOL    HW2 5542   2.711   8.165   1.179  0.5693 -0.4300 -2.1531
 1289SOL     OW 5543   0.683   9.031   1.827  0.5166 -0.2181  0.0720
 1289SOL    HW1 5544   0.695   9.022   1.922  0.4264  0.2765  0.1289
 1289SOL    HW2 5545   0.592   9.060   1.817  0.5799 -0.0986 -0.1557
 1290SOL     OW 5546   1.297   0.323   2.584 -0.4016 -0.3869  0.0895
 1290SOL    HW1 5547   1.305   0.275   2.666 -1.0286  1.6452  1.3823
 1290SOL    HW2 5548   1.385   0.321   2.547 -0.6538 -3.4725 -0.4840
 1291SOL     OW 5549   2.130   0.846   1.469  0.0969  0.1161 -0.0621
 1291SOL    HW1 5550   2.211   0.868   1.424 -0.4611  1.6974 -0.3012
 1291SOL    HW2 5551   2.079   0.927   1.469 -1.9719 -1.1528 -0.9199
 1292SOL     OW 5552   5.759   4.565   0.538 -0.2611 -0.5204 -0.1606
 1292SOL    HW1 5553   5.768   4.660   0.544  0.7794 -0.5518 -1.1150
 1292SOL    HW2 5554   5.733   4.549   0.447 -3.2266 -0.9582  0.6950
 1293SOL     OW 5555   8.588   2.144   4.840  0.4271  0.0415  0.8031
 1293SOL    HW1 5556   8.596   2.226   4.790 -2.0860 -0.3766 -0.3432
 1293SOL    HW2 5557   8.575   2.173   4.930  0.9217  0.8638  0.6240
 1294SOL     OW 5558   2.784   9.274   2.216  0.3945  0.3273 -0.0484
 1294SOL    HW1 5559   2.784   9.359   2.261  1.8184  0.4967 -0.3389
 1294SOL    HW2 5560   2.719   9.222   2.263 -1.0823  1.8378 -0.3637
 1295SOL     OW 5561   5.948   0.732   4.425  0.0267 -0.7576 -0.1855
 1295SOL    HW1 5562   5.893   0.763   4.498  0.1803  0.3279 -0.5275
 1295SOL    HW2 5563   5.997   0.659   4.462 -0.8447 -1.0455  0.4384
 1296SOL     OW 5564   6.714   2.165   9.003  0.5921 -0.0246  0.0018
 1296SOL    HW1 5565   6.766   2.246   9.007 -0.4196  0.6300  0.0976
 1296SOL    HW2 5566   6.623   2.195   9.002  0.2366 -1.0892 -1.8547
 1297SOL     OW 5567   5.539   5.568   2.610 -0.0125 -0.8478  0.4977
 1297SOL    HW1 5568   5.550   5.587   2.703  0.0021  0.5109  0.2221
 1297SOL    HW2 5569   5.607   5.503   2.591  0.7357 -0.2768  1.1796
 1298SOL     OW 5570   5.935   5.443   0.591 -0.1138  0.2106  0.2184
 1298SOL    HW1 5571   5.918   5.536   0.608 -1.1125  0.4639 -2.0623
 1298SOL    HW2 5572   5.851   5.400   0.606 -0.0981 -0.0714 -0.4950
 1299SOL     OW 5573   5.619   3.833   8.195  0.1093  0.7543 -0.1100
 1299SOL    HW1 5574   5.549   3.897   8.200 -0.0685  0.5682 -0.1970
 1299SOL    HW2 5575   5.589   3.770   8.129 -0.2028 -0.0203  0.7664
 1300SOL     OW 5576   8.578   8.054   0.274  0.8419  0.1541  0.2894
 1300SOL    HW1 5577   8.537   8.055   0.188  0.7879  0.4297  0.3175
 1300SOL    HW2 5578   8.508   8.026   0.333  0.6744  0.6802  0.3451
 1301SOL     OW 5579   4.349   7.971   1.938 -0.1933  0.6226  0.6448
 1301SOL    HW1 5580   4.362   7.926   2.022 -1.9678 -1.5214 -0.1818
 1301SOL    HW2 5581   4.303   8.051   1.961 -0.4796  0.1576  1.7457
 1302SOL     OW 5582   3.820   7.375   4.396  0.0777 -0.0158 -0.0362
 1302SOL    HW1 5583   3.841   7.344   4.484 -1.2716 -0.2580  0.2098
 1302SOL    HW2 5584   3.730   7.407   4.403 -0.3466 -0.8446 -1.5347
 1303SOL     OW 5585   4.346   1.841   3.232 -0.2229 -0.0831  0.8480
 1303SOL    HW1 5586   4.294   1.915   3.201  0.2526 -0.5336 -1.1307
 1303SOL    HW2 5587   4.355   1.856   3.326  0.1439  2.5601  0.4519
 1304SOL     OW 5588   2.744   4.108   8.532 -0.3078  0.1676  0.3009
 1304SOL    HW1 5589   2.762   4.199   8.506 -2.2035  0.1897 -0.9918
 1304SOL    HW2 5590   2.743   4.060   8.449 -2.6789 -0.4212  0.6423
 1305SOL     OW 5591   1.252   0.816   6.194  0.1282  0.2328  0.1902
 1305SOL    HW1 5592   1.311   0.866   6.251 -1.6610  1.2803  1.1735
 1305SOL    HW2 5593   1.220   0.745   6.250  1.9417 -1.5175 -0.9288
 1306SOL     OW 5594   0.616   8.327   3.253 -0.1593 -0.2164 -0.1342
 1306SOL    HW1 5595   0.626   8.258   3.319  1.1454  0.2074  0.1391
 1306SOL    HW2 5596   0.543   8.299   3.199 -2.2564  0.1792  2.4212
 1307SOL     OW 5597   4.645   7.636   2.096 -0.5234  0.0063 -0.4996
 1307SOL    HW1 5598   4.726   7.685   2.106 -0.1512 -0.8869  0.9977
 1307SOL    HW2 5599   4.636   7.624   2.001  0.5098  1.0673 -0.7399
 1308SOL     OW 5600   6.017   8.649   4.532 -0.3366  0.3306  0.2774
 1308SOL    HW1 5601   6.092   8.700   4.562 -0.8849  0.5437  1.2716
 1308SOL    HW2 5602   5.947   8.668   4.594 -0.7753 -1.0485  0.2218
 1309SOL     OW 5603   0.545   3.782   7.373 -0.4900 -0.3059  0.3037
 1309SOL    HW1 5604   0.486   3.740   7.310 -1.4301  2.0369 -0.4109
 1309SOL    HW2 5605   0.631   3.778   7.331 -0.2826 -2.6889  0.8447
 1310SOL     OW 5606   5.319   0.767   5.619  0.3048 -0.2931  0.1454
 1310SOL    HW1 5607   5.265   0.841   5.590 -1.0384 -1.4798 -0.4444
 1310SOL    HW2 5608   5.385   0.806   5.676 -0.0990  1.4230 -0.5443
 1311SOL     OW 5609   1.152   8.745   7.410  0.7149  0.7865 -0.2746
 1311SOL    HW1 5610   1.067   8.781   7.433  1.1253  1.0759  0.8161
 1311SOL    HW2 5611   1.203   8.820   7.378  0.8098  0.7487 -0.2132
 1312SOL     OW 5612   0.263   8.419   9.180 -0.3061 -0.5530  0.3195
 1312SOL    HW1 5613   0.292   8.339   9.222  0.0315 -1.0593 -0.8480
 1312SOL    HW2 5614   0.191   8.451   9.235 -0.5256 -1.7206  0.7166
 1313SOL     OW 5615   8.930   7.273   7.977  0.4977  0.0482  0.1205
 1313SOL    HW1 5616   8.931   7.320   7.894  3.5102 -1.8732 -1.0265
 1313SOL    HW2 5617   8.926   7.342   8.043 -1.8440  1.6142 -1.5594
 1314SOL     OW 5618   2.542   1.555   3.878  0.0003  0.4204  0.1037
 1314SOL    HW1 5619   2.485   1.489   3.839  0.6466 -1.1823  1.7771
 1314SOL    HW2 5620   2.510   1.565   3.967  0.0083  2.2910 -0.0859
 1315SOL     OW 5621   5.881   0.126   3.768 -0.1110 -0.2485  0.5400
 1315SOL    HW1 5622   5.935   0.174   3.831 -0.4138 -1.6829  1.9255
 1315SOL    HW2 5623   5.798   0.112   3.814 -1.3615  1.1037 -1.2117
 1316SOL     OW 5624   4.530   0.937   2.722  0.1666  0.4165  0.3389
 1316SOL    HW1 5625   4.545   1.004   2.789 -1.5261  0.6588  0.4769
 1316SOL    HW2 5626   4.615   0.930   2.677  0.1898  3.1829 -0.1582
 1317SOL     OW 5627   1.546   3.138   0.853 -0.0229  0.0395  0.2030
 1317SOL    HW1 5628   1.508   3.219   0.885  0.6749  0.2281  0.5718
 1317SOL    HW2 5629   1.471   3.086   0.823 -0.6860 -0.0805  1.9886
 1318SOL     OW 5630   4.909   5.717   7.498  0.2333  0.1070 -0.4483
 1318SOL    HW1 5631   4.987   5.663   7.508 -0.1472 -0.9761 -3.0582
 1318SOL    HW2 5632   4.840   5.656   7.476 -1.3224  1.1066  1.4917
 1319SOL     OW 5633   6.800   4.405   4.444 -0.1139 -0.1141 -0.3682
 1319SOL    HW1 5634   6.803   4.351   4.523  1.6618 -0.0825 -0.3913
 1319SOL    HW2 5635   6.721   4.377   4.398 -0.8716 -0.5099  1.1465
 1320SOL     OW 5636   5.882   2.996   3.000  0.5705  0.0250  0.3205
 1320SOL    HW1 5637   5.959   2.973   2.949  1.4048  1.4719  0.8869
 1320SOL    HW2 5638   5.816   3.020   2.934  0.9074 -0.2836 -0.1304
 1321SOL     OW 5639   5.034   4.466   1.551  0.0418  0.2080 -0.9886
 1321SOL    HW1 5640   5.097   4.398   1.528 -0.7150 -1.1447  0.8145
 1321SOL    HW2 5641   4.996   4.492   1.467  1.0501 -0.8903 -1.8057
 1322SOL     OW 5642   9.201   8.628   6.670 -0.4421 -0.1165 -0.1007
 1322SOL    HW1 5643   9.132   8.565   6.692 -0.0523 -0.0694  1.2765
 1322SOL    HW2 5644   9.278   8.596   6.717 -0.3972  1.7021  1.0939
 1323SOL     OW 5645   2.548   7.400   3.803  0.4523 -1.0492 -0.2241
 1323SOL    HW1 5646   2.539   7.317   3.851 -0.1884 -0.7335  0.2179
 1323SOL    HW2 5647   2.458   7.427   3.785  0.6766 -0.9048 -1.1713
 1324SOL     OW 5648   8.400   5.878   3.791  0.1684  0.2889  0.1922
 1324SOL    HW1 5649   8.487   5.913   3.810 -0.4241  0.9972  1.6835
 1324SOL    HW2 5650   8.415   5.807   3.729  1.9149 -0.2331  1.1796
 1325SOL     OW 5651   8.512   6.741   7.921  0.0790  0.3279 -0.8764
 1325SOL    HW1 5652   8.566   6.795   7.977 -2.1933  0.9386  0.7816
 1325SOL    HW2 5653   8.466   6.803   7.864 -0.1659 -0.0466 -1.0940
 1326SOL     OW 5654   8.001   3.080   7.623 -0.1282  0.0889  0.0816
 1326SOL    HW1 5655   8.066   3.055   7.557 -1.7506 -2.5532 -0.5527
 1326SOL    HW2 5656   7.923   3.103   7.573 -0.6130  0.4308  0.9754
 1327SOL     OW 5657   4.144   8.078   1.125 -0.8163 -0.2117 -0.2277
 1327SOL    HW1 5658   4.138   8.134   1.202 -0.3206  2.3998 -1.9952
 1327SOL    HW2 5659   4.173   7.994   1.158  0.1139  1.0832  2.3499
 1328SOL     OW 5660   0.588   7.003   8.859  0.1217 -0.3488 -0.0645
 1328SOL    HW1 5661   0.557   6.981   8.947 -0.7007 -0.5541 -0.4033
 1328SOL    HW2 5662   0.522   7.064   8.825  0.0273 -0.8804 -0.8399
 1329SOL     OW 5663   8.054   2.635   4.334  0.2934  0.0622  0.3705
 1329SOL    HW1 5664   8.111   2.663   4.405 -0.7972 -0.9154  1.6534
 1329SOL    HW2 5665   8.045   2.541   4.346  0.2447 -0.1458 -1.1824
 1330SOL     OW 5666   5.967   1.916   3.557  0.0519  0.1065  0.0639
 1330SOL    HW1 5667   6.040   1.908   3.618 -0.1124  2.6910  0.6648
 1330SOL    HW2 5668   5.931   1.827   3.551  1.4003 -0.6194  2.0516
 1331SOL     OW 5669   0.085   1.258   5.815 -0.1216  0.1490 -0.6714
 1331SOL    HW1 5670   0.132   1.341   5.806  0.0071  0.0023 -1.3415
 1331SOL    HW2 5671  -0.008   1.281   5.806 -0.0734  0.1872 -1.0567
 1332SOL     OW 5672   0.284   3.115   4.439  0.3056  0.0367 -0.2033
 1332SOL    HW1 5673   0.302   3.043   4.378  0.6911  1.1261 -1.3962
 1332SOL    HW2 5674   0.337   3.187   4.407  0.8928  0.4831  1.7420
 1333SOL     OW 5675   0.300   8.687   1.197 -0.1479  0.1024 -0.2925
 1333SOL    HW1 5676   0.340   8.726   1.275  0.8196  0.1458 -0.8088
 1333SOL    HW2 5677   0.325   8.745   1.126 -0.0841 -0.5621 -0.8143
 1334SOL     OW 5678   7.936   4.327   6.118 -0.1883  0.3229 -0.3973
 1334SOL    HW1 5679   7.971   4.330   6.207 -0.5463 -0.7620 -0.2186
 1334SOL    HW2 5680   7.858   4.382   6.120 -1.4210 -1.4277  0.5027
 1335SOL     OW 5681   2.165   1.225   7.289 -0.0054 -0.0836 -0.3547
 1335SOL    HW1 5682   2.122   1.301   7.249 -4.5950 -1.8374  1.0044
 1335SOL    HW2 5683   2.150   1.154   7.227 -1.1731 -1.2626  1.2609
 1336SOL     OW 5684   1.530   2.104   3.351 -0.4686 -0.5131  0.2537
 1336SOL    HW1 5685   1.437   2.093   3.333  0.0949 -0.4897 -3.0303
 1336SOL    HW2 5686   1.551   2.035   3.415 -2.5535 -1.0018  0.4424
 1337SOL     OW 5687   5.847   2.771   4.642  0.1467  0.3157  0.3961
 1337SOL    HW1 5688   5.902   2.846   4.619  2.3101 -0.8891  1.3911
 1337SOL    HW2 5689   5.865   2.756   4.735 -1.3222 -0.5850  0.5523
 1338SOL     OW 5690   8.876   5.271   8.104 -0.3826 -0.1071  0.1601
 1338SOL    HW1 5691   8.809   5.223   8.054 -0.5054 -0.5937  0.7890
 1338SOL    HW2 5692   8.826   5.323   8.167 -0.1303 -1.4450  1.4974
 1339SOL     OW 5693   0.772   3.947   3.378 -0.0843  0.3082 -0.6821
 1339SOL    HW1 5694   0.712   3.873   3.377 -0.8562  0.9217  0.0322
 1339SOL    HW2 5695   0.735   4.009   3.315  0.4220  0.1979 -1.0900
 1340SOL     OW 5696   1.647   4.518   7.694  0.0310 -0.3269  0.4765
 1340SOL    HW1 5697   1.678   4.483   7.778  1.7793  1.1639  0.4733
 1340SOL    HW2 5698   1.683   4.458   7.628  0.1361 -0.4804  0.6754
 1341SOL     OW 5699   5.098   8.878   6.199 -0.3371 -0.3057  0.1561
 1341SOL    HW1 5700   5.189   8.896   6.225 -0.6211  0.4425  0.6197
 1341SOL    HW2 5701   5.107   8.831   6.116  0.4059  2.5589 -1.4641
 1342SOL     OW 5702   2.889   5.697   0.015 -0.0466 -0.1705  0.2318
 1342SOL    HW1 5703   2.901   5.668  -0.076 -1.6720  0.2404 -0.1118
 1342SOL    HW2 5704   2.836   5.628   0.055 -0.7498  0.4799  0.4227
 1343SOL     OW 5705   6.202   6.566   9.067  0.2243 -0.4488 -0.1859
 1343SOL    HW1 5706   6.265   6.543   8.999 -0.7630 -2.0126 -0.6093
 1343SOL    HW2 5707   6.154   6.485   9.083  0.3084 -0.0563  2.2553
 1344SOL     OW 5708   2.443   0.346   7.293  0.0982  0.1497  0.1220
 1344SOL    HW1 5709   2.356   0.349   7.254  0.6989  0.3731 -1.2290
 1344SOL    HW2 5710   2.498   0.398   7.234  1.7563 -2.3211 -0.5871
 1345SOL     OW 5711   5.640   6.820   0.905  0.1756  0.3935  0.2633
 1345SOL    HW1 5712   5.631   6.754   0.974  0.0704 -0.0419 -0.1643
 1345SOL    HW2 5713   5.586   6.787   0.833  1.3706  0.1555 -0.5377
 1346SOL     OW 5714   4.555   2.535   5.884  0.3537 -0.3239 -0.6927
 1346SOL    HW1 5715   4.548   2.441   5.898  0.7394 -0.0133  1.6641
 1346SOL    HW2 5716   4.520   2.575   5.964  0.2253  1.5464 -1.6336
 1347SOL     OW 5717   1.395   8.258   1.754  0.3951 -0.1992 -0.0537
 1347SOL    HW1 5718   1.301   8.246   1.747  0.4568 -0.4697 -0.4694
 1347SOL    HW2 5719   1.416   8.326   1.690  0.2074  1.3417  1.4805
 1348SOL     OW 5720   9.074   6.081   0.988 -0.6450  0.5082  0.0321
 1348SOL    HW1 5721   9.159   6.075   0.945 -1.4133 -1.2720 -1.3482
 1348SOL    HW2 5722   9.038   6.164   0.959  0.2322  0.8366 -0.1244
 1349SOL     OW 5723   0.087   6.884   8.247  0.3254 -0.3402 -0.3539
 1349SOL    HW1 5724   0.120   6.812   8.300 -0.4821 -0.7016 -0.3290
 1349SOL    HW2 5725   0.162   6.915   8.197  0.5109 -1.6694 -0.8949
 1350SOL     OW 5726   2.310   1.038   3.749  0.4151  0.4355  0.5093
 1350SOL    HW1 5727   2.337   1.122   3.786 -0.5197  0.6686  0.6572
 1350SOL    HW2 5728   2.375   0.976   3.783 -0.3258  0.6666  2.4393
 1351SOL     OW 5729   4.222   1.896   2.817  0.3136  0.4899  0.1192
 1351SOL    HW1 5730   4.231   1.873   2.725  0.9334  0.9577  0.0632
 1351SOL    HW2 5731   4.311   1.905   2.849  0.0833  1.5850  0.4526
 1352SOL     OW 5732   8.040   4.325   6.583 -0.0656  0.7272 -0.7103
 1352SOL    HW1 5733   8.014   4.387   6.515 -1.3717  0.1734 -0.7252
 1352SOL    HW2 5734   8.081   4.379   6.650 -0.6967  1.5439 -0.9732
 1353SOL     OW 5735   4.609   1.990   0.975 -0.1497 -0.1236  0.0572
 1353SOL    HW1 5736   4.568   1.905   0.955  0.8854 -0.5976 -0.1100
 1353SOL    HW2 5737   4.651   1.977   1.059 -0.2086  0.3129  0.1546
 1354SOL     OW 5738   5.722   3.048   2.452  0.0257  0.0853 -0.4008
 1354SOL    HW1 5739   5.773   3.040   2.372  0.5953  0.4580 -0.0794
 1354SOL    HW2 5740   5.649   2.987   2.441  0.4161 -0.2756 -0.9631
 1355SOL     OW 5741   7.813   5.245   0.581 -0.4775 -0.1036  0.1597
 1355SOL    HW1 5742   7.901   5.228   0.614  0.1760  0.4238 -1.2794
 1355SOL    HW2 5743   7.817   5.335   0.548 -1.5212 -0.1181 -0.0208
 1356SOL     OW 5744   0.821   1.412   2.740  0.1692  0.3584  0.2839
 1356SOL    HW1 5745   0.805   1.348   2.670  1.3328  0.8941 -0.4805
 1356SOL    HW2 5746   0.753   1.478   2.728 -1.8908 -1.3733  1.8959
 1357SOL     OW 5747   7.413   3.903   7.817 -0.5735  0.1280  0.3117
 1357SOL    HW1 5748   7.420   3.963   7.892  0.3213  0.7940 -0.2896
 1357SOL    HW2 5749   7.461   3.947   7.747 -2.9108  0.3567 -1.2064
 1358SOL     OW 5750   0.208   0.463   4.941  0.5164  0.1281  0.1410
 1358SOL    HW1 5751   0.139   0.477   5.006 -0.4155  0.4025 -0.8895
 1358SOL    HW2 5752   0.287   0.498   4.982  0.0369 -0.0958  1.2968
 1359SOL     OW 5753   4.483   6.349   0.851 -0.3624 -0.1896  0.0603
 1359SOL    HW1 5754   4.466   6.428   0.799 -2.2690 -0.3458  0.4152
 1359SOL    HW2 5755   4.578   6.347   0.860 -0.2677  1.9270 -0.1708
 1360SOL     OW 5756   0.325   7.982   6.933  0.0234 -0.0190  0.3042
 1360SOL    HW1 5757   0.402   7.957   6.984  0.6438  1.8883  0.3699
 1360SOL    HW2 5758   0.358   8.046   6.869 -1.1569 -0.6604 -0.9721
 1361SOL     OW 5759   0.479   3.990   7.769  0.2295 -0.2582 -0.2097
 1361SOL    HW1 5760   0.432   4.050   7.826  0.3513  0.2712 -0.6571
 1361SOL    HW2 5761   0.543   3.947   7.825  0.0866 -0.0245  0.1294
 1362SOL     OW 5762   6.960   1.223   8.506  0.2032 -0.3517  0.3580
 1362SOL    HW1 5763   6.999   1.254   8.424 -0.4145 -0.1407  0.1420
 1362SOL    HW2 5764   6.870   1.256   8.504  0.1559 -0.4276  1.0762
 1363SOL     OW 5765   8.080   0.299   6.119 -0.6270 -0.0127  0.1284
 1363SOL    HW1 5766   8.128   0.253   6.187 -0.1027 -0.0289 -0.2513
 1363SOL    HW2 5767   8.066   0.387   6.154  0.9051  0.4269 -0.3286
 1364SOL     OW 5768   2.572   7.823   8.571 -0.0379 -0.1501 -0.2248
 1364SOL    HW1 5769   2.513   7.826   8.646 -0.9769 -1.3775 -0.9124
 1364SOL    HW2 5770   2.551   7.902   8.521  2.5691  2.2311  2.2400
 1365SOL     OW 5771   4.752   6.333   0.949 -0.1532 -0.4065 -0.2802
 1365SOL    HW1 5772   4.834   6.303   0.911 -0.0864  0.2903 -0.6797
 1365SOL    HW2 5773   4.728   6.264   1.012  0.7979 -0.5461 -0.0713
 1366SOL     OW 5774   5.143   5.296   4.829  0.3562 -0.1307  0.0857
 1366SOL    HW1 5775   5.092   5.342   4.762  0.4798 -0.3128 -0.1362
 1366SOL    HW2 5776   5.210   5.249   4.779 -0.2370 -1.1570  0.2417
 1367SOL     OW 5777   4.601   1.824   8.422  0.0696 -0.2666  0.1658
 1367SOL    HW1 5778   4.527   1.852   8.368 -1.2806 -2.6261  0.7120
 1367SOL    HW2 5779   4.640   1.905   8.453 -2.6090  1.0380  0.2740
 1368SOL     OW 5780   1.379   0.902   6.460  0.0248 -0.2194  0.2597
 1368SOL    HW1 5781   1.388   0.838   6.530  1.9176  0.1136  0.3594
 1368SOL    HW2 5782   1.378   0.987   6.504  0.6315 -0.0375 -0.0627
 1369SOL     OW 5783   3.785   7.332   0.109 -0.3055 -0.1188 -0.3301
 1369SOL    HW1 5784   3.829   7.247   0.107  2.5983  1.2028  2.2747
 1369SOL    HW2 5785   3.750   7.339   0.198  0.8148  2.0019 -0.0308
 1370SOL     OW 5786   4.207   5.223   7.437 -0.2159  0.2864 -0.3514
 1370SOL    HW1 5787   4.177   5.143   7.394  2.8209 -0.8651 -0.4090
 1370SOL    HW2 5788   4.237   5.279   7.365 -0.0892  0.4952 -0.1343
 1371SOL     OW 5789   4.057   7.330   6.840  0.4740  0.2536 -0.6566
 1371SOL    HW1 5790   4.025   7.240   6.844  1.2893  0.0115  0.7665
 1371SOL    HW2 5791   3.986   7.382   6.878  0.1589  0.1739 -1.1310
 1372SOL     OW 5792   8.219   7.246   3.286  0.0408 -0.0382 -0.3839
 1372SOL    HW1 5793   8.285   7.298   3.333  1.2809 -0.8455 -1.1862
 1372SOL    HW2 5794   8.149   7.307   3.266  1.6083  1.3873 -1.5825
 1373SOL     OW 5795   1.546   1.005   2.446  0.3299 -0.6836 -0.1132
 1373SOL    HW1 5796   1.548   1.099   2.466 -0.6917 -0.6992  0.1031
 1373SOL    HW2 5797   1.547   1.001   2.351  0.2432 -0.4420 -0.1272
 1374SOL     OW 5798   9.258   8.149   3.277  0.2589 -0.3762  0.3640
 1374SOL    HW1 5799   9.240   8.241   3.257 -0.6144 -0.6601 -0.1922
 1374SOL    HW2 5800   9.330   8.126   3.217  0.8289  0.0814  0.8653
 1375SOL     OW 5801   0.041   6.017   7.995  0.9322 -0.0337 -0.6916
 1375SOL    HW1 5802  -0.050   5.990   7.978  0.5083  1.3090 -0.6002
 1375SOL    HW2 5803   0.087   5.995   7.914  1.2220 -3.6373  0.3760
 1376SOL     OW 5804   1.779   3.336   5.385 -0.1003  0.0616  0.4832
 1376SOL    HW1 5805   1.700   3.283   5.379 -0.8106  1.1855 -0.4511
 1376SOL    HW2 5806   1.766   3.406   5.321  1.6742  0.2428  0.2789
 1377SOL     OW 5807   3.913   2.856   7.133  0.6723  0.1447  0.1618
 1377SOL    HW1 5808   3.981   2.923   7.123  1.3681 -0.7411 -1.1210
 1377SOL    HW2 5809   3.839   2.890   7.084  0.5123  0.6460  0.7357
 1378SOL     OW 5810   0.201   6.925   8.888  0.1542 -0.1539 -0.4498
 1378SOL    HW1 5811   0.168   6.972   8.812  0.8410  1.2115  0.0809
 1378SOL    HW2 5812   0.285   6.889   8.859  0.0404 -0.3175 -0.5794
 1379SOL     OW 5813   3.642   4.066   0.575 -0.0634 -0.1679  0.9855
 1379SOL    HW1 5814   3.727   4.021   0.583  1.4582  2.1944 -1.2076
 1379SOL    HW2 5815   3.578   3.996   0.580  2.0823 -2.2072  1.0366
 1380SOL     OW 5816   3.347   8.113   2.928  0.1354 -0.0290  0.0466
 1380SOL    HW1 5817   3.304   8.033   2.895 -0.0717 -0.0753  0.4284
 1380SOL    HW2 5818   3.282   8.182   2.914 -0.1936 -0.1529  0.9157
 1381SOL     OW 5819   5.204   5.836   5.895  0.4076 -0.1135  0.7783
 1381SOL    HW1 5820   5.248   5.915   5.926  1.1000 -0.4027  0.5369
 1381SOL    HW2 5821   5.245   5.817   5.811  0.8630 -1.2386  1.2453
 1382SOL     OW 5822   0.153   1.058   2.681 -0.0421  0.0785  0.0760
 1382SOL    HW1 5823   0.248   1.070   2.688 -0.2526  1.5985  0.4889
 1382SOL    HW2 5824   0.137   0.973   2.722  1.0284  0.2720  0.9340
 1383SOL     OW 5825   1.073   4.684   6.558 -0.3407 -0.3314 -0.3584
 1383SOL    HW1 5826   1.108   4.598   6.536  0.9758  0.0204  0.3088
 1383SOL    HW2 5827   1.039   4.674   6.647  0.2921 -0.0312 -0.0797
 1384SOL     OW 5828   1.700   6.140   7.432  0.3101  0.0132 -0.2838
 1384SOL    HW1 5829   1.770   6.203   7.416  0.8257 -0.5746 -0.3511
 1384SOL    HW2 5830   1.727   6.094   7.511 -1.4588  1.8265  1.4405
 1385SOL     OW 5831   6.765   3.107   8.477  0.3471 -0.2877 -0.1105
 1385SOL    HW1 5832   6.675   3.076   8.469 -0.6873  2.8120 -1.3905
 1385SOL    HW2 5833   6.769   3.184   8.420  3.7085 -0.1426  0.2314
 1386SOL     OW 5834   3.946   8.978   4.046 -0.1342 -0.1275 -0.0183
 1386SOL    HW1 5835   3.946   9.059   3.995 -1.8891 -0.2768 -0.2810
 1386SOL    HW2 5836   3.898   8.915   3.993 -0.0902 -0.9182  0.8507
 1387SOL     OW 5837   2.979   0.237   4.144  0.2842  0.2257 -0.3150
 1387SOL    HW1 5838   2.999   0.232   4.051  0.0597 -0.7210 -0.3180
 1387SOL    HW2 5839   2.884   0.246   4.149  0.3435  0.8028 -0.1912
 1388SOL     OW 5840   4.463   4.655   4.821 -0.1211  0.4201  0.0538
 1388SOL    HW1 5841   4.422   4.720   4.764  0.5586  0.1815 -0.7117
 1388SOL    HW2 5842   4.557   4.667   4.809  0.0253  0.1458  0.8754
 1389SOL     OW 5843   2.325   4.292   5.042  0.3186  0.0060  0.3721
 1389SOL    HW1 5844   2.413   4.264   5.018  0.2579 -0.1852  0.3783
 1389SOL    HW2 5845   2.273   4.278   4.963  0.5872  1.4006 -0.0810
 1390SOL     OW 5846   8.434   3.961   8.269 -0.3235  0.1928 -0.3301
 1390SOL    HW1 5847   8.430   3.979   8.175 -0.9677  0.2152 -0.3019
 1390SOL    HW2 5848   8.476   4.039   8.307  3.0744 -1.2239 -0.9725
 1391SOL     OW 5849   4.758   1.790   2.469  0.1531 -0.2968 -0.5335
 1391SOL    HW1 5850   4.731   1.725   2.403  0.9286  0.3658 -1.5242
 1391SOL    HW2 5851   4.757   1.873   2.422  2.0819 -0.0045 -0.0934
 1392SOL     OW 5852   0.158   2.366   4.116  0.3287 -0.3688 -0.5593
 1392SOL    HW1 5853   0.218   2.302   4.076  1.3082  0.1677  0.0501
 1392SOL    HW2 5854   0.214   2.438   4.144 -0.4413 -0.4304  1.1907
 1393SOL     OW 5855   1.921   0.621   6.627  0.0653  0.1033  0.2522
 1393SOL    HW1 5856   1.911   0.625   6.531  1.2909  0.4129  0.1296
 1393SOL    HW2 5857   2.011   0.591   6.640 -0.5464 -1.3426  1.3135
 1394SOL     OW 5858   5.112   8.759   2.844 -0.3350 -0.1920 -0.2954
 1394SOL    HW1 5859   5.202   8.777   2.817 -0.6941  1.2588 -0.5404
 1394SOL    HW2 5860   5.057   8.808   2.782 -1.2747 -0.5078  0.2729
 1395SOL     OW 5861   2.210   2.921   2.550 -0.1798 -0.1948 -0.1715
 1395SOL    HW1 5862   2.303   2.945   2.554 -0.2497  0.1972 -0.8346
 1395SOL    HW2 5863   2.177   2.940   2.638  0.4228 -0.5715  0.1387
 1396SOL     OW 5864   7.157   0.080   0.806 -0.0485 -0.4810  0.0427
 1396SOL    HW1 5865   7.149   0.041   0.719  1.6629  0.4734 -0.5664
 1396SOL    HW2 5866   7.134   0.172   0.792 -1.8189 -0.7548  1.0234
 1397SOL     OW 5867   5.822   3.035   1.157 -0.5525  0.4202  0.0292
 1397SOL    HW1 5868   5.902   3.009   1.111 -1.3765 -1.7474 -0.2287
 1397SOL    HW2 5869   5.833   3.129   1.172  1.5519  0.3684 -0.9677
 1398SOL     OW 5870   0.891   8.640   5.604 -0.2264  0.3318 -0.1851
 1398SOL    HW1 5871   0.825   8.626   5.671 -2.6662  0.3876 -2.4670
 1398SOL    HW2 5872   0.894   8.735   5.593 -0.3252  0.2929 -0.5785
 1399SOL     OW 5873   2.740   3.225   6.176 -0.6137  0.2403  0.0677
 1399SOL    HW1 5874   2.727   3.161   6.247  0.7958  0.7808  0.8467
 1399SOL    HW2 5875   2.668   3.287   6.186 -2.2979 -1.4591 -1.0035
 1400SOL     OW 5876   4.473   2.553   5.387  0.0476  0.1349  0.0477
 1400SOL    HW1 5877   4.381   2.531   5.373  0.2192  0.0667 -0.9834
 1400SOL    HW2 5878   4.489   2.532   5.479 -0.9946  0.2481  0.2582
 1401SOL     OW 5879   8.223   5.596   2.454  0.1543 -0.1867  0.3318
 1401SOL    HW1 5880   8.237   5.506   2.426 -3.2597 -0.2566 -1.3547
 1401SOL    HW2 5881   8.226   5.593   2.549  2.9766 -1.5384  0.2261
 1402SOL     OW 5882   6.158   7.521   5.252 -0.0805 -0.3369 -0.0506
 1402SOL    HW1 5883   6.185   7.438   5.215  0.4888  0.5814 -1.7181
 1402SOL    HW2 5884   6.076   7.502   5.298  1.6204 -2.4422  2.2092
 1403SOL     OW 5885   8.602   5.306   8.815 -0.4887 -0.5653  0.1587
 1403SOL    HW1 5886   8.559   5.370   8.872 -2.7417 -1.5892 -0.3199
 1403SOL    HW2 5887   8.586   5.340   8.726  1.8299  0.3060  0.0314
 1404SOL     OW 5888   7.535   0.648   0.737  0.5756 -0.3175 -0.2538
 1404SOL    HW1 5889   7.572   0.729   0.770  2.2581 -0.3380 -2.0205
 1404SOL    HW2 5890   7.473   0.620   0.805  2.4215  0.6941  1.8983
 1405SOL     OW 5891   4.620   2.144   1.795 -0.5792 -0.2152 -0.1882
 1405SOL    HW1 5892   4.534   2.180   1.772 -0.7435 -0.3783  0.1639
 1405SOL    HW2 5893   4.603   2.052   1.815 -0.2079 -0.4166 -0.7851
 1406SOL     OW 5894   7.050   0.710   2.604  0.0443 -0.6970 -0.2967
 1406SOL    HW1 5895   7.103   0.759   2.541 -0.9413 -0.9310 -1.3208
 1406SOL    HW2 5896   7.066   0.754   2.687  0.6873  0.1535 -0.8526
 1407SOL     OW 5897   8.061   1.992   2.245  0.1927  0.0275 -0.3527
 1407SOL    HW1 5898   7.980   2.037   2.268 -0.0242 -0.2527 -0.5646
 1407SOL    HW2 5899   8.063   1.992   2.150 -0.2635 -1.2116 -0.3728
 1408SOL     OW 5900   3.026   6.832   3.149 -0.5594 -0.7370  0.4512
 1408SOL    HW1 5901   2.944   6.797   3.113  0.3349 -1.9248 -0.4278
 1408SOL    HW2 5902   3.081   6.848   3.073  0.1385 -0.1667  1.0653
 1409SOL     OW 5903   7.142   0.654   8.596  0.7155 -0.3714  0.3030
 1409SOL    HW1 5904   7.153   0.713   8.670  1.7267  1.8389 -1.5261
 1409SOL    HW2 5905   7.205   0.584   8.611 -0.6858 -1.1824  2.6419
 1410SOL     OW 5906   3.907   8.640   0.190 -0.3517 -0.3840  0.1384
 1410SOL    HW1 5907   3.968   8.603   0.254 -2.0156 -0.2756  1.8318
 1410SOL    HW2 5908   3.902   8.733   0.213 -1.6501 -0.5226  0.4595
 1411SOL     OW 5909   7.968   0.804   1.915 -0.0683 -0.0495  0.9291
 1411SOL    HW1 5910   7.970   0.708   1.911 -1.1110 -0.0307 -0.2727
 1411SOL    HW2 5911   7.876   0.825   1.933  0.5339  0.6770  3.4284
 1412SOL     OW 5912   4.816   4.337   9.136 -0.2392 -0.6063 -0.1351
 1412SOL    HW1 5913   4.771   4.358   9.054  0.2401 -1.9646 -0.7668
 1412SOL    HW2 5914   4.746   4.310   9.195 -0.4404 -1.1945 -0.6244
 1413SOL     OW 5915   1.282   1.108   4.487 -0.0506 -0.0331  0.2607
 1413SOL    HW1 5916   1.212   1.064   4.440 -0.0175  1.0977 -0.8697
 1413SOL    HW2 5917   1.360   1.055   4.470 -0.2020 -0.0831 -0.2777
 1414SOL     OW 5918   8.303   6.460   4.464 -0.1578 -0.1698  1.0329
 1414SOL    HW1 5919   8.246   6.415   4.401 -0.0164  1.7075 -0.4831
 1414SOL    HW2 5920   8.392   6.431   4.440 -0.2378 -0.7752  1.4668
 1415SOL     OW 5921   3.821   8.633   3.374  0.2188 -0.4919 -0.0838
 1415SOL    HW1 5922   3.768   8.664   3.448 -0.7362 -2.1922 -0.0224
 1415SOL    HW2 5923   3.830   8.709   3.317 -2.2206 -0.1523 -0.0511
 1416SOL     OW 5924   6.897   2.845   4.334  0.5581  0.3811  0.1856
 1416SOL    HW1 5925   6.848   2.844   4.251  1.7497 -0.2765 -0.5115
 1416SOL    HW2 5926   6.989   2.847   4.308  1.0236 -2.2782  1.4727
 1417SOL     OW 5927   9.170   6.815   9.149  0.0593  0.5332 -0.2122
 1417SOL    HW1 5928   9.233   6.771   9.092 -0.8455  1.1884 -1.7472
 1417SOL    HW2 5929   9.222   6.880   9.196  0.6859  0.5023 -0.8482
 1418SOL     OW 5930   2.486   8.039   7.745  0.0344  0.6686 -0.7505
 1418SOL    HW1 5931   2.416   8.076   7.798  0.7930  1.0343 -0.0031
 1418SOL    HW2 5932   2.492   7.948   7.772  0.6568  0.9437  0.0445
 1419SOL     OW 5933   3.344   8.358   7.559  0.4623 -0.1717  0.2509
 1419SOL    HW1 5934   3.255   8.327   7.541 -0.0078 -0.2878  2.6108
 1419SOL    HW2 5935   3.333   8.450   7.584  1.0854  0.0118 -0.1434
 1420SOL     OW 5936   0.983   4.071   0.988 -0.0697  0.0495 -0.2177
 1420SOL    HW1 5937   0.909   4.109   0.941  1.0276  1.5796 -0.7383
 1420SOL    HW2 5938   0.973   4.100   1.078  0.5380  1.2635 -0.5302
 1421SOL     OW 5939   8.068   4.597   5.329  0.6744 -0.6946  0.7503
 1421SOL    HW1 5940   8.045   4.532   5.263  0.2218 -1.0781  1.2710
 1421SOL    HW2 5941   8.153   4.631   5.302  1.0707 -1.7539  0.6546
 1422SOL     OW 5942   5.620   0.679   2.343  0.5538 -0.2056  0.0002
 1422SOL    HW1 5943   5.536   0.717   2.316 -0.1630 -1.7726  0.0049
 1422SOL    HW2 5944   5.619   0.686   2.438 -0.2330 -1.5837  0.1000
 1423SOL     OW 5945   8.652   3.911   2.688 -0.1808  0.5399 -0.4099
 1423SOL    HW1 5946   8.675   3.988   2.741 -1.6125 -0.4960  1.7905
 1423SOL    HW2 5947   8.621   3.847   2.752 -0.0115 -1.4936 -2.3328
 1424SOL     OW 5948   3.674   6.378   2.106  0.1959  0.2627 -0.2711
 1424SOL    HW1 5949   3.674   6.291   2.145  1.3215 -0.7809 -2.5279
 1424SOL    HW2 5950   3.584   6.390   2.074  0.1406 -0.2338 -0.3054
 1425SOL     OW 5951   0.462   5.778   7.159 -0.6445 -0.1090 -0.4570
 1425SOL    HW1 5952   0.422   5.768   7.073 -1.6615 -0.6013  0.0725
 1425SOL    HW2 5953   0.505   5.694   7.176 -1.2789 -0.3512 -0.0553
 1426SOL     OW 5954   4.061   2.100   0.849 -0.6139  0.2448  0.3277
 1426SOL    HW1 5955   4.099   2.015   0.874  0.2198  0.0397 -1.5823
 1426SOL    HW2 5956   4.136   2.159   0.842 -0.7525  0.1769 -2.1179
 1427SOL     OW 5957   7.009   0.485   8.908 -0.3548 -0.6130  0.6486
 1427SOL    HW1 5958   7.043   0.436   8.833 -0.7568  1.4349 -0.9136
 1427SOL    HW2 5959   6.914   0.481   8.898 -0.3911  0.3826  0.5703
 1428SOL     OW 5960   0.255   4.977   1.471  0.5387 -0.4744  0.3579
 1428SOL    HW1 5961   0.208   5.053   1.505  1.8515 -1.0785  3.7581
 1428SOL    HW2 5962   0.217   4.902   1.518  2.3938 -1.3581  0.4866
 1429SOL     OW 5963   6.948   2.915   2.814 -0.2243  0.1591 -0.1613
 1429SOL    HW1 5964   6.996   2.837   2.789  0.5187  0.0588  1.4954
 1429SOL    HW2 5965   6.955   2.974   2.738 -0.0947 -1.0411 -1.0897
 1430SOL     OW 5966   7.234   3.845   9.148 -0.0778  0.2198  0.3462
 1430SOL    HW1 5967   7.181   3.771   9.177  0.8468 -0.5054  0.2199
 1430SOL    HW2 5968   7.318   3.806   9.123  0.1669  1.2156 -0.4293
 1431SOL     OW 5969   0.011   8.932   5.168 -0.2400 -0.0743  0.1732
 1431SOL    HW1 5970  -0.027   9.014   5.136 -0.8232 -0.3386  0.1746
 1431SOL    HW2 5971   0.027   8.881   5.089 -2.4550 -1.0628  0.3112
 1432SOL     OW 5972   4.937   4.906   5.621  0.0093 -0.1416 -0.0125
 1432SOL    HW1 5973   4.844   4.883   5.627  0.4209 -1.5826  0.9416
 1432SOL    HW2 5974   4.955   4.907   5.527 -0.3381 -2.4801 -0.1266
 1433SOL     OW 5975   0.499   0.455   4.512  0.1113  0.3049 -0.2608
 1433SOL    HW1 5976   0.548   0.433   4.592  1.0243 -0.9750 -1.1553
 1433SOL    HW2 5977   0.460   0.373   4.484 -1.0270  0.9511 -0.6039
 1434SOL     OW 5978   8.620   3.254   2.454 -0.2773  0.0944  0.0412
 1434SOL    HW1 5979   8.706   3.275   2.491  0.3765  0.9733 -1.8957
 1434SOL    HW2 5980   8.591   3.335   2.413 -0.9946 -0.8192 -1.3036
 1435SOL     OW 5981   4.119   1.506   9.277  0.0843 -0.0518 -0.1543
 1435SOL    HW1 5982   4.123   1.588   9.328  0.5134 -0.1335 -0.0514
 1435SOL    HW2 5983   4.152   1.440   9.338 -1.3225 -0.4935  0.1435
 1436SOL     OW 5984   7.479   4.812   1.358 -0.3267 -0.6433 -0.0737
 1436SOL    HW1 5985   7.491   4.717   1.352  1.4090 -0.3540 -1.5014
 1436SOL    HW2 5986   7.387   4.823   1.385 -0.5609 -2.7074  0.0483
 1437SOL     OW 5987   8.606   7.570   8.037 -0.3874 -0.5053  0.1109
 1437SOL    HW1 5988   8.636   7.655   8.069 -2.3944  0.4358 -0.4145
 1437SOL    HW2 5989   8.656   7.555   7.957 -0.5231  0.4998 -0.1676
 1438SOL     OW 5990   7.172   4.505   2.141 -0.4123  0.2193  0.5248
 1438SOL    HW1 5991   7.153   4.491   2.049  1.5000  0.6266  0.0439
 1438SOL    HW2 5992   7.237   4.438   2.163 -0.5949  0.3438  1.4886
 1439SOL     OW 5993   0.056   4.272   1.420 -0.1720  0.1285 -0.0383
 1439SOL    HW1 5994  -0.025   4.304   1.458  0.7461  0.0898  2.0139
 1439SOL    HW2 5995   0.055   4.177   1.437  0.6809  0.2507  0.7576
 1440SOL     OW 5996   4.364   8.221   5.022  0.2143 -0.0013  0.1625
 1440SOL    HW1 5997   4.270   8.238   5.022 -0.1861 -2.0499 -0.9739
 1440SOL    HW2 5998   4.398   8.271   4.948  0.2651  1.8312  1.3872
 1441SOL     OW 5999   9.004   0.269   7.362 -0.3184 -0.3886  0.5974
 1441SOL    HW1 6000   8.918   0.228   7.362 -0.1275 -0.7989  1.6452
 1441SOL    HW2 6001   9.011   0.310   7.276 -1.7963  0.1556  0.7213
 1442SOL     OW 6002   2.108   0.817   1.739  0.0897  0.4640 -0.2310
 1442SOL    HW1 6003   2.080   0.909   1.739 -0.4642  0.3202 -2.7334
 1442SOL    HW2 6004   2.155   0.807   1.656  2.5963 -0.8031  1.3149
 1443SOL     OW 6005   3.123   1.053   4.892 -0.2256 -0.5217 -0.0671
 1443SOL    HW1 6006   3.168   1.120   4.841 -1.0555 -0.8255 -1.2199
 1443SOL    HW2 6007   3.133   1.081   4.983  0.4883  0.5031 -0.4542
 1444SOL     OW 6008   8.671   6.621   7.759  0.2557  0.1116 -0.3228
 1444SOL    HW1 6009   8.757   6.657   7.781  0.1473  0.6773 -0.8065
 1444SOL    HW2 6010   8.610   6.670   7.814 -0.0470  1.7337 -2.0789
 1445SOL     OW 6011   5.736   2.939   6.554 -0.2140  0.3206  0.8524
 1445SOL    HW1 6012   5.677   3.006   6.589  0.4712  1.3675  0.0437
 1445SOL    HW2 6013   5.680   2.883   6.501 -0.3639  1.7361 -0.4990
 1446SOL     OW 6014   1.440   8.343   6.814  0.2580 -0.3591  0.0658
 1446SOL    HW1 6015   1.501   8.417   6.814 -0.1637 -0.0051  0.0218
 1446SOL    HW2 6016   1.421   8.327   6.907  1.0589 -1.0110  0.1229
 1447SOL     OW 6017   3.344   7.579   8.606 -0.3878 -0.3063  0.0820
 1447SOL    HW1 6018   3.363   7.553   8.516 -0.6820  0.9208 -0.3387
 1447SOL    HW2 6019   3.371   7.671   8.611 -0.5042 -0.3249  1.2053
 1448SOL     OW 6020   7.502   2.211   0.151  0.3651  0.0526 -0.4976
 1448SOL    HW1 6021   7.537   2.293   0.116  1.5798 -0.2325  0.0229
 1448SOL    HW2 6022   7.575   2.150   0.147 -0.4234 -0.9076 -0.5263
 1449SOL     OW 6023   1.581   1.170   3.412 -0.1965 -0.1955  0.1575
 1449SOL    HW1 6024   1.557   1.100   3.473  0.3706 -0.2905  0.2716
 1449SOL    HW2 6025   1.610   1.124   3.333  1.5644 -0.1321  0.7398
 1450SOL     OW 6026   0.074   6.831   2.292  0.9462  0.1247 -0.4869
 1450SOL    HW1 6027   0.157   6.876   2.271 -0.3555  2.1119 -1.5543
 1450SOL    HW2 6028   0.047   6.793   2.208  1.1995 -1.2711  0.0565
 1451SOL     OW 6029   0.586   5.198   2.760 -0.1451  0.2088 -0.3721
 1451SOL    HW1 6030   0.589   5.207   2.855 -2.6590 -0.5816 -0.2027
 1451SOL    HW2 6031   0.678   5.201   2.733  0.6796 -0.9213  2.1912
 1452SOL     OW 6032   3.141   4.835   8.893 -0.2332  0.1129  0.4012
 1452SOL    HW1 6033   3.113   4.827   8.802  0.1886  2.2787  0.0395
 1452SOL    HW2 6034   3.232   4.804   8.892 -0.5266 -0.7574  0.2789
 1453SOL     OW 6035   3.604   5.554   2.185 -0.4792  0.4862 -0.5168
 1453SOL    HW1 6036   3.615   5.569   2.091  0.0295 -2.1031 -0.9133
 1453SOL    HW2 6037   3.692   5.563   2.221 -0.3557 -0.4179 -0.5897
 1454SOL     OW 6038   1.637   3.318   8.652 -0.2042  0.4050  0.0958
 1454SOL    HW1 6039   1.665   3.287   8.566 -0.0030 -1.3568  0.7897
 1454SOL    HW2 6040   1.551   3.278   8.665  0.1407 -0.0297  1.0740
 1455SOL     OW 6041   8.627   2.136   8.756  0.1922 -0.1551 -0.0102
 1455SOL    HW1 6042   8.679   2.190   8.696 -0.3616  0.8353  0.3714
 1455SOL    HW2 6043   8.689   2.109   8.824  0.3233  0.6098  0.1795
 1456SOL     OW 6044   5.356   1.200   0.951 -0.2328 -0.0813 -0.0060
 1456SOL    HW1 6045   5.448   1.175   0.944 -0.3404 -0.5259  0.1536
 1456SOL    HW2 6046   5.327   1.161   1.033  0.1752  2.4330  1.3687
 1457SOL     OW 6047   5.936   0.447   1.169 -0.0998 -0.6536  0.3474
 1457SOL    HW1 6048   5.940   0.503   1.246  0.0415 -1.4490  0.9216
 1457SOL    HW2 6049   6.028   0.428   1.149 -0.1507 -0.7838  0.2336
 1458SOL     OW 6050   4.756   1.286   6.499 -0.0980 -0.3721  0.1665
 1458SOL    HW1 6051   4.802   1.300   6.582 -0.1320 -1.2352  0.3298
 1458SOL    HW2 6052   4.794   1.206   6.464  1.2878  1.0144 -1.6013
 1459SOL     OW 6053   5.294   1.426   2.515 -0.0049  0.0089 -0.2569
 1459SOL    HW1 6054   5.330   1.497   2.567 -0.1452 -0.2587  0.2113
 1459SOL    HW2 6055   5.344   1.349   2.542  1.3957  0.2496 -2.0848
 1460SOL     OW 6056   2.258   5.866   8.371 -0.3377 -0.1048  0.4323
 1460SOL    HW1 6057   2.249   5.940   8.431 -0.5777 -0.1575  0.4622
 1460SOL    HW2 6058   2.344   5.877   8.331  0.1067 -0.4405  1.2905
 1461SOL     OW 6059   7.202   4.878   7.298 -0.2747  0.4626 -0.3275
 1461SOL    HW1 6060   7.184   4.923   7.215 -0.6327 -0.1898 -0.6132
 1461SOL    HW2 6061   7.166   4.935   7.365 -2.4263 -0.2854 -0.8188
 1462SOL     OW 6062   8.529   5.373   4.964  0.0311  0.0258 -0.5026
 1462SOL    HW1 6063   8.548   5.320   5.041  0.1219 -1.4662 -1.5407
 1462SOL    HW2 6064   8.519   5.310   4.893 -0.5938  1.3472 -1.6105
 1463SOL     OW 6065   1.796   5.019   7.085 -0.4042  0.2034 -0.5851
 1463SOL    HW1 6066   1.844   4.962   7.025 -1.7477 -2.7380  1.0353
 1463SOL    HW2 6067   1.705   4.989   7.079 -0.9195  1.2954  1.3056
 1464SOL     OW 6068   2.833   4.960   6.648  0.6526 -0.0900 -0.0464
 1464SOL    HW1 6069   2.753   4.922   6.611  0.6244  0.3597 -0.4549
 1464SOL    HW2 6070   2.895   4.887   6.651  0.0554 -0.5726  0.7899
 1465SOL     OW 6071   5.281   2.514   8.157  0.3629 -0.2060  0.3870
 1465SOL    HW1 6072   5.315   2.549   8.239 -0.5318 -0.5266  0.9073
 1465SOL    HW2 6073   5.263   2.422   8.176  0.9119 -0.4761 -0.4103
 1466SOL     OW 6074   2.120   2.964   6.498 -0.2029 -0.0267  0.2096
 1466SOL    HW1 6075   2.039   3.016   6.497 -0.1724  0.0245  0.4020
 1466SOL    HW2 6076   2.137   2.946   6.405  0.0000  0.6384  0.1113
 1467SOL     OW 6077   8.663   1.051   9.071 -0.3145  0.6966  0.1647
 1467SOL    HW1 6078   8.628   1.124   9.021  0.0207  0.6471 -0.1393
 1467SOL    HW2 6079   8.592   0.986   9.070  0.0270  0.3340 -1.0072
 1468SOL     OW 6080   5.524   1.306   6.724 -0.3007  0.6176  0.3661
 1468SOL    HW1 6081   5.491   1.242   6.787  0.4733 -1.0247 -0.8642
 1468SOL    HW2 6082   5.466   1.382   6.734 -1.0726 -0.1741  2.0212
 1469SOL     OW 6083   7.470   4.080   3.553  0.0380  0.3156 -0.5731
 1469SOL    HW1 6084   7.383   4.060   3.586  0.0748  1.4304  0.2145
 1469SOL    HW2 6085   7.528   4.062   3.628  0.5954 -1.2856 -1.3601
 1470SOL     OW 6086   0.053   4.147   0.334 -0.5355 -0.1244  0.3822
 1470SOL    HW1 6087  -0.028   4.113   0.295 -0.1345 -0.4114 -0.2037
 1470SOL    HW2 6088   0.078   4.080   0.399 -2.5207  1.5043  2.9108
 1471SOL     OW 6089   3.991   5.604   7.646 -0.0935 -0.5283 -0.3892
 1471SOL    HW1 6090   3.928   5.619   7.575 -0.2608 -0.8229 -0.3031
 1471SOL    HW2 6091   3.978   5.512   7.671 -1.2737  0.0674  1.2480
 1472SOL     OW 6092   4.273   0.142   9.132 -0.2500 -0.1450 -0.0053
 1472SOL    HW1 6093   4.242   0.205   9.197 -2.7370 -0.7659 -0.5508
 1472SOL    HW2 6094   4.327   0.081   9.183 -0.8784  0.2782  1.1941
 1473SOL     OW 6095   1.032   0.806   4.473  0.5515  0.0122  0.0438
 1473SOL    HW1 6096   0.939   0.803   4.451  0.1350 -0.3512  1.7351
 1473SOL    HW2 6097   1.073   0.853   4.400 -1.0094  0.5032 -0.5382
 1474SOL     OW 6098   6.052   7.042   8.633 -0.0856  0.0355  0.1742
 1474SOL    HW1 6099   5.984   7.036   8.700 -0.4685  1.4881 -0.0695
 1474SOL    HW2 6100   6.015   7.097   8.565  0.7999 -0.3512 -0.6351
 1475SOL     OW 6101   9.087   8.441   6.883 -0.1114  0.1169  0.2283
 1475SOL    HW1 6102   9.126   8.370   6.831  0.3868  0.4374  0.1574
 1475SOL    HW2 6103   9.007   8.464   6.836 -1.4277 -1.8524  1.4164
 1476SOL     OW 6104   1.815   6.517   8.767 -0.1205  0.0277 -0.2831
 1476SOL    HW1 6105   1.754   6.521   8.693 -1.7919  1.3331  1.1200
 1476SOL    HW2 6106   1.759   6.523   8.845  1.6414 -0.7710  1.0979
 1477SOL     OW 6107   7.253   1.381   3.079  0.4293  0.1203  0.1176
 1477SOL    HW1 6108   7.176   1.336   3.045  0.4564  1.5447 -1.9018
 1477SOL    HW2 6109   7.220   1.432   3.153 -0.1743 -0.7912  0.4928
 1478SOL     OW 6110   1.032   1.334   3.383  0.3387 -0.4414 -0.0154
 1478SOL    HW1 6111   1.032   1.243   3.413 -1.7498 -0.4366  0.1222
 1478SOL    HW2 6112   1.119   1.348   3.346  1.3599 -1.8799  1.7732
 1479SOL     OW 6113   5.846   1.834   0.890 -0.5418  0.0385  0.1388
 1479SOL    HW1 6114   5.773   1.772   0.897 -0.6882  0.1179 -0.7002
 1479SOL    HW2 6115   5.830   1.881   0.808  1.4733 -1.2110 -0.9723
 1480SOL     OW 6116   7.486   3.410   0.687  0.0524  0.0555  0.0387
 1480SOL    HW1 6117   7.431   3.356   0.629  0.8320 -2.9899  2.0006
 1480SOL    HW2 6118   7.574   3.402   0.651  0.1372  0.1171  0.2302
 1481SOL     OW 6119   1.777   7.899   8.404 -0.2489 -0.4860 -0.0446
 1481SOL    HW1 6120   1.765   7.912   8.498  1.0710  0.0489  0.0626
 1481SOL    HW2 6121   1.715   7.959   8.364  0.8615  1.0628  0.4914
 1482SOL     OW 6122   8.195   1.833   3.086  0.0984  0.2676 -0.3140
 1482SOL    HW1 6123   8.174   1.904   3.148 -0.6528  0.5084 -0.8463
 1482SOL    HW2 6124   8.271   1.790   3.125  0.3254  1.1267  0.2145
 1483SOL     OW 6125   2.534   4.549   0.762  0.2387 -0.1311 -0.1626
 1483SOL    HW1 6126   2.620   4.507   0.768 -0.0201 -0.2634  3.8353
 1483SOL    HW2 6127   2.483   4.491   0.705  2.1264 -1.1809 -0.8347
 1484SOL     OW 6128   2.088   8.311   0.944  0.1390  0.1047  0.7523
 1484SOL    HW1 6129   2.100   8.323   1.038 -0.1982  2.0318  0.5572
 1484SOL    HW2 6130   2.010   8.255   0.937 -1.7704  2.5892  1.5650
 1485SOL     OW 6131   3.533   5.031   6.887 -0.5882  0.0574  0.2388
 1485SOL    HW1 6132   3.463   5.068   6.940 -0.8468 -0.9267  0.5811
 1485SOL    HW2 6133   3.525   5.077   6.803 -1.9279 -0.3579  0.1228
 1486SOL     OW 6134   6.158   7.654   3.616 -0.2642  0.2323  0.1686
 1486SOL    HW1 6135   6.161   7.609   3.531 -0.7803 -0.3190  0.4358
 1486SOL    HW2 6136   6.223   7.609   3.669  1.0008  1.4286 -0.3309
 1487SOL     OW 6137   4.021   6.914   3.160 -0.1753 -0.2006 -0.2196
 1487SOL    HW1 6138   3.974   6.923   3.242 -0.6716  0.9238 -0.6140
 1487SOL    HW2 6139   4.111   6.941   3.181 -0.0890 -0.7786  0.1547
 1488SOL     OW 6140   1.106   8.995   1.887 -0.5780  0.1100 -0.1608
 1488SOL    HW1 6141   1.107   9.009   1.982 -0.6948 -0.0300 -0.1395
 1488SOL    HW2 6142   1.164   8.921   1.873  0.3078  0.8130 -0.3078
 1489SOL     OW 6143   0.107   4.547   1.957  0.4199 -0.5401 -0.4640
 1489SOL    HW1 6144   0.169   4.476   1.949 -0.1299 -1.1174  0.2801
 1489SOL    HW2 6145   0.100   4.584   1.869 -0.9501 -2.8203 -1.3510
 1490SOL     OW 6146   0.940   8.183   6.986 -0.3402 -0.0587 -0.2690
 1490SOL    HW1 6147   0.959   8.089   6.996 -3.7521 -0.5282  2.9704
 1490SOL    HW2 6148   0.984   8.224   7.060 -0.2368  0.6868 -0.7390
 1491SOL     OW 6149   1.688   2.340   4.623  0.0094 -0.1167 -0.0499
 1491SOL    HW1 6150   1.623   2.270   4.629 -1.3996  1.1154 -0.6908
 1491SOL    HW2 6151   1.763   2.299   4.579 -0.4219 -1.4774  0.4658
 1492SOL     OW 6152   2.373   2.716   1.017  0.2631 -0.3240 -0.6382
 1492SOL    HW1 6153   2.427   2.730   1.095  0.4097 -1.2890 -0.5531
 1492SOL    HW2 6154   2.368   2.620   1.009 -2.4898 -0.3002  0.0883
 1493SOL     OW 6155   2.278   8.283   7.783 -0.1979  0.2773 -0.2505
 1493SOL    HW1 6156   2.229   8.209   7.818 -0.3914  0.4081 -0.2412
 1493SOL    HW2 6157   2.332   8.313   7.857 -0.5938  0.5419 -0.0698
 1494SOL     OW 6158   6.067   3.539   8.318  0.4516  0.1162 -0.1877
 1494SOL    HW1 6159   6.141   3.592   8.346  0.5326  0.4968 -1.1043
 1494SOL    HW2 6160   6.095   3.501   8.235 -0.8805  1.3223 -1.2096
 1495SOL     OW 6161   7.913   5.465   2.797 -0.4200 -0.7919 -0.8223
 1495SOL    HW1 6162   7.971   5.405   2.750 -0.4430 -0.7682 -0.8801
 1495SOL    HW2 6163   7.874   5.520   2.729 -0.9257 -1.1643 -0.8366
 1496SOL     OW 6164   8.999   8.119   4.368 -0.0737  0.7050  0.6808
 1496SOL    HW1 6165   8.957   8.172   4.436  0.4704 -0.1587  1.7206
 1496SOL    HW2 6166   8.965   8.152   4.286 -2.6934  0.1133  1.4842
 1497SOL     OW 6167   6.279   1.940   1.360 -0.0190 -0.7328 -0.3994
 1497SOL    HW1 6168   6.295   2.025   1.400  0.1414 -0.3683 -1.2188
 1497SOL    HW2 6169   6.184   1.932   1.358 -0.1550  0.7891 -3.0605
 1498SOL     OW 6170   1.566   4.784   2.972 -0.2176  0.2817  0.4457
 1498SOL    HW1 6171   1.589   4.862   3.022  0.0040  2.2983 -2.6449
 1498SOL    HW2 6172   1.633   4.720   2.996  1.1411  1.8985  1.1086
 1499SOL     OW 6173   0.380   7.613   3.801  0.6818  0.6023 -0.1418
 1499SOL    HW1 6174   0.352   7.702   3.777  1.8440  0.9419 -0.2930
 1499SOL    HW2 6175   0.474   7.612   3.782  0.2862 -1.3476 -2.1540
 1500SOL     OW 6176   3.069   6.152   5.560 -0.1013 -0.1328  0.0278
 1500SOL    HW1 6177   3.071   6.074   5.505  0.5763  0.7413 -1.2007
 1500SOL    HW2 6178   3.144   6.144   5.618 -1.6268 -1.7652  1.8552
 1501SOL     OW 6179   2.225   6.991   0.610 -0.6875  0.2455 -0.5800
 1501SOL    HW1 6180   2.317   6.978   0.584 -0.8870 -0.2228 -1.0543
 1501SOL    HW2 6181   2.225   7.076   0.654  0.1172 -0.0934  0.0969
 1502SOL     OW 6182   1.451   4.080   4.747  0.0763 -0.0370  0.2886
 1502SOL    HW1 6183   1.524   4.030   4.711 -0.1836  0.5142 -1.0233
 1502SOL    HW2 6184   1.375   4.050   4.697 -0.0157  1.9754 -0.8580
 1503SOL     OW 6185   2.958   4.631   7.288 -0.0838 -1.1416  0.6493
 1503SOL    HW1 6186   2.902   4.571   7.238 -0.9280 -1.3714  1.8356
 1503SOL    HW2 6187   2.999   4.575   7.354  0.8946 -0.8153  0.3186
 1504SOL     OW 6188   7.305   0.718   9.085  0.1188  0.1299  0.2643
 1504SOL    HW1 6189   7.232   0.745   9.030  0.4260  0.8380  0.1951
 1504SOL    HW2 6190   7.276   0.636   9.126 -0.8356  0.5812  0.4954
 1505SOL     OW 6191   1.701   1.683   3.676  0.4596  0.2905  0.1469
 1505SOL    HW1 6192   1.637   1.618   3.706  1.0306  0.2126  1.2219
 1505SOL    HW2 6193   1.765   1.632   3.626 -1.9935  0.8088 -3.7025
 1506SOL     OW 6194   2.243   8.974   5.558 -0.2346 -0.2649 -0.5394
 1506SOL    HW1 6195   2.337   8.977   5.577  0.0723 -0.8051 -1.9721
 1506SOL    HW2 6196   2.222   9.063   5.530 -0.4563  0.2362  1.1484
 1507SOL     OW 6197   1.318   1.223   4.200  0.1726 -0.2010  0.3206
 1507SOL    HW1 6198   1.275   1.253   4.279 -0.0277  0.1511  0.0770
 1507SOL    HW2 6199   1.248   1.210   4.137  0.3558 -0.2356  0.1220
 1508SOL     OW 6200   1.850   4.385   5.719 -0.3710 -0.1605  0.2680
 1508SOL    HW1 6201   1.819   4.295   5.711 -1.2830  0.1301  0.4393
 1508SOL    HW2 6202   1.912   4.383   5.791 -0.5931 -0.5993  0.4502
 1509SOL     OW 6203   6.518   2.453   7.955  0.8552 -0.3145  0.1302
 1509SOL    HW1 6204   6.538   2.417   8.042 -0.1972 -0.8993  0.1377
 1509SOL    HW2 6205   6.526   2.378   7.896 -0.5685 -0.3895  0.0278
 1510SOL     OW 6206   3.683   7.923   6.110 -0.0446 -0.2876  0.1439
 1510SOL    HW1 6207   3.647   7.999   6.065 -1.9372 -1.8609 -1.1031
 1510SOL    HW2 6208   3.622   7.906   6.182  0.4120 -0.5815  0.4626
 1511SOL     OW 6209   7.669   2.407   2.024 -0.5011  0.3285  0.7398
 1511SOL    HW1 6210   7.731   2.457   2.077 -1.0471 -0.1024  1.8188
 1511SOL    HW2 6211   7.583   2.428   2.062 -1.1443  1.7892 -1.4182
 1512SOL     OW 6212   7.642   0.605   2.106 -0.9673  0.2828  0.2985
 1512SOL    HW1 6213   7.710   0.664   2.139 -1.4710 -0.4252  2.7036
 1512SOL    HW2 6214   7.687   0.522   2.092 -0.4949  0.8975 -2.0448
 1513SOL     OW 6215   0.285   2.317   5.017  0.8077 -0.0262  0.4519
 1513SOL    HW1 6216   0.285   2.411   4.998  1.5865 -0.4059 -1.5719
 1513SOL    HW2 6217   0.297   2.275   4.932 -1.8293 -2.0513  1.0230
 1514SOL     OW 6218   9.226   0.802   8.099 -0.4001 -0.4171 -1.2309
 1514SOL    HW1 6219   9.145   0.750   8.097 -1.0728  0.5774 -0.5048
 1514SOL    HW2 6220   9.272   0.771   8.177 -0.5157 -0.3388 -1.1308
 1515SOL     OW 6221   9.103   1.268   4.320  0.2036 -0.0844  0.1089
 1515SOL    HW1 6222   9.036   1.279   4.387  0.2335  0.6452  0.0255
 1515SOL    HW2 6223   9.070   1.317   4.245  0.5952 -0.1353 -0.1006
 1516SOL     OW 6224   6.596   3.396   6.650  0.0930 -0.3052 -0.7598
 1516SOL    HW1 6225   6.553   3.320   6.612  1.5443 -0.9470 -1.1330
 1516SOL    HW2 6226   6.524   3.457   6.669 -0.9568 -1.2849 -1.5316
 1517SOL     OW 6227   8.555   4.656   9.241  0.0715  0.7344 -0.1365
 1517SOL    HW1 6228   8.571   4.563   9.259 -0.9799  0.3593 -1.0639
 1517SOL    HW2 6229   8.553   4.662   9.145  2.3231  2.1135 -0.1371
 1518SOL     OW 6230   4.282   0.727   2.370  0.1617 -0.0991  0.0858
 1518SOL    HW1 6231   4.333   0.688   2.300 -0.5969 -0.2907 -0.3688
 1518SOL    HW2 6232   4.315   0.686   2.450 -0.5156 -1.5536 -0.3738
 1519SOL     OW 6233   3.762   3.239   3.993  0.0857 -0.1168  0.5387
 1519SOL    HW1 6234   3.826   3.301   4.027  1.7918 -1.3769 -0.3080
 1519SOL    HW2 6235   3.731   3.190   4.070  0.2684  0.3681  0.9193
 1520SOL     OW 6236   8.309   3.045   3.742  0.0523 -0.4033 -0.4350
 1520SOL    HW1 6237   8.219   3.034   3.773 -0.5259  1.2898 -1.4506
 1520SOL    HW2 6238   8.360   3.060   3.822 -0.8939  0.6656 -0.0183
 1521SOL     OW 6239   5.674   4.188   0.368  0.5873 -0.5083 -0.2660
 1521SOL    HW1 6240   5.743   4.248   0.340  0.1912  0.2186  0.2855
 1521SOL    HW2 6241   5.721   4.110   0.398  1.1076 -0.4670 -0.9740
 1522SOL     OW 6242   1.651   6.419   4.076 -0.3318  0.6099 -0.3617
 1522SOL    HW1 6243   1.638   6.442   4.168 -0.8857  2.3646 -0.8718
 1522SOL    HW2 6244   1.565   6.429   4.036 -0.0322  0.1270 -1.1527
 1523SOL     OW 6245   5.290   0.008   3.156 -0.0903  0.6851 -0.4663
 1523SOL    HW1 6246   5.270  -0.041   3.236 -0.5757  1.1101 -0.3229
 1523SOL    HW2 6247   5.336  -0.055   3.100 -0.6885  0.0748 -0.2805
 1524SOL     OW 6248   2.826   5.190   3.222  0.1306 -0.1654  0.1879
 1524SOL    HW1 6249   2.898   5.129   3.210  0.7971  0.9733 -1.8617
 1524SOL    HW2 6250   2.845   5.234   3.305  1.0805 -0.8032  0.3165
 1525SOL     OW 6251   3.560   1.630   0.919  0.0377 -0.1768 -0.2709
 1525SOL    HW1 6252   3.598   1.688   0.986 -1.2952 -1.2632  1.4554
 1525SOL    HW2 6253   3.632   1.571   0.896  0.4685  0.0953  0.3450
 1526SOL     OW 6254   5.859   3.897   6.507 -0.2834 -0.3248  0.0211
 1526SOL    HW1 6255   5.836   3.926   6.596  2.0827  0.5001  0.4068
 1526SOL    HW2 6256   5.877   3.979   6.460 -1.0459 -0.7869 -1.0809
 1527SOL     OW 6257   0.130   3.628   5.288 -0.3275  0.0614  0.1226
 1527SOL    HW1 6258   0.143   3.716   5.325 -1.6367  0.5103 -0.4478
 1527SOL    HW2 6259   0.214   3.607   5.247  0.1583  0.8343  0.6988
 1528SOL     OW 6260   6.247   6.997   0.019  0.0906  0.5132 -0.0798
 1528SOL    HW1 6261   6.255   6.902   0.028 -0.4470  0.5209  0.4785
 1528SOL    HW2 6262   6.154   7.012   0.004  0.2798  0.8968 -0.9348
 1529SOL     OW 6263   3.862   2.520   8.880  0.1644 -0.1839  0.2777
 1529SOL    HW1 6264   3.886   2.447   8.937 -1.0005 -1.1040 -0.3823
 1529SOL    HW2 6265   3.934   2.526   8.818  1.1372  0.4090  1.4401
 1530SOL     OW 6266   0.965   4.580   8.372 -0.0181 -0.0321  0.2856
 1530SOL    HW1 6267   0.916   4.645   8.321  0.7039 -0.5917 -1.1484
 1530SOL    HW2 6268   1.052   4.618   8.382 -0.1679  0.0994  1.1791
 1531SOL     OW 6269   7.400   5.842   8.745 -0.2587  0.2259 -0.1231
 1531SOL    HW1 6270   7.457   5.919   8.745 -1.0064  0.7877  0.7745
 1531SOL    HW2 6271   7.312   5.878   8.760 -0.6768 -0.7616 -0.1893
 1532SOL     OW 6272   7.353   3.069   4.374 -0.6022 -0.1638 -0.2007
 1532SOL    HW1 6273   7.351   3.050   4.468  0.4836  0.8196  0.0239
 1532SOL    HW2 6274   7.430   3.023   4.342  0.8143  2.0437 -0.0418
 1533SOL     OW 6275   0.448   8.616   6.896 -0.5006 -0.7046 -0.0133
 1533SOL    HW1 6276   0.407   8.536   6.864  1.6667 -1.4320 -1.0729
 1533SOL    HW2 6277   0.403   8.686   6.851 -1.7019 -1.3829  0.1184
 1534SOL     OW 6278   5.357   2.308   6.911  0.2053 -0.4425  1.0653
 1534SOL    HW1 6279   5.267   2.278   6.920  0.5111 -2.0814 -1.0584
 1534SOL    HW2 6280   5.408   2.227   6.902  1.6747  0.5276  0.6018
 1535SOL     OW 6281   1.964   0.663   7.465  0.5077 -0.3613 -0.3738
 1535SOL    HW1 6282   2.029   0.733   7.457  0.6253 -0.4590 -0.2808
 1535SOL    HW2 6283   2.007   0.597   7.520 -0.2306  0.2130  0.8902
 1536SOL     OW 6284   0.468   8.017   2.977  0.1261  0.2769  0.0734
 1536SOL    HW1 6285   0.454   8.028   2.883  1.4364  0.7524 -0.0719
 1536SOL    HW2 6286   0.446   8.102   3.015 -0.1211  0.1690  0.1781
 1537SOL     OW 6287   1.202   6.693   0.458 -0.2554  0.3119  0.0931
 1537SOL    HW1 6288   1.138   6.634   0.499 -0.9299  2.6923  2.6210
 1537SOL    HW2 6289   1.281   6.682   0.510 -0.3488  1.5253  0.5024
 1538SOL     OW 6290   3.072   2.532   8.550 -0.4799  0.1859 -0.5397
 1538SOL    HW1 6291   3.037   2.596   8.488  1.4573  1.1129 -0.7414
 1538SOL    HW2 6292   3.167   2.547   8.548 -0.2255 -1.0148  1.2818
 1539SOL     OW 6293   5.471   3.659   5.860  0.3690  0.1524 -0.6333
 1539SOL    HW1 6294   5.427   3.702   5.934  0.8363  0.8236 -0.7417
 1539SOL    HW2 6295   5.546   3.615   5.900  0.3673  0.1371 -0.6473
 1540SOL     OW 6296   3.379   6.797   2.458 -0.2102 -0.2642  0.4471
 1540SOL    HW1 6297   3.307   6.799   2.395 -0.5184  1.4364  0.8225
 1540SOL    HW2 6298   3.454   6.764   2.408 -0.8237 -0.3730 -0.4117
 1541SOL     OW 6299   8.365   5.330   9.209  0.1299  0.3331  0.0193
 1541SOL    HW1 6300   8.309   5.333   9.131 -0.6894  0.4486  0.5969
 1541SOL    HW2 6301   8.388   5.422   9.225 -0.0919  0.3642  0.1752
 1542SOL     OW 6302   2.888   7.387   0.871 -0.5282 -0.4023 -0.1467
 1542SOL    HW1 6303   2.965   7.350   0.829 -0.3498 -0.4502  0.2189
 1542SOL    HW2 6304   2.818   7.376   0.807 -0.2785 -0.5471 -0.3972
 1543SOL     OW 6305   2.353   0.092   7.685  0.8397 -0.2098 -0.1731
 1543SOL    HW1 6306   2.438   0.108   7.644  0.7508 -0.3768 -0.4301
 1543SOL    HW2 6307   2.292   0.087   7.611  0.6701 -0.4817 -0.0156
 1544SOL     OW 6308   6.610   7.638   4.975 -0.0189 -0.5886 -0.2951
 1544SOL    HW1 6309   6.670   7.680   5.037  0.2764  0.1946 -1.1062
 1544SOL    HW2 6310   6.523   7.660   5.008  0.1375  0.0124 -0.2762
 1545SOL     OW 6311   3.450   7.846   7.425  0.2673 -0.4447  0.4770
 1545SOL    HW1 6312   3.517   7.822   7.489 -0.0558 -0.8787  0.6606
 1545SOL    HW2 6313   3.497   7.890   7.355  0.4940  1.0200  1.5148
 1546SOL     OW 6314   3.739   2.168   9.040 -0.1659  0.1409  0.1116
 1546SOL    HW1 6315   3.681   2.241   9.018  0.1706  0.0472 -1.1095
 1546SOL    HW2 6316   3.826   2.207   9.047 -0.3839  0.3242  2.1862
 1547SOL     OW 6317   2.806   8.333   3.089  0.2698  0.3768  0.5550
 1547SOL    HW1 6318   2.793   8.421   3.055  1.5274  0.2503 -0.2859
 1547SOL    HW2 6319   2.722   8.289   3.076 -0.0057  1.0923 -0.0983
 1548SOL     OW 6320   4.836   3.491   6.444  0.0459 -0.3200 -0.1855
 1548SOL    HW1 6321   4.748   3.466   6.416  0.0350 -3.4295  2.3647
 1548SOL    HW2 6322   4.822   3.562   6.508 -0.4802  0.2532 -0.9291
 1549SOL     OW 6323   7.923   0.540   2.718 -0.1572  0.7312  0.1972
 1549SOL    HW1 6324   7.871   0.541   2.799 -1.1310 -2.9633 -0.3002
 1549SOL    HW2 6325   7.994   0.479   2.735  0.6777  1.2973 -1.1492
 1550SOL     OW 6326   0.491   2.763   7.987  1.0246  0.4741  0.7040
 1550SOL    HW1 6327   0.433   2.712   8.044  1.1382  0.2215  0.5951
 1550SOL    HW2 6328   0.563   2.704   7.967 -0.6863 -0.7076 -2.4747
 1551SOL     OW 6329   6.784   3.951   4.101 -0.5288 -0.1631 -0.0647
 1551SOL    HW1 6330   6.855   3.894   4.072 -1.7440 -1.8074  0.1006
 1551SOL    HW2 6331   6.821   4.039   4.099  1.3337 -0.9384 -0.4989
 1552SOL     OW 6332   2.319   1.252   8.346 -0.2633  1.0677 -0.2765
 1552SOL    HW1 6333   2.391   1.309   8.373 -0.9460  1.5289  0.5743
 1552SOL    HW2 6334   2.245   1.311   8.332  0.0532  0.8419 -3.1299
 1553SOL     OW 6335   6.605   2.049   0.571 -0.7004  0.0898  0.0766
 1553SOL    HW1 6336   6.692   2.053   0.533  0.0040  0.2994  1.6607
 1553SOL    HW2 6337   6.579   1.957   0.564 -0.0044 -0.1260  0.3645
 1554SOL     OW 6338   0.003   8.733   1.008  0.4102 -0.0496  0.3240
 1554SOL    HW1 6339   0.035   8.645   1.026 -0.7555 -0.6896 -0.6706
 1554SOL    HW2 6340   0.063   8.768   0.941  1.9193  0.5843  1.9672
 1555SOL     OW 6341   4.383   4.484   1.597  0.1519  0.0326  0.7261
 1555SOL    HW1 6342   4.460   4.514   1.548 -0.6030  0.0786 -0.4489
 1555SOL    HW2 6343   4.328   4.441   1.531 -0.7734 -0.1002  1.5797
 1556SOL     OW 6344   7.727   0.742   7.137 -0.3787  0.1479  0.3735
 1556SOL    HW1 6345   7.785   0.817   7.125  0.6957 -0.3073  2.2920
 1556SOL    HW2 6346   7.644   0.768   7.100  0.7594  1.2385 -1.4731
 1557SOL     OW 6347   5.544   5.237   1.581  0.1679  0.1750 -0.1026
 1557SOL    HW1 6348   5.569   5.227   1.489  1.0703  0.6279  0.0855
 1557SOL    HW2 6349   5.498   5.320   1.585  0.3907  0.3008 -0.1007
 1558SOL     OW 6350   5.709   8.143   1.942  0.2786  0.2618  0.1112
 1558SOL    HW1 6351   5.622   8.174   1.915 -0.0845  0.4770  1.4907
 1558SOL    HW2 6352   5.700   8.048   1.945 -0.7187  0.3863  2.8195
 1559SOL     OW 6353   5.834   1.040   8.193  0.5909  0.2644 -1.0280
 1559SOL    HW1 6354   5.870   1.129   8.193  0.3901  0.3481 -0.7019
 1559SOL    HW2 6355   5.900   0.987   8.148  0.7446  0.5650 -1.1595
 1560SOL     OW 6356   3.003   9.107   3.390 -0.6433 -0.6493 -0.7507
 1560SOL    HW1 6357   3.039   9.195   3.384  0.9699 -1.2472 -0.2034
 1560SOL    HW2 6358   2.953   9.106   3.472 -2.3928  0.3322 -1.7644
 1561SOL     OW 6359   9.060   9.092   7.961  0.1054 -0.2466  0.3815
 1561SOL    HW1 6360   9.097   9.018   7.912 -0.7797 -0.5549  0.1727
 1561SOL    HW2 6361   8.966   9.081   7.953 -0.0280  1.1887 -0.0598
 1562SOL     OW 6362   8.078   2.555   9.243 -0.4213 -0.2505 -0.4543
 1562SOL    HW1 6363   8.133   2.549   9.164 -0.2393 -0.4957 -0.3096
 1562SOL    HW2 6364   7.989   2.565   9.209 -0.2733  0.2976 -0.6907
 1563SOL     OW 6365   7.541   1.924   2.142 -0.2340 -0.6790  0.2720
 1563SOL    HW1 6366   7.462   1.971   2.114  0.0815 -0.1283  0.2848
 1563SOL    HW2 6367   7.536   1.923   2.237 -0.1203 -0.4485  0.2821
 1564SOL     OW 6368   6.568   7.056   1.899 -0.3014  0.8540  0.2310
 1564SOL    HW1 6369   6.644   7.080   1.845  0.2354 -0.4305  0.3984
 1564SOL    HW2 6370   6.574   6.961   1.906 -1.2851  0.8696  1.2183
 1565SOL     OW 6371   7.281   3.008   0.440 -0.0816 -0.2183  0.0265
 1565SOL    HW1 6372   7.283   2.926   0.489 -1.8442 -0.1273  0.2835
 1565SOL    HW2 6373   7.353   3.000   0.377  2.9760  0.0792  3.2536
 1566SOL     OW 6374   2.229   4.114   8.701 -0.3841  0.5123 -0.5548
 1566SOL    HW1 6375   2.298   4.165   8.743  1.5748 -1.1211 -1.6963
 1566SOL    HW2 6376   2.188   4.064   8.772  0.1485  0.8608 -0.0037
 1567SOL     OW 6377   1.778   0.820   5.292 -0.6955 -0.0874  0.6855
 1567SOL    HW1 6378   1.835   0.779   5.357 -0.6898 -0.9817  0.1244
 1567SOL    HW2 6379   1.690   0.790   5.316 -0.8177  0.4533  0.9234
 1568SOL     OW 6380   1.834   1.259   8.900 -0.0011 -0.2045 -0.1281
 1568SOL    HW1 6381   1.863   1.327   8.960 -0.0864 -1.4617  1.3716
 1568SOL    HW2 6382   1.832   1.179   8.953  0.3312 -1.4219 -1.9068
 1569SOL     OW 6383   1.541   8.175   8.887  0.1816 -0.6567 -0.3204
 1569SOL    HW1 6384   1.456   8.194   8.925  0.6571 -1.1682  1.0051
 1569SOL    HW2 6385   1.596   8.250   8.909  1.0425 -1.8771  1.8265
 1570SOL     OW 6386   8.597   5.474   1.275  0.8049  0.2829 -0.0467
 1570SOL    HW1 6387   8.527   5.517   1.225  0.9074  1.3112  0.6739
 1570SOL    HW2 6388   8.591   5.512   1.363 -0.3278 -2.6179  1.1627
 1571SOL     OW 6389   6.014   3.812   4.209 -0.4181  0.4578 -0.4244
 1571SOL    HW1 6390   5.992   3.900   4.239  1.2293  0.8160 -0.1965
 1571SOL    HW2 6391   5.977   3.753   4.276 -0.3134  1.0476  0.1554
 1572SOL     OW 6392   6.684   0.734   1.414  0.2243  0.1257  0.5391
 1572SOL    HW1 6393   6.755   0.701   1.470  0.7928  0.0515 -0.2183
 1572SOL    HW2 6394   6.716   0.720   1.325 -1.2381 -0.9930  0.1831
 1573SOL     OW 6395   8.352   7.931   2.124 -0.1319 -0.4409  0.5798
 1573SOL    HW1 6396   8.338   8.004   2.185 -0.3321 -0.7704  0.9343
 1573SOL    HW2 6397   8.420   7.878   2.166  1.3213  0.4960 -0.5481
 1574SOL     OW 6398   1.201   2.278   3.696 -0.0056 -0.2998  0.1054
 1574SOL    HW1 6399   1.218   2.327   3.776 -1.0447  0.6651 -0.2585
 1574SOL    HW2 6400   1.288   2.253   3.664  0.5269  1.2370  0.3285
 1575SOL     OW 6401   1.719   0.280   1.565  0.4043 -0.7341  0.3178
 1575SOL    HW1 6402   1.733   0.230   1.645  0.4270 -1.9612 -0.4539
 1575SOL    HW2 6403   1.632   0.254   1.535  0.8823 -1.1719 -0.7032
 1576SOL     OW 6404   7.379   4.170   7.054 -0.2957 -0.1245 -0.2219
 1576SOL    HW1 6405   7.355   4.141   6.966  0.0208 -1.9879  0.2657
 1576SOL    HW2 6406   7.354   4.262   7.057 -1.9935 -0.4982 -1.6665
 1577SOL     OW 6407   8.110   3.219   4.392  0.0310 -0.5547 -0.3816
 1577SOL    HW1 6408   8.051   3.215   4.316  0.5188 -3.0179 -0.6953
 1577SOL    HW2 6409   8.197   3.229   4.354  0.1642 -0.5830 -0.0826
 1578SOL     OW 6410   9.208   8.324   5.813  0.5005 -0.2795 -0.9761
 1578SOL    HW1 6411   9.241   8.261   5.878 -0.6519  1.2188  1.1304
 1578SOL    HW2 6412   9.283   8.382   5.798  0.0648  0.8278  0.9050
 1579SOL     OW 6413   0.531   8.793   2.986  0.5532 -0.4968  0.0098
 1579SOL    HW1 6414   0.587   8.793   3.064  0.0937  1.0562  0.3585
 1579SOL    HW2 6415   0.549   8.709   2.943  1.6206 -0.8919  1.2085
 1580SOL     OW 6416   7.307   7.680   4.821 -0.5702  0.1235  0.4984
 1580SOL    HW1 6417   7.251   7.628   4.765 -0.2490  1.9113 -1.5656
 1580SOL    HW2 6418   7.299   7.769   4.787  2.5108  0.6339  0.9367
 1581SOL     OW 6419   4.249   4.570   8.906 -0.2290  0.7435  0.0993
 1581SOL    HW1 6420   4.204   4.517   8.840  1.0723  0.5564 -0.6694
 1581SOL    HW2 6421   4.283   4.645   8.856  2.4741 -0.4060  0.1474
 1582SOL     OW 6422   3.169   8.672   4.208 -0.0126 -0.3622  0.3833
 1582SOL    HW1 6423   3.094   8.710   4.164 -0.2274 -0.8417  0.3379
 1582SOL    HW2 6424   3.165   8.708   4.297  0.1554  0.2317  0.1480
 1583SOL     OW 6425   7.330   7.530   1.107  0.1108  0.8946  0.4416
 1583SOL    HW1 6426   7.401   7.591   1.087 -0.1036  1.5975  1.7509
 1583SOL    HW2 6427   7.252   7.584   1.115 -0.5286  0.1575 -0.6862
 1584SOL     OW 6428   4.473   7.271   7.998  0.4478 -0.3058  0.5765
 1584SOL    HW1 6429   4.516   7.199   8.044  0.4055 -0.5565  0.2258
 1584SOL    HW2 6430   4.519   7.277   7.915 -0.4048 -0.8022  0.0520
 1585SOL     OW 6431   2.046   0.503   0.406  0.5702 -0.1771  0.1727
 1585SOL    HW1 6432   2.067   0.533   0.317  0.0312  0.5802  0.2966
 1585SOL    HW2 6433   2.086   0.569   0.463  0.1705 -0.1927  0.4708
 1586SOL     OW 6434   5.859   8.351   5.542 -0.2012  0.0241  0.3951
 1586SOL    HW1 6435   5.943   8.347   5.588 -0.0946 -0.2252  0.1762
 1586SOL    HW2 6436   5.871   8.421   5.477  0.1107 -0.5769 -0.1918
 1587SOL     OW 6437   5.716   0.686   5.733  0.6509 -0.3536 -0.7291
 1587SOL    HW1 6438   5.746   0.634   5.658 -0.3588 -3.4047  0.8946
 1587SOL    HW2 6439   5.779   0.668   5.802  1.1386  1.8383 -0.5585
 1588SOL     OW 6440   1.416   9.061   0.750 -0.0770  0.4048  0.4697
 1588SOL    HW1 6441   1.443   9.125   0.684 -1.6919 -0.2735 -0.8715
 1588SOL    HW2 6442   1.485   9.065   0.816  0.9476  1.9706 -0.6538
 1589SOL     OW 6443   6.432   4.426   7.018  0.3937  0.4486  0.3440
 1589SOL    HW1 6444   6.436   4.496   7.083 -2.3617  1.2079 -0.2014
 1589SOL    HW2 6445   6.471   4.465   6.939 -0.6649  1.2248  0.1882
 1590SOL     OW 6446   7.393   0.918   6.581 -0.1991 -0.2719 -0.2714
 1590SOL    HW1 6447   7.343   0.989   6.620  2.4105  1.6657 -0.3259
 1590SOL    HW2 6448   7.417   0.950   6.493  0.6711 -1.3515 -0.4483
 1591SOL     OW 6449   2.820   3.201   0.550 -0.0308  0.2126  0.2253
 1591SOL    HW1 6450   2.895   3.229   0.603 -0.7419  1.2908  0.6638
 1591SOL    HW2 6451   2.854   3.199   0.461  0.3584  1.3069  0.3409
 1592SOL     OW 6452   0.020   0.787   1.113  0.0478  0.2418  0.6513
 1592SOL    HW1 6453  -0.031   0.776   1.033 -1.5784 -0.7005  1.8129
 1592SOL    HW2 6454   0.060   0.701   1.128  3.0167  1.2719 -0.9075
 1593SOL     OW 6455   8.005   7.416   0.311 -0.0858 -0.3587 -0.0201
 1593SOL    HW1 6456   8.005   7.335   0.363  0.2695 -1.2180 -1.3228
 1593SOL    HW2 6457   8.097   7.429   0.288 -0.1718  0.3095  0.0069
 1594SOL     OW 6458   0.684   0.586   0.592 -0.1541  0.2506  0.3245
 1594SOL    HW1 6459   0.621   0.657   0.600 -0.8108 -0.2780 -0.0556
 1594SOL    HW2 6460   0.741   0.611   0.520 -1.6475 -0.5371 -1.1792
 1595SOL     OW 6461   5.981   3.571   5.208  0.8471  0.2832 -0.1303
 1595SOL    HW1 6462   6.059   3.613   5.172  0.8715 -1.4677 -2.2785
 1595SOL    HW2 6463   5.911   3.595   5.147  0.3056 -0.5192  0.1704
 1596SOL     OW 6464   1.183   1.112   7.508  0.0793  0.4316  0.6732
 1596SOL    HW1 6465   1.244   1.183   7.526 -1.5789  1.9670  0.3115
 1596SOL    HW2 6466   1.163   1.075   7.594  1.5455 -0.1184  0.7899
 1597SOL     OW 6467   5.505   3.861   1.805  0.2047  0.1889  0.5579
 1597SOL    HW1 6468   5.574   3.894   1.863 -0.0176 -0.7950  1.3961
 1597SOL    HW2 6469   5.443   3.819   1.864 -0.3427 -0.2829 -0.3492
 1598SOL     OW 6470   2.204   8.961   5.040  0.1218 -0.4792  0.1936
 1598SOL    HW1 6471   2.139   8.969   5.109 -1.0138  1.6739 -1.0648
 1598SOL    HW2 6472   2.186   8.875   5.000 -1.5661 -0.1783  0.2546
 1599SOL     OW 6473   7.772   7.906   4.048 -0.3190 -0.4003 -0.4790
 1599SOL    HW1 6474   7.733   7.828   4.007  0.3746 -0.2435 -1.4410
 1599SOL    HW2 6475   7.866   7.891   4.043 -0.2180 -1.0015  2.2783
 1600SOL     OW 6476   4.782   5.765   8.094 -0.4987 -0.5119  0.0779
 1600SOL    HW1 6477   4.785   5.743   8.001 -0.0827 -0.9868  0.2030
 1600SOL    HW2 6478   4.740   5.689   8.135  0.3500 -0.7907  0.4290
 1601SOL     OW 6479   2.663   7.583   8.623  0.4152  0.4811  0.0597
 1601SOL    HW1 6480   2.626   7.670   8.609  0.5524  0.6190  0.5472
 1601SOL    HW2 6481   2.616   7.527   8.562  0.3016  0.8926 -0.2335
 1602SOL     OW 6482   0.560   2.713   3.271 -0.3705  0.3142 -0.0824
 1602SOL    HW1 6483   0.586   2.789   3.219  0.2933 -0.4139 -0.8279
 1602SOL    HW2 6484   0.642   2.673   3.299 -0.7016  1.2297  2.3568
 1603SOL     OW 6485   1.310   1.250   2.577 -0.5267  0.0116 -0.1626
 1603SOL    HW1 6486   1.281   1.161   2.557 -1.7953  0.5249 -0.6804
 1603SOL    HW2 6487   1.389   1.261   2.524 -2.3781  0.4204 -2.9677
 1604SOL     OW 6488   1.208   1.454   7.268  0.0254  0.1405 -0.4695
 1604SOL    HW1 6489   1.137   1.516   7.251  0.4106  1.0196  0.9578
 1604SOL    HW2 6490   1.170   1.389   7.327 -0.2370 -0.7216 -1.5721
 1605SOL     OW 6491   7.265   2.925   2.366  0.3012  0.0452 -1.0225
 1605SOL    HW1 6492   7.305   2.919   2.280  0.6285 -0.7521 -0.8199
 1605SOL    HW2 6493   7.328   2.884   2.425 -0.1336  0.1494 -0.4774
 1606SOL     OW 6494   0.657   8.923   6.877 -0.0044  0.1084  0.4229
 1606SOL    HW1 6495   0.677   9.017   6.882  2.2822 -0.3236 -0.1126
 1606SOL    HW2 6496   0.621   8.902   6.963 -0.6191  1.4933  0.5183
 1607SOL     OW 6497   4.397   8.241   7.299 -0.2343 -0.2583 -0.3939
 1607SOL    HW1 6498   4.347   8.179   7.351  0.1559 -0.9484 -0.8418
 1607SOL    HW2 6499   4.336   8.272   7.232  0.3072 -2.1011 -1.7715
 1608SOL     OW 6500   5.067   2.578   4.504 -0.0120  0.8113  0.3751
 1608SOL    HW1 6501   5.048   2.498   4.553 -0.0395  0.6835  0.1589
 1608SOL    HW2 6502   5.056   2.553   4.412 -2.0940  1.5976  0.3654
 1609SOL     OW 6503   2.726   4.916   9.198  0.1038  0.1067  0.2542
 1609SOL    HW1 6504   2.819   4.928   9.180  0.2586  0.3369  1.1744
 1609SOL    HW2 6505   2.681   4.963   9.128  0.6920  1.6503  0.8945
 1610SOL     OW 6506   0.008   8.159   2.506 -0.3099 -0.3175 -0.0030
 1610SOL    HW1 6507  -0.057   8.218   2.545  1.2306  0.2073  1.8589
 1610SOL    HW2 6508  -0.005   8.168   2.412 -0.8439  2.1718  0.2669
 1611SOL     OW 6509   6.203   2.408   8.457  0.8958 -1.0241  0.3829
 1611SOL    HW1 6510   6.268   2.455   8.510  0.8514  0.6915 -1.0622
 1611SOL    HW2 6511   6.153   2.357   8.521  1.6740  0.0178  1.8522
 1612SOL     OW 6512   7.020   2.708   4.577 -0.0306 -0.4627  0.1934
 1612SOL    HW1 6513   6.960   2.753   4.517 -0.7519 -0.4512  0.9116
 1612SOL    HW2 6514   6.968   2.635   4.612  0.7312 -1.1007 -0.0098
 1613SOL     OW 6515   2.014   6.442   6.172 -0.0883  0.1028  0.3122
 1613SOL    HW1 6516   1.982   6.377   6.235 -0.6587 -0.1581 -0.2396
 1613SOL    HW2 6517   2.098   6.407   6.143 -0.3762 -0.3855  0.0425
 1614SOL     OW 6518   5.692   7.305   0.812 -0.1170  0.3918 -0.2929
 1614SOL    HW1 6519   5.649   7.291   0.727  0.3858 -1.3711 -0.2672
 1614SOL    HW2 6520   5.679   7.223   0.860  0.8415  0.8591  0.7929
 1615SOL     OW 6521   1.907   3.636   8.924  0.2963 -0.1585  0.1956
 1615SOL    HW1 6522   1.931   3.563   8.981  2.4684  0.0426 -0.4358
 1615SOL    HW2 6523   1.962   3.709   8.953 -0.1008  0.5385 -0.7712
 1616SOL     OW 6524   7.493   8.331   9.166 -0.3559 -0.0689  0.9374
 1616SOL    HW1 6525   7.410   8.372   9.188  0.0779  0.9042  0.8088
 1616SOL    HW2 6526   7.493   8.248   9.214 -2.1719 -0.9232 -0.4799
 1617SOL     OW 6527   5.723   3.725   6.883 -0.2670 -0.6684  0.0310
 1617SOL    HW1 6528   5.753   3.750   6.970  1.1399  1.0144 -0.8925
 1617SOL    HW2 6529   5.794   3.671   6.847 -0.5337 -0.7925 -0.3206
 1618SOL     OW 6530   5.229   8.667   3.300 -0.5323  0.1889 -0.3986
 1618SOL    HW1 6531   5.175   8.747   3.307  1.2349  1.2902  0.9893
 1618SOL    HW2 6532   5.306   8.685   3.354  0.4631 -2.0176 -1.0294
 1619SOL     OW 6533   6.708   3.945   2.481 -0.5372 -0.4209  0.4188
 1619SOL    HW1 6534   6.643   3.902   2.537 -0.1420  0.1084  1.3088
 1619SOL    HW2 6535   6.664   4.025   2.451 -1.3937 -1.5945 -1.5183
 1620SOL     OW 6536   0.338   3.207   7.320 -0.0290 -0.3259  0.1847
 1620SOL    HW1 6537   0.350   3.300   7.338  1.4377 -0.4659  0.0082
 1620SOL    HW2 6538   0.246   3.190   7.339 -0.8826  1.6491 -2.0058
 1621SOL     OW 6539   3.106   0.030   5.673 -0.2617 -0.3073  0.0944
 1621SOL    HW1 6540   3.195   0.017   5.639 -0.2901  0.0067 -0.1033
 1621SOL    HW2 6541   3.059  -0.049   5.647  0.0090 -0.5575  0.3587
 1622SOL     OW 6542   1.349   4.540   0.265 -0.2254  0.3795 -0.4966
 1622SOL    HW1 6543   1.325   4.611   0.205  0.3002  1.9899  1.1806
 1622SOL    HW2 6544   1.282   4.542   0.333  0.4575  0.0269  0.1956
 1623SOL     OW 6545   1.538   1.701   5.454  0.2081  0.1997 -0.4773
 1623SOL    HW1 6546   1.560   1.748   5.374 -1.0542  0.2241 -0.8158
 1623SOL    HW2 6547   1.546   1.767   5.523  0.2923  0.4346 -0.7122
 1624SOL     OW 6548   5.560   1.478   8.987 -0.1927  0.0534 -0.3763
 1624SOL    HW1 6549   5.635   1.421   8.998 -1.2500 -1.2991 -0.1109
 1624SOL    HW2 6550   5.597   1.562   8.960  1.3721 -0.7101 -0.6068
 1625SOL     OW 6551   8.797   9.079   0.638  0.2230 -0.4408  0.1242
 1625SOL    HW1 6552   8.862   9.146   0.655 -0.2336 -0.1374  0.6923
 1625SOL    HW2 6553   8.846   8.997   0.639  0.9173 -0.0614 -1.3270
 1626SOL     OW 6554   8.800   6.579   2.470  0.3471  0.1163 -0.4008
 1626SOL    HW1 6555   8.875   6.628   2.437 -0.0086  0.3576 -0.8559
 1626SOL    HW2 6556   8.730   6.596   2.406  0.4666 -1.6791 -1.0284
 1627SOL     OW 6557   0.285   0.627   0.586  0.1913 -0.0562  0.1173
 1627SOL    HW1 6558   0.244   0.545   0.612  0.5580  0.3882  2.1431
 1627SOL    HW2 6559   0.285   0.624   0.490 -0.3570 -2.1258  0.1599
 1628SOL     OW 6560   5.431   2.311   5.195  0.1751  0.0059  0.3508
 1628SOL    HW1 6561   5.501   2.300   5.258 -1.2906 -0.0744  2.0036
 1628SOL    HW2 6562   5.475   2.310   5.110  2.5620  2.9848  1.4428
 1629SOL     OW 6563   7.088   2.918   3.741  0.5263 -0.0682 -0.2942
 1629SOL    HW1 6564   7.162   2.963   3.782  0.6239  0.8491 -1.4343
 1629SOL    HW2 6565   7.111   2.914   3.648 -0.2436 -1.0090 -0.4568
 1630SOL     OW 6566   4.063   4.205   4.686 -0.3310  0.1432  0.0355
 1630SOL    HW1 6567   4.141   4.190   4.740  0.3682 -0.0744 -1.0258
 1630SOL    HW2 6568   4.000   4.246   4.745  0.7660  0.7764  0.7745
 1631SOL     OW 6569   5.332   8.763   4.675  0.1945 -0.8218 -0.4014
 1631SOL    HW1 6570   5.322   8.736   4.767  1.0056  0.9857  0.2402
 1631SOL    HW2 6571   5.407   8.823   4.676  0.0801 -0.6296 -2.2152
 1632SOL     OW 6572   5.585   4.043   6.655 -0.6918 -0.6020  0.0472
 1632SOL    HW1 6573   5.580   4.129   6.697  2.0641 -1.3056  1.9239
 1632SOL    HW2 6574   5.565   4.060   6.563 -5.9646  1.1056  1.3254
 1633SOL     OW 6575   0.849   5.587   3.651  0.2932 -0.0548 -0.3228
 1633SOL    HW1 6576   0.888   5.673   3.646  1.0151 -0.3724 -0.1602
 1633SOL    HW2 6577   0.755   5.602   3.636  0.3209  0.8325  0.3799
 1634SOL     OW 6578   1.915   1.077   1.750 -0.8390  0.4799  0.0688
 1634SOL    HW1 6579   1.864   1.158   1.759 -2.2591 -0.1839 -1.8676
 1634SOL    HW2 6580   1.942   1.075   1.658  0.1962 -0.6714  0.3786
 1635SOL     OW 6581   4.817   8.642   7.581 -0.0666  0.2885 -0.2763
 1635SOL    HW1 6582   4.814   8.567   7.522 -1.8549 -2.0540  2.6372
 1635SOL    HW2 6583   4.725   8.661   7.601  0.4829  0.9804  1.7586
 1636SOL     OW 6584   7.891   4.897   1.654 -0.4281  0.6566  0.1429
 1636SOL    HW1 6585   7.824   4.911   1.588  0.5086 -0.6478 -1.1082
 1636SOL    HW2 6586   7.948   4.973   1.647  0.4887 -0.1581 -1.5758
 1637SOL     OW 6587   3.102   3.533   5.666 -0.0616 -0.0581  0.6078
 1637SOL    HW1 6588   3.155   3.546   5.587 -1.5020 -1.7307 -0.6683
 1637SOL    HW2 6589   3.070   3.621   5.688  0.3284  0.4136 -0.6785
 1638SOL     OW 6590   1.277   3.433   4.818  0.2789  0.0447  0.5546
 1638SOL    HW1 6591   1.332   3.449   4.895  1.3394  1.0068 -0.3917
 1638SOL    HW2 6592   1.275   3.338   4.809 -1.5728 -0.2020  2.9933
 1639SOL     OW 6593   5.924   0.524   4.762 -0.3722 -0.0444 -0.0662
 1639SOL    HW1 6594   5.987   0.563   4.822 -1.8402 -1.0088  2.1797
 1639SOL    HW2 6595   5.869   0.596   4.734  0.3640  0.4222 -0.3262
 1640SOL     OW 6596   6.633   7.105   4.486  0.2415  0.0698 -0.4149
 1640SOL    HW1 6597   6.560   7.064   4.533  0.4829 -0.7580 -0.7372
 1640SOL    HW2 6598   6.612   7.198   4.485 -0.5616 -0.0978 -0.0636
 1641SOL     OW 6599   6.423   4.066   4.272  0.4868  0.1810 -0.1581
 1641SOL    HW1 6600   6.387   3.987   4.232 -0.4499  0.0375  0.9611
 1641SOL    HW2 6601   6.353   4.099   4.328  1.8488  0.2908  1.4896
 1642SOL     OW 6602   8.395   1.957   8.736  0.2186  0.1875  0.0649
 1642SOL    HW1 6603   8.459   2.025   8.715  1.9136 -1.4814 -0.2870
 1642SOL    HW2 6604   8.429   1.915   8.814 -0.1537 -1.1072 -0.4623
 1643SOL     OW 6605   3.471   4.400   2.254 -0.1741  0.4945 -0.6099
 1643SOL    HW1 6606   3.543   4.434   2.201 -0.3303  0.9867 -0.5072
 1643SOL    HW2 6607   3.450   4.316   2.214  1.0176 -0.0550 -0.1304
 1644SOL     OW 6608   9.103   3.889   5.976 -1.0865  0.4544 -0.2948
 1644SOL    HW1 6609   9.060   3.903   5.892  0.4271  2.7730 -0.7276
 1644SOL    HW2 6610   9.196   3.880   5.954 -0.9455 -1.4033  0.9070
 1645SOL     OW 6611   1.321   2.722   2.724  0.0775 -0.2968  0.4147
 1645SOL    HW1 6612   1.343   2.634   2.755  2.6562 -0.0267 -0.5401
 1645SOL    HW2 6613   1.361   2.728   2.638 -2.5727  0.8052 -0.8004
 1646SOL     OW 6614   3.269   9.009   3.760  0.6484 -0.6713  0.1836
 1646SOL    HW1 6615   3.316   8.955   3.824 -0.5222 -2.6652 -0.5931
 1646SOL    HW2 6616   3.176   8.989   3.776  0.2385  0.4822 -0.6941
 1647SOL     OW 6617   7.710   6.485   7.913  0.2684  0.3552 -0.0350
 1647SOL    HW1 6618   7.755   6.501   7.830 -1.4997 -1.4185 -1.3801
 1647SOL    HW2 6619   7.735   6.559   7.969  1.5365  1.5372 -2.1160
 1648SOL     OW 6620   4.557   8.170   2.122 -0.0431  0.1185  0.7029
 1648SOL    HW1 6621   4.470   8.166   2.162 -0.6712  1.3611 -0.4842
 1648SOL    HW2 6622   4.580   8.262   2.124  0.8001 -0.0764  0.0626
 1649SOL     OW 6623   5.537   5.966   0.273  0.0641  0.1310  0.7309
 1649SOL    HW1 6624   5.502   5.978   0.362 -0.4898 -0.4399  0.5923
 1649SOL    HW2 6625   5.467   5.922   0.226  0.6413 -0.2148  0.2020
 1650SOL     OW 6626   2.676   7.778   2.396 -0.1779 -0.0981  0.4188
 1650SOL    HW1 6627   2.691   7.840   2.325  1.2288  1.6561  2.1710
 1650SOL    HW2 6628   2.616   7.823   2.455  0.3743 -0.6267  1.4024
 1651SOL     OW 6629   8.342   5.002   4.141 -0.1808  0.3110  0.3954
 1651SOL    HW1 6630   8.386   4.994   4.056 -0.8208 -0.3948  0.1260
 1651SOL    HW2 6631   8.397   4.952   4.201 -1.2584 -1.6673 -0.1951
 1652SOL     OW 6632   4.345   3.979   6.912 -0.0952  0.5274  0.1647
 1652SOL    HW1 6633   4.250   3.975   6.914 -0.1241 -1.3010 -2.5850
 1652SOL    HW2 6634   4.373   3.894   6.878  2.4714  1.4027 -0.0966
 1653SOL     OW 6635   9.133   5.531   7.377  0.3342 -0.1223  0.3346
 1653SOL    HW1 6636   9.145   5.503   7.286  1.1622 -2.0345  1.0059
 1653SOL    HW2 6637   9.063   5.595   7.373  1.7273  1.3395 -1.9256
 1654SOL     OW 6638   9.098   3.466   7.299  0.3000 -0.2629 -0.0052
 1654SOL    HW1 6639   9.024   3.430   7.348  0.8452 -0.6480  0.5365
 1654SOL    HW2 6640   9.143   3.389   7.264  0.8643 -0.0555  0.2745
 1655SOL     OW 6641   7.270   1.182   8.446 -0.1867  0.0398  0.1813
 1655SOL    HW1 6642   7.236   1.095   8.467  2.7134 -1.2137 -0.1153
 1655SOL    HW2 6643   7.350   1.165   8.396 -1.1155  2.9003 -2.4171
 1656SOL     OW 6644   7.514   5.686   1.470  0.1890 -0.2170  0.0182
 1656SOL    HW1 6645   7.503   5.781   1.471 -1.1414 -0.3695  0.0759
 1656SOL    HW2 6646   7.585   5.671   1.408 -0.3467  0.7427 -0.8345
 1657SOL     OW 6647   6.724   4.416   5.052  0.3126 -0.5439 -0.1105
 1657SOL    HW1 6648   6.780   4.437   4.978  0.7217 -0.2551  0.2784
 1657SOL    HW2 6649   6.737   4.488   5.114 -1.3095  0.0929 -0.4677
 1658SOL     OW 6650   5.956   1.777   2.002 -0.0454 -0.2645  0.4932
 1658SOL    HW1 6651   5.972   1.782   1.907  0.8245  1.4446  0.7185
 1658SOL    HW2 6652   6.008   1.702   2.031  0.5291 -0.1446 -0.2135
 1659SOL     OW 6653   8.412   8.600   2.930  0.0157  0.5344 -0.3155
 1659SOL    HW1 6654   8.483   8.648   2.974 -1.8908  1.6656  1.6497
 1659SOL    HW2 6655   8.373   8.665   2.872 -1.1024  0.7081  0.6217
 1660SOL     OW 6656   8.644   8.282   3.177  0.2705 -0.1541  0.4070
 1660SOL    HW1 6657   8.572   8.343   3.192  0.2420  0.3416 -1.5408
 1660SOL    HW2 6658   8.723   8.335   3.192  0.2388 -0.5860  2.1363
 1661SOL     OW 6659   1.068   1.343   6.004  0.3542 -0.1759  0.1859
 1661SOL    HW1 6660   0.988   1.395   6.009  1.3055  1.3406  0.1870
 1661SOL    HW2 6661   1.039   1.252   6.007 -1.3940  0.3504 -0.4483
 1662SOL     OW 6662   8.233   0.768   8.360 -0.2511  0.0049 -1.0264
 1662SOL    HW1 6663   8.217   0.720   8.278 -0.1556  0.9629 -1.6129
 1662SOL    HW2 6664   8.202   0.857   8.342  0.4811  0.4188 -0.2765
 1663SOL     OW 6665   0.023   3.235   5.642 -1.1003  0.0906  0.2337
 1663SOL    HW1 6666  -0.025   3.296   5.585  0.3746  1.7728  0.7639
 1663SOL    HW2 6667   0.082   3.291   5.693  0.9163 -1.8768  0.1022
 1664SOL     OW 6668   5.658   1.341   0.894 -0.5894 -0.0893  0.3071
 1664SOL    HW1 6669   5.664   1.247   0.882 -1.0606  0.1478 -1.8462
 1664SOL    HW2 6670   5.719   1.360   0.966  0.4422 -1.8480 -0.0974
 1665SOL     OW 6671   7.826   4.866   4.899  0.0540 -0.3966 -0.6665
 1665SOL    HW1 6672   7.812   4.868   4.994 -1.2787 -0.2119 -0.8580
 1665SOL    HW2 6673   7.889   4.936   4.883 -0.8776  0.5974 -0.0953
 1666SOL     OW 6674   3.693   5.006   8.602 -0.1465 -0.1142  0.2994
 1666SOL    HW1 6675   3.668   4.964   8.685 -1.7385 -1.8901 -1.0327
 1666SOL    HW2 6676   3.612   5.010   8.552  1.0863 -0.4660 -1.7747
 1667SOL     OW 6677   6.404   7.253   8.607  0.4340  0.2223  0.1538
 1667SOL    HW1 6678   6.361   7.330   8.645  0.5896  0.8081 -0.8457
 1667SOL    HW2 6679   6.459   7.219   8.678 -2.0897 -0.8675  1.6653
 1668SOL     OW 6680   1.795   8.631   8.763  0.2135 -0.2101 -0.6014
 1668SOL    HW1 6681   1.835   8.602   8.680 -1.0462  0.5408 -1.4981
 1668SOL    HW2 6682   1.862   8.685   8.804  0.4836  0.2769 -1.6464
 1669SOL     OW 6683   4.468   2.395   8.304  0.0534 -0.3708 -0.2577
 1669SOL    HW1 6684   4.400   2.378   8.369 -0.1599  0.7102 -0.1827
 1669SOL    HW2 6685   4.550   2.389   8.353 -0.0330 -0.9648 -0.1928
 1670SOL     OW 6686   8.347   4.434   8.674 -0.2102  0.4087 -0.2449
 1670SOL    HW1 6687   8.381   4.522   8.662 -1.4659  0.7720 -1.2737
 1670SOL    HW2 6688   8.261   4.447   8.714 -1.1169 -0.2463 -1.9278
 1671SOL     OW 6689   3.118   5.373   7.169  0.2211 -0.0908 -0.5168
 1671SOL    HW1 6690   3.040   5.373   7.224 -0.9320  1.7016 -2.0924
 1671SOL    HW2 6691   3.151   5.463   7.174  1.4359 -0.4988 -0.9336
 1672SOL     OW 6692   7.983   2.725   5.948  0.0947  0.7139 -0.3687
 1672SOL    HW1 6693   8.007   2.649   5.894 -3.1182  0.0964 -1.0611
 1672SOL    HW2 6694   7.984   2.692   6.038  0.1353  0.2319 -0.5443
 1673SOL     OW 6695   2.714   3.349   8.024  0.1534  0.2925 -0.2906
 1673SOL    HW1 6696   2.649   3.404   7.979 -0.3709 -0.8169 -0.9244
 1673SOL    HW2 6697   2.799   3.383   7.994 -0.1854 -0.9110 -2.7904
 1674SOL     OW 6698   0.440   0.973   8.806 -0.0567 -0.2500  0.1333
 1674SOL    HW1 6699   0.470   0.904   8.747  0.0071 -2.1747  2.3082
 1674SOL    HW2 6700   0.345   0.974   8.795  0.1356  0.9690 -1.6043
 1675SOL     OW 6701   3.537   3.229   8.146 -0.0416  0.1138  0.6649
 1675SOL    HW1 6702   3.627   3.208   8.174  0.5031  1.2468 -0.1945
 1675SOL    HW2 6703   3.515   3.160   8.084  1.0170  0.9491 -0.6727
 1676SOL     OW 6704   3.064   2.503   0.084 -0.2290 -0.4816  0.1751
 1676SOL    HW1 6705   2.981   2.497   0.038 -0.4173  1.6966  0.1691
 1676SOL    HW2 6706   3.078   2.597   0.098  2.5169 -0.7460 -0.3638
 1677SOL     OW 6707   9.266   0.432   4.519  0.0053 -0.3397 -0.0877
 1677SOL    HW1 6708   9.329   0.378   4.471  0.4987 -2.3083  2.6578
 1677SOL    HW2 6709   9.301   0.521   4.513  0.1433 -0.5356 -3.1373
 1678SOL     OW 6710   1.278   5.945   3.272  0.0607 -0.5018 -0.0695
 1678SOL    HW1 6711   1.229   5.910   3.198 -0.4727 -0.0202  0.0486
 1678SOL    HW2 6712   1.240   5.902   3.349  0.4677 -0.8401 -0.0565
 1679SOL     OW 6713   4.031   5.513   3.799  0.7935 -0.2230 -0.0159
 1679SOL    HW1 6714   4.125   5.503   3.785  0.9183  1.0149 -0.1191
 1679SOL    HW2 6715   3.990   5.454   3.736  1.4984 -0.6011 -0.1173
 1680SOL     OW 6716   0.632   4.925   6.415  0.0386 -0.5302  0.7235
 1680SOL    HW1 6717   0.643   5.005   6.364 -0.7639 -0.9170 -0.0768
 1680SOL    HW2 6718   0.682   4.859   6.366  0.5660 -0.5625  1.2947
 1681SOL     OW 6719   5.099   3.550   6.360  0.4465  0.1017  0.0756
 1681SOL    HW1 6720   5.012   3.524   6.390  0.0427 -0.2793 -1.3932
 1681SOL    HW2 6721   5.096   3.645   6.356 -0.4416  0.0164 -1.5487
 1682SOL     OW 6722   8.222   5.008   5.434 -0.5715  0.1939 -0.1694
 1682SOL    HW1 6723   8.178   4.981   5.514 -1.3875  1.8778 -0.0366
 1682SOL    HW2 6724   8.154   5.047   5.380  0.2105  0.1940 -1.1845
 1683SOL     OW 6725   4.085   2.175   8.805 -0.2889  0.1041  0.4663
 1683SOL    HW1 6726   4.090   2.081   8.821 -0.6875  0.3700  2.2233
 1683SOL    HW2 6727   3.997   2.189   8.770 -0.3412 -0.1244  0.5080
 1684SOL     OW 6728   4.302   7.250   5.376  0.0510  0.2004  0.1015
 1684SOL    HW1 6729   4.360   7.179   5.403  0.0933  0.0202 -0.4581
 1684SOL    HW2 6730   4.218   7.207   5.361 -0.3921  0.5569  1.5066
 1685SOL     OW 6731   5.810   6.476   8.443 -0.2624  0.1967 -1.1337
 1685SOL    HW1 6732   5.789   6.383   8.458 -1.2086 -0.1076 -4.1845
 1685SOL    HW2 6733   5.747   6.505   8.378 -1.4201  3.6500  1.3686
 1686SOL     OW 6734   2.742   7.535   0.348  0.2825 -0.1484 -0.1253
 1686SOL    HW1 6735   2.707   7.461   0.397 -1.3677  0.5582 -0.2130
 1686SOL    HW2 6736   2.752   7.502   0.259 -0.9741 -0.1166 -0.2878
 1687SOL     OW 6737   1.342   5.129   6.164  0.4714 -0.0643  0.3562
 1687SOL    HW1 6738   1.351   5.151   6.071  2.3997 -0.7068  0.3796
 1687SOL    HW2 6739   1.364   5.209   6.211 -0.2052  0.1740  0.2705
 1688SOL     OW 6740   0.084   3.625   3.810 -0.0682 -0.4203 -0.0829
 1688SOL    HW1 6741   0.006   3.627   3.866 -2.2861 -1.2222 -2.9860
 1688SOL    HW2 6742   0.087   3.535   3.778  1.3200 -0.0595 -0.9874
 1689SOL     OW 6743   7.965   8.643   6.669  0.6421  0.3846 -0.4055
 1689SOL    HW1 6744   8.010   8.673   6.590  1.2543 -2.3731 -1.1704
 1689SOL    HW2 6745   7.901   8.579   6.637 -1.7048  1.9794  0.9903
 1690SOL     OW 6746   8.402   6.487   0.349 -0.2014 -0.0790 -0.6223
 1690SOL    HW1 6747   8.339   6.416   0.356 -0.0316 -0.2316 -0.6076
 1690SOL    HW2 6748   8.349   6.566   0.339 -0.4246  0.0276  1.2677
 1691SOL     OW 6749   5.509   6.472   4.116 -0.0313 -0.0751  0.2022
 1691SOL    HW1 6750   5.420   6.505   4.102 -0.2179 -1.0238 -0.8708
 1691SOL    HW2 6751   5.565   6.549   4.107 -0.5809  0.1925 -1.0023
 1692SOL     OW 6752   6.007   1.762   4.331 -0.0723 -0.4696  0.2075
 1692SOL    HW1 6753   5.933   1.701   4.333  1.1857 -2.2080 -2.7073
 1692SOL    HW2 6754   6.065   1.731   4.400 -0.3607 -1.3539  0.0580
 1693SOL     OW 6755   0.289   3.277   3.041  0.1006 -0.0996 -0.5767
 1693SOL    HW1 6756   0.364   3.220   3.058 -0.8651 -1.5294 -0.9931
 1693SOL    HW2 6757   0.327   3.361   3.018  1.5788 -0.9059 -1.1309
 1694SOL     OW 6758   2.753   7.835   6.321 -0.4462 -0.0560 -0.0243
 1694SOL    HW1 6759   2.786   7.770   6.259 -2.7183 -0.4670 -0.8642
 1694SOL    HW2 6760   2.732   7.785   6.400 -0.5424 -0.0532 -0.0483
 1695SOL     OW 6761   8.396   6.478   3.446 -0.2899  0.1062 -0.3371
 1695SOL    HW1 6762   8.468   6.530   3.481  0.4675 -0.1022 -1.5501
 1695SOL    HW2 6763   8.387   6.405   3.507 -0.1819  0.7107  0.4050
 1696SOL     OW 6764   8.479   6.042   6.020 -0.1188 -0.0610 -0.4432
 1696SOL    HW1 6765   8.550   6.015   5.960  2.1139  0.7792  1.7308
 1696SOL    HW2 6766   8.445   6.122   5.982  2.8403  1.7427  0.5254
 1697SOL     OW 6767   5.495   7.315   2.205  0.4826 -0.6225 -0.4822
 1697SOL    HW1 6768   5.531   7.392   2.163  1.3753 -0.2822  0.8794
 1697SOL    HW2 6769   5.566   7.282   2.260 -0.9076 -0.5634  1.3942
 1698SOL     OW 6770   1.071   0.403   6.100  0.0837  0.1002  0.6443
 1698SOL    HW1 6771   1.138   0.362   6.045 -0.1019 -0.1717  0.6202
 1698SOL    HW2 6772   1.121   0.447   6.169  0.2844 -0.1259  0.6438
 1699SOL     OW 6773   2.610   2.890   9.253 -0.1461  0.4326  0.1847
 1699SOL    HW1 6774   2.684   2.853   9.205 -0.3767  0.5325 -0.2542
 1699SOL    HW2 6775   2.612   2.846   9.338  0.7657  0.8690  0.3917
 1700SOL     OW 6776   2.931   5.422   8.694  0.4392 -0.6821  0.0460
 1700SOL    HW1 6777   2.865   5.490   8.674  0.5548 -0.1814  1.2954
 1700SOL    HW2 6778   2.956   5.387   8.609 -0.5967 -0.0612 -0.5274
 1701SOL     OW 6779   8.757   5.643   8.608  0.0109  0.0661  0.0694
 1701SOL    HW1 6780   8.782   5.604   8.692  0.4187  1.2696  0.5144
 1701SOL    HW2 6781   8.670   5.681   8.625  0.7477  1.6425  0.3930
 1702SOL     OW 6782   1.477   5.809   4.664 -0.5003  0.3550 -0.2177
 1702SOL    HW1 6783   1.487   5.751   4.588 -0.4659  0.8066 -0.5651
 1702SOL    HW2 6784   1.504   5.895   4.632 -0.5890  0.5703  0.2794
 1703SOL     OW 6785   7.734   7.728   3.802 -0.2983 -0.9147  0.4783
 1703SOL    HW1 6786   7.678   7.733   3.725 -0.9372 -0.6229  0.9527
 1703SOL    HW2 6787   7.766   7.638   3.803 -0.2828 -0.9136 -0.1326
 1704SOL     OW 6788   5.856   4.235   8.426 -0.3740  0.0870  0.1440
 1704SOL    HW1 6789   5.792   4.192   8.483 -0.2381  1.0372  1.0381
 1704SOL    HW2 6790   5.895   4.303   8.481 -0.2224  1.0122 -1.0883
 1705SOL     OW 6791   2.306   8.654   1.951 -0.0277  0.1871  0.2405
 1705SOL    HW1 6792   2.291   8.631   2.043 -0.9012  1.7663  0.5265
 1705SOL    HW2 6793   2.268   8.742   1.942  2.2742  1.1046 -1.0153
 1706SOL     OW 6794   0.337   6.881   0.639  0.2717  0.4435 -0.3025
 1706SOL    HW1 6795   0.258   6.925   0.669 -0.4280  0.7907 -2.5795
 1706SOL    HW2 6796   0.316   6.787   0.644 -0.3413  0.5382 -1.0300
 1707SOL     OW 6797   9.042   7.845   1.849  0.1068 -0.8379 -0.6494
 1707SOL    HW1 6798   8.969   7.784   1.849  1.3415 -2.3586 -1.0503
 1707SOL    HW2 6799   9.041   7.884   1.936 -1.3844 -0.5765 -0.7720
 1708SOL     OW 6800   4.122   8.269   8.537 -1.0129  0.1639 -0.5251
 1708SOL    HW1 6801   4.075   8.199   8.582 -0.8788  1.1687  1.2494
 1708SOL    HW2 6802   4.200   8.226   8.502 -1.8701 -0.9464 -1.1085
 1709SOL     OW 6803   4.366   1.943   2.348  0.1663 -0.4879  0.1866
 1709SOL    HW1 6804   4.340   1.892   2.425 -0.7196  0.6744  0.6795
 1709SOL    HW2 6805   4.351   2.034   2.374  2.4358  0.0923 -0.3920
 1710SOL     OW 6806   1.118   2.184   8.156  0.3079 -0.7897 -0.2453
 1710SOL    HW1 6807   1.063   2.260   8.176 -2.6190 -3.0628  0.7385
 1710SOL    HW2 6808   1.142   2.195   8.064 -2.4824 -0.1063 -0.9411
 1711SOL     OW 6809   1.446   0.778   2.579 -0.6943  0.3917 -0.1110
 1711SOL    HW1 6810   1.458   0.860   2.532 -1.7362  0.1295 -0.8624
 1711SOL    HW2 6811   1.425   0.714   2.511 -0.9781 -0.2603  0.5777
 1712SOL     OW 6812   2.629   5.410   1.702 -0.2765  0.7737  0.4401
 1712SOL    HW1 6813   2.607   5.342   1.765  1.3339  1.8089  2.1658
 1712SOL    HW2 6814   2.714   5.384   1.666 -0.6037  0.8396 -0.4095
 1713SOL     OW 6815   7.496   2.243   7.878  0.4415 -0.1094 -0.0357
 1713SOL    HW1 6816   7.448   2.312   7.833 -1.0130 -0.6080  0.6916
 1713SOL    HW2 6817   7.429   2.179   7.902  1.9897 -2.6728 -2.2695
 1714SOL     OW 6818   4.588   2.018   6.228  0.4637 -0.0791  0.0387
 1714SOL    HW1 6819   4.587   2.005   6.323  0.3711  0.8234  0.1634
 1714SOL    HW2 6820   4.666   1.971   6.199  0.8159  0.1239  0.6342
 1715SOL     OW 6821   2.151   3.136   8.837  0.1038  0.1235 -0.3689
 1715SOL    HW1 6822   2.105   3.060   8.872 -0.6309  0.7402  0.0229
 1715SOL    HW2 6823   2.165   3.192   8.914  1.5733 -0.0887 -0.4710
 1716SOL     OW 6824   5.728   9.116   7.059  0.3285  0.0831  0.3312
 1716SOL    HW1 6825   5.727   9.164   6.976 -0.2035  2.2196  1.5563
 1716SOL    HW2 6826   5.818   9.126   7.091  0.0358  0.8446  0.9183
 1717SOL     OW 6827   1.523   5.107   4.666 -0.0639 -0.6769 -0.3269
 1717SOL    HW1 6828   1.602   5.094   4.718  0.4191 -0.8491 -1.0984
 1717SOL    HW2 6829   1.553   5.152   4.587 -0.9351  0.4378 -0.0353
 1718SOL     OW 6830   3.754   2.430   2.849 -0.0792  0.2982 -0.6218
 1718SOL    HW1 6831   3.798   2.515   2.846 -2.9746  1.9337  0.2901
 1718SOL    HW2 6832   3.762   2.401   2.940 -1.8731  1.2091 -0.1463
 1719SOL     OW 6833   8.485   9.154   4.198  0.3985 -0.5112  0.0876
 1719SOL    HW1 6834   8.555   9.130   4.137  0.8301 -1.3640  0.9105
 1719SOL    HW2 6835   8.438   9.072   4.213  0.2649 -0.2965  0.8665
 1720SOL     OW 6836   6.314   0.340   7.548  0.0422  0.2193 -0.3148
 1720SOL    HW1 6837   6.248   0.370   7.485 -0.8632  1.7653  1.3224
 1720SOL    HW2 6838   6.354   0.264   7.506 -0.9151  0.8814 -2.5156
 1721SOL     OW 6839   2.592   3.769   2.217  0.3367  0.3900  0.4132
 1721SOL    HW1 6840   2.686   3.766   2.235  0.2064  1.3124  1.3220
 1721SOL    HW2 6841   2.583   3.729   2.130  1.3929 -1.0292  0.9330
 1722SOL     OW 6842   5.044   5.432   4.596 -0.0216 -0.1603 -0.3306
 1722SOL    HW1 6843   5.133   5.465   4.588  0.0500 -0.5203 -1.0827
 1722SOL    HW2 6844   4.988   5.505   4.572  0.0804 -0.0464 -0.2211
 1723SOL     OW 6845   5.425   2.515   3.529 -0.1455 -0.3277  0.7328
 1723SOL    HW1 6846   5.464   2.538   3.445 -2.0925  1.3173  0.2437
 1723SOL    HW2 6847   5.457   2.427   3.547 -0.0007 -0.8473 -1.9144
 1724SOL     OW 6848   1.194   3.710   7.825  0.6734 -0.1174  0.3118
 1724SOL    HW1 6849   1.123   3.656   7.792  2.3332 -1.4294 -1.1913
 1724SOL    HW2 6850   1.198   3.785   7.765  1.3164 -0.6383 -0.2963
 1725SOL     OW 6851   6.031   0.861   8.760  0.0530 -0.5704  0.0505
 1725SOL    HW1 6852   6.061   0.808   8.686  1.3069  0.7730 -0.4073
 1725SOL    HW2 6853   6.110   0.902   8.795 -1.0522  1.9990 -0.3905
 1726SOL     OW 6854   3.251   1.480   7.324  0.1718 -0.0130  0.1139
 1726SOL    HW1 6855   3.256   1.482   7.419 -0.3959  0.4391  0.1388
 1726SOL    HW2 6856   3.186   1.547   7.302  0.8970  0.4600 -0.6395
 1727SOL     OW 6857   1.434   2.860   6.562  0.1094  0.1032  0.2974
 1727SOL    HW1 6858   1.404   2.889   6.648  0.8165  0.5403  0.3993
 1727SOL    HW2 6859   1.377   2.786   6.541 -0.8469  0.7446  0.6062
 1728SOL     OW 6860   8.914   4.771   7.483 -0.2912 -0.2774 -0.0126
 1728SOL    HW1 6861   9.002   4.809   7.480 -0.8096  0.8527 -1.0619
 1728SOL    HW2 6862   8.887   4.765   7.392 -0.9378 -1.5282  0.2476
 1729SOL     OW 6863   1.513   6.753   2.145 -0.4394 -0.7296 -0.0033
 1729SOL    HW1 6864   1.593   6.780   2.191  0.4870 -1.8137 -0.9380
 1729SOL    HW2 6865   1.445   6.812   2.179  0.7188  0.1237  0.9055
 1730SOL     OW 6866   6.371   1.057   4.490  0.1404  0.1073  0.0276
 1730SOL    HW1 6867   6.339   1.106   4.565 -0.2956  0.4501 -0.3809
 1730SOL    HW2 6868   6.297   1.053   4.430  0.4351 -0.3086 -0.3126
 1731SOL     OW 6869   1.954   0.064   2.515  0.5701  0.6192 -0.4425
 1731SOL    HW1 6870   2.006   0.001   2.464  0.6883  0.4083 -0.0665
 1731SOL    HW2 6871   1.863   0.041   2.495  0.5923 -0.4904  0.6626
 1732SOL     OW 6872   7.536   9.047   0.154  0.1791 -0.0943  0.0167
 1732SOL    HW1 6873   7.556   9.099   0.232 -0.3378 -0.1542  0.1894
 1732SOL    HW2 6874   7.570   9.099   0.081  0.1274  0.2411  0.2310
 1733SOL     OW 6875   4.590   7.477   2.742  1.0764 -0.4343 -0.5257
 1733SOL    HW1 6876   4.623   7.561   2.712  1.7017 -0.7405 -0.6970
 1733SOL    HW2 6877   4.615   7.473   2.834  0.4682 -0.1504 -0.3423
 1734SOL     OW 6878   8.199   7.185   0.606  0.1494 -0.4525 -0.3270
 1734SOL    HW1 6879   8.149   7.265   0.624  0.2871 -0.2146 -0.9590
 1734SOL    HW2 6880   8.164   7.120   0.666 -0.3464 -0.0598 -0.1892
 1735SOL     OW 6881   1.348   0.981   8.425  0.5119  0.2282 -0.0103
 1735SOL    HW1 6882   1.420   1.043   8.438 -1.6428  2.2450  2.9451
 1735SOL    HW2 6883   1.343   0.932   8.507 -3.6988  2.5925  1.2623
 1736SOL     OW 6884   2.365   5.785   0.603  0.3862 -0.2019  0.4262
 1736SOL    HW1 6885   2.428   5.857   0.604 -2.4368  2.4118  1.7429
 1736SOL    HW2 6886   2.390   5.730   0.677  0.4819  1.4381  1.6456
 1737SOL     OW 6887   1.582   8.041   8.252 -0.2201  0.2778  0.6180
 1737SOL    HW1 6888   1.551   7.970   8.195 -1.3338  0.6092  0.7931
 1737SOL    HW2 6889   1.620   8.105   8.191 -2.0211  0.9442  0.1640
 1738SOL     OW 6890   6.171   1.720   6.143 -0.4964 -0.0945 -0.1790
 1738SOL    HW1 6891   6.243   1.657   6.140  0.2940  0.7154  1.1402
 1738SOL    HW2 6892   6.099   1.673   6.185 -0.9968 -1.1257 -2.1210
 1739SOL     OW 6893   3.360   2.520   9.178 -0.0577 -0.7048  0.1131
 1739SOL    HW1 6894   3.447   2.488   9.203  0.3024 -1.3868 -1.9076
 1739SOL    HW2 6895   3.327   2.454   9.117 -0.9803  0.7808 -1.0234
 1740SOL     OW 6896   6.314   1.048   0.013  0.2384  0.2441 -0.2227
 1740SOL    HW1 6897   6.347   1.120  -0.041 -0.4840  0.5408 -0.2809
 1740SOL    HW2 6898   6.296   1.088   0.098 -1.0403  0.3528 -0.5262
 1741SOL     OW 6899   5.280   5.113   7.596  0.4218 -0.2699 -0.0434
 1741SOL    HW1 6900   5.229   5.050   7.646 -1.4589  1.4751  0.3254
 1741SOL    HW2 6901   5.337   5.155   7.660 -1.6351  1.6166  0.6199
 1742SOL     OW 6902   9.244   7.313   6.657 -0.0894 -0.3141 -0.2428
 1742SOL    HW1 6903   9.223   7.296   6.565 -0.1566  1.8257 -0.6623
 1742SOL    HW2 6904   9.160   7.339   6.695  0.1114 -0.3201  0.1985
 1743SOL     OW 6905   4.195   1.420   2.108  0.1457 -0.1782  0.0965
 1743SOL    HW1 6906   4.204   1.503   2.062 -0.9951  0.5640  1.1749
 1743SOL    HW2 6907   4.276   1.373   2.089  0.9291  1.2991 -0.2925
 1744SOL     OW 6908   3.745   6.157   9.229 -0.4453  0.3553 -0.0648
 1744SOL    HW1 6909   3.766   6.236   9.279 -0.3751 -0.0299  0.5217
 1744SOL    HW2 6910   3.655   6.136   9.253 -1.0876  1.2699 -1.5939
 1745SOL     OW 6911   5.114   0.201   1.231 -0.3740  0.4416  0.3491
 1745SOL    HW1 6912   5.142   0.234   1.316 -0.6191  2.0452 -0.1878
 1745SOL    HW2 6913   5.036   0.147   1.251 -1.6566  2.4503  0.9207
 1746SOL     OW 6914   6.388   6.738   4.534 -0.0015  0.4049 -0.5232
 1746SOL    HW1 6915   6.469   6.713   4.578 -1.4168 -0.8200  1.4333
 1746SOL    HW2 6916   6.360   6.658   4.488 -1.5910 -0.0807  1.1965
 1747SOL     OW 6917   7.524   2.654   3.352 -0.6001  0.2931  0.5107
 1747SOL    HW1 6918   7.454   2.594   3.378  1.1601 -1.2819  1.7774
 1747SOL    HW2 6919   7.589   2.646   3.422  1.3868  0.8189 -1.2310
 1748SOL     OW 6920   3.244   3.512   8.466 -0.1506  0.1936 -0.1921
 1748SOL    HW1 6921   3.331   3.546   8.443 -0.1829 -0.7555 -1.7757
 1748SOL    HW2 6922   3.234   3.434   8.411 -2.1239  0.4678 -0.2310
 1749SOL     OW 6923   2.620   0.883   5.234  0.5424 -0.1489 -0.8905
 1749SOL    HW1 6924   2.600   0.966   5.190 -0.4132  0.3891  0.5111
 1749SOL    HW2 6925   2.568   0.818   5.187 -0.5226  0.4342 -0.5627
 1750SOL     OW 6926   0.141   2.135   3.786 -0.3885 -0.4147 -0.1875
 1750SOL    HW1 6927   0.091   2.123   3.866  0.5956  1.7772  0.7726
 1750SOL    HW2 6928   0.177   2.048   3.767 -0.2806 -0.8491  1.9566
 1751SOL     OW 6929   9.260   3.363   8.742  0.0648  0.2816 -0.7198
 1751SOL    HW1 6930   9.209   3.357   8.662 -2.2154 -0.2845  0.7105
 1751SOL    HW2 6931   9.289   3.454   8.746 -0.5353  0.5227 -1.7484
 1752SOL     OW 6932   8.282   0.877   7.667 -0.4288 -0.7412  0.0860
 1752SOL    HW1 6933   8.313   0.788   7.680  1.6046  0.0125  0.6394
 1752SOL    HW2 6934   8.187   0.870   7.667 -0.3155 -2.6347  2.0134
 1753SOL     OW 6935   5.562   8.205   1.093  0.3989  0.2964  0.7021
 1753SOL    HW1 6936   5.499   8.182   1.162  0.2870 -0.9994  0.1795
 1753SOL    HW2 6937   5.514   8.267   1.037  0.5101  1.3993  1.8115
 1754SOL     OW 6938   3.389   4.023   2.824 -0.0268 -0.2382 -0.4878
 1754SOL    HW1 6939   3.406   4.105   2.777  0.3410 -0.0419 -0.0123
 1754SOL    HW2 6940   3.451   4.023   2.897 -1.9642  0.3952  1.1771
 1755SOL     OW 6941   1.905   5.837   3.785  0.1700 -0.2909  0.5512
 1755SOL    HW1 6942   1.938   5.839   3.875 -2.1940 -0.8403  1.4798
 1755SOL    HW2 6943   1.925   5.924   3.751  2.8768 -0.7345  0.9023
 1756SOL     OW 6944   1.565   0.850   4.037 -0.0416  0.0514  0.1830
 1756SOL    HW1 6945   1.653   0.889   4.040  0.3007 -0.6447 -0.6331
 1756SOL    HW2 6946   1.566   0.781   4.103 -0.0018  0.0746  0.2065
 1757SOL     OW 6947   8.291   4.827   0.838  0.7309 -0.0295  0.2737
 1757SOL    HW1 6948   8.378   4.797   0.865  0.9533  0.7159  0.3854
 1757SOL    HW2 6949   8.295   4.922   0.847  0.5215  0.1741 -1.5155
 1758SOL     OW 6950   7.194   0.731   4.808 -0.5181 -0.1231  0.0892
 1758SOL    HW1 6951   7.249   0.685   4.871 -2.4465 -1.0725  1.1019
 1758SOL    HW2 6952   7.185   0.820   4.843  0.6944  0.1650 -0.3027
 1759SOL     OW 6953   3.863   1.509   6.564 -0.2778  0.1533 -0.4977
 1759SOL    HW1 6954   3.924   1.509   6.490 -0.7906 -1.0435 -0.9280
 1759SOL    HW2 6955   3.911   1.466   6.635 -0.8435 -1.3861 -1.0338
 1760SOL     OW 6956   6.984   1.872   8.116 -0.1171  0.5576  0.2642
 1760SOL    HW1 6957   6.996   1.892   8.208 -0.5230  0.1839  0.4005
 1760SOL    HW2 6958   6.927   1.795   8.115  2.0107 -1.0641 -0.2218
 1761SOL     OW 6959   6.050   4.725   1.688 -0.5267 -0.7772 -0.2868
 1761SOL    HW1 6960   6.008   4.713   1.603 -2.0659  0.6327  0.2527
 1761SOL    HW2 6961   6.136   4.762   1.667 -1.1283  0.1214 -1.2131
 1762SOL     OW 6962   8.045   5.810   4.748 -0.5768 -0.1093  0.3415
 1762SOL    HW1 6963   8.093   5.763   4.817  0.9095  1.3301  0.3367
 1762SOL    HW2 6964   8.031   5.898   4.784 -0.5754  0.3879 -0.8382
 1763SOL     OW 6965   0.122   5.262   4.343 -0.0899  0.7489  0.3638
 1763SOL    HW1 6966   0.090   5.288   4.256 -2.0782 -1.0187  0.5132
 1763SOL    HW2 6967   0.137   5.168   4.335  1.2666  0.8560  1.5040
 1764SOL     OW 6968   0.712   2.967   0.361 -0.1642  0.5772 -0.3556
 1764SOL    HW1 6969   0.625   3.003   0.346 -0.9579  0.3061  3.2240
 1764SOL    HW2 6970   0.762   3.041   0.397  0.9507  0.5559 -1.7860
 1765SOL     OW 6971   8.157   2.970   7.411  0.5834  0.7699  0.6958
 1765SOL    HW1 6972   8.147   3.018   7.329  1.0079 -1.2187 -0.5526
 1765SOL    HW2 6973   8.251   2.955   7.420  0.4840  0.4322  1.2314
 1766SOL     OW 6974   4.417   6.280   5.429  0.2552 -0.1714  0.3425
 1766SOL    HW1 6975   4.339   6.230   5.406 -0.0856  0.4045  0.2258
 1766SOL    HW2 6976   4.474   6.273   5.352 -0.5318  1.0636 -0.3760
 1767SOL     OW 6977   2.662   1.877   4.351  0.5521  0.2229  0.3171
 1767SOL    HW1 6978   2.641   1.968   4.331  0.4723 -0.1258 -1.2615
 1767SOL    HW2 6979   2.585   1.842   4.395 -0.1405  0.4075 -0.7446
 1768SOL     OW 6980   2.352   8.334   8.626  0.1135  0.1221  0.4517
 1768SOL    HW1 6981   2.342   8.252   8.578  3.8311 -2.1110  3.2387
 1768SOL    HW2 6982   2.286   8.330   8.695 -1.0917  0.4945 -0.6531
 1769SOL     OW 6983   1.484   0.605   0.182 -0.3487  0.1791  0.1251
 1769SOL    HW1 6984   1.513   0.606   0.091  0.7010 -5.0313  0.2309
 1769SOL    HW2 6985   1.390   0.592   0.177 -0.6068  2.1142 -0.2014
 1770SOL     OW 6986   3.377   1.892   8.527 -0.6050 -0.5911 -0.6025
 1770SOL    HW1 6987   3.289   1.913   8.558 -0.5443 -0.9428 -0.1912
 1770SOL    HW2 6988   3.433   1.958   8.569 -0.7591  0.0651 -1.4103
 1771SOL     OW 6989   4.708   3.427   7.037 -0.1541  0.3761  0.1649
 1771SOL    HW1 6990   4.674   3.361   6.976 -2.3085  1.2615  0.3772
 1771SOL    HW2 6991   4.695   3.389   7.124  1.6456 -0.2924  0.1716
 1772SOL     OW 6992   0.328   6.932   3.125  0.1780  0.8196 -0.5603
 1772SOL    HW1 6993   0.344   6.858   3.184 -1.4320  0.8022 -0.1247
 1772SOL    HW2 6994   0.409   6.939   3.074  0.8004 -0.4972  0.2023
 1773SOL     OW 6995   5.162   5.481   1.362  0.4348 -0.4366  0.3717
 1773SOL    HW1 6996   5.219   5.423   1.312  0.0993 -0.8623  0.4807
 1773SOL    HW2 6997   5.220   5.550   1.395  0.6805 -0.2079 -0.5142
 1774SOL     OW 6998   8.390   5.045   1.933 -0.3036 -0.1368 -0.0475
 1774SOL    HW1 6999   8.324   5.066   2.000  0.1525  0.3575  0.2470
 1774SOL    HW2 7000   8.415   5.129   1.896  0.2481 -0.3130 -0.0817
 1775SOL     OW 7001   0.323   6.903   1.551  0.1605  0.0825  0.6675
 1775SOL    HW1 7002   0.287   6.985   1.587 -1.3586 -0.3042  0.0894
 1775SOL    HW2 7003   0.387   6.874   1.615 -0.7500  0.6844  1.8657
 1776SOL     OW 7004   9.099   6.850   8.535 -0.5278  0.0756 -0.4136
 1776SOL    HW1 7005   9.030   6.805   8.584 -0.1044 -0.6766 -0.4936
 1776SOL    HW2 7006   9.114   6.931   8.584  0.8873 -1.3152  1.5469
 1777SOL     OW 7007   6.328   1.976   1.011 -0.1857 -0.4871  0.1186
 1777SOL    HW1 7008   6.422   1.956   1.011 -0.2700 -0.8879 -0.4720
 1777SOL    HW2 7009   6.318   2.045   0.945 -0.0194  0.9560  1.5712
 1778SOL     OW 7010   6.743   4.198   0.032 -0.3197 -0.1474 -0.1158
 1778SOL    HW1 7011   6.724   4.229  -0.056  0.1119  1.2015  0.2496
 1778SOL    HW2 7012   6.673   4.234   0.086  0.3055  0.3833  0.3536
 1779SOL     OW 7013   1.398   5.513   2.584 -0.0185  0.0996  0.3471
 1779SOL    HW1 7014   1.410   5.561   2.666  1.0696  0.2721  0.0913
 1779SOL    HW2 7015   1.454   5.558   2.521  2.0271 -2.2704  0.4164
 1780SOL     OW 7016   6.465   8.616   6.601 -0.2375 -0.3870 -0.5834
 1780SOL    HW1 7017   6.490   8.687   6.542 -1.2494 -0.1077 -0.6940
 1780SOL    HW2 7018   6.543   8.562   6.608 -0.1551 -0.5146 -2.3187
 1781SOL     OW 7019   5.364   5.059   4.858 -0.1660 -1.1442  0.0817
 1781SOL    HW1 7020   5.342   4.976   4.815 -0.3970 -1.3930  0.6739
 1781SOL    HW2 7021   5.444   5.087   4.815 -1.0278 -0.7997 -1.3035
 1782SOL     OW 7022   3.234   1.976   9.154 -0.8266 -0.0707 -0.0753
 1782SOL    HW1 7023   3.170   1.916   9.193 -0.0201 -0.8369  0.0923
 1782SOL    HW2 7024   3.296   1.919   9.109  0.3745  0.5746  0.7241
 1783SOL     OW 7025   7.024   5.745   3.729  0.0420  0.2632 -0.4201
 1783SOL    HW1 7026   7.075   5.723   3.807 -0.0829 -2.1243 -0.9883
 1783SOL    HW2 7027   7.087   5.738   3.657 -1.3717 -4.4281 -1.3526
 1784SOL     OW 7028   3.664   6.303   1.636 -0.5552  0.7732 -0.4359
 1784SOL    HW1 7029   3.584   6.354   1.628 -0.6421  0.4805 -1.5340
 1784SOL    HW2 7030   3.686   6.307   1.729 -1.4734  1.4108 -0.2401
 1785SOL     OW 7031   5.500   7.837   3.095  0.4885 -0.0878  0.3901
 1785SOL    HW1 7032   5.532   7.913   3.046  0.7771 -1.0658 -0.9621
 1785SOL    HW2 7033   5.405   7.837   3.080  0.5815 -0.4058 -0.1823
 1786SOL     OW 7034   4.908   8.639   4.507 -0.5717 -0.2891 -0.8907
 1786SOL    HW1 7035   4.952   8.718   4.536 -1.9366  0.5703 -1.0950
 1786SOL    HW2 7036   4.814   8.660   4.514 -1.0605 -3.0713  2.3734
 1787SOL     OW 7037   7.025   5.836   0.397  0.2593 -0.0026  0.1508
 1787SOL    HW1 7038   7.087   5.908   0.385  2.0207 -1.5953 -0.5565
 1787SOL    HW2 7039   6.939   5.879   0.403  0.8096  1.9701 -3.8593
 1788SOL     OW 7040   2.701   0.814   2.037  0.1469  0.5546 -0.1512
 1788SOL    HW1 7041   2.724   0.875   2.108 -1.9766  0.6714  0.4800
 1788SOL    HW2 7042   2.626   0.765   2.072  1.1340 -1.6659 -1.0870
 1789SOL     OW 7043   1.337   4.191   5.481  0.3532 -0.0874 -0.3156
 1789SOL    HW1 7044   1.424   4.226   5.459  0.0248  0.7564 -0.2714
 1789SOL    HW2 7045   1.275   4.253   5.442 -0.2265  0.3635  1.2950
 1790SOL     OW 7046   7.484   0.945   5.936 -0.2178  0.1139 -0.0895
 1790SOL    HW1 7047   7.479   0.942   5.840  2.0168 -2.0233 -0.2060
 1790SOL    HW2 7048   7.547   1.015   5.954  0.8736 -0.8072 -0.2798
 1791SOL     OW 7049   7.594   1.827   8.617  0.0777  0.1216 -0.2555
 1791SOL    HW1 7050   7.647   1.790   8.688  0.5401 -1.2115 -1.2630
 1791SOL    HW2 7051   7.658   1.869   8.559 -0.1271 -0.0942 -0.6413
 1792SOL     OW 7052   0.850   0.400   7.991 -0.1179 -0.1782  0.6159
 1792SOL    HW1 7053   0.794   0.451   8.049  1.4686  1.2780  0.9028
 1792SOL    HW2 7054   0.935   0.443   7.997  0.4279 -0.9123 -1.6482
 1793SOL     OW 7055   8.090   5.376   3.648 -0.6633 -0.2732 -0.2396
 1793SOL    HW1 7056   8.142   5.323   3.587  2.0800  1.3913  0.5620
 1793SOL    HW2 7057   8.099   5.332   3.732  0.1158  0.4412  0.0576
 1794SOL     OW 7058   0.062   8.883   3.034 -0.3566  0.0266 -0.0493
 1794SOL    HW1 7059   0.030   8.949   3.096  0.6847 -0.0382  0.5712
 1794SOL    HW2 7060   0.146   8.918   3.004  0.7669 -1.5606  1.1875
 1795SOL     OW 7061   3.398   5.627   8.094 -0.5360  0.1885 -0.1744
 1795SOL    HW1 7062   3.477   5.671   8.124 -0.6555  0.3183 -0.0531
 1795SOL    HW2 7063   3.409   5.620   7.999 -0.2958  0.0447 -0.1358
 1796SOL     OW 7064   4.495   6.108   1.712 -0.4374 -0.3473 -0.7066
 1796SOL    HW1 7065   4.511   6.114   1.806 -1.2217  0.2288 -0.6048
 1796SOL    HW2 7066   4.525   6.192   1.677  0.6907 -0.9004 -1.1064
 1797SOL     OW 7067   6.668   5.189   6.647 -0.2191 -0.2233  0.6001
 1797SOL    HW1 7068   6.710   5.275   6.646 -1.0853  0.2040  0.8319
 1797SOL    HW2 7069   6.712   5.141   6.577 -0.9833  1.0100 -0.7616
 1798SOL     OW 7070   8.979   4.480   9.140 -0.2554  0.5248  0.3555
 1798SOL    HW1 7071   8.987   4.574   9.125  0.3556  0.5445  0.7634
 1798SOL    HW2 7072   8.966   4.471   9.235 -2.2640  0.3038  0.0699
 1799SOL     OW 7073   0.425   5.870   0.178 -0.4004 -0.1697 -0.0884
 1799SOL    HW1 7074   0.438   5.822   0.260  1.8119  0.1059 -0.2439
 1799SOL    HW2 7075   0.382   5.951   0.205  1.6429  0.5931  1.0552
 1800SOL     OW 7076   4.527   7.661   4.254 -0.0226 -0.3572 -0.4352
 1800SOL    HW1 7077   4.441   7.689   4.285  0.0077  0.0931 -0.7604
 1800SOL    HW2 7078   4.509   7.594   4.188 -0.0783 -1.7134  0.9189
 1801SOL     OW 7079   1.467   7.780   6.606  0.2710 -0.0226  0.4982
 1801SOL    HW1 7080   1.524   7.704   6.609 -0.2904 -0.4537  0.4175
 1801SOL    HW2 7081   1.431   7.786   6.694 -1.8347 -1.5295 -0.2130
 1802SOL     OW 7082   0.234   8.872   5.310  0.5459  0.3674  0.4674
 1802SOL    HW1 7083   0.219   8.905   5.399  2.3714  0.7762  0.6460
 1802SOL    HW2 7084   0.168   8.916   5.256  0.2405  1.0788  1.4073
 1803SOL     OW 7085   0.231   5.459   3.434 -0.6072 -0.0705 -0.0130
 1803SOL    HW1 7086   0.190   5.544   3.420 -0.2217  0.1749  0.3195
 1803SOL    HW2 7087   0.297   5.476   3.502 -2.9572 -1.3743  2.6957
 1804SOL     OW 7088   6.792   3.788   1.651  0.4855 -0.0409  0.3924
 1804SOL    HW1 7089   6.795   3.775   1.746  1.2783  1.0290  0.5295
 1804SOL    HW2 7090   6.700   3.809   1.633  0.2524 -0.6431  0.8720
 1805SOL     OW 7091   1.343   6.897   3.464  0.1384 -0.9173 -0.1974
 1805SOL    HW1 7092   1.252   6.871   3.479 -0.0120 -0.8255 -0.9350
 1805SOL    HW2 7093   1.363   6.865   3.377  0.4298  0.1223 -0.5228
 1806SOL     OW 7094   2.897   7.216   0.381  0.3902  0.0749 -0.8676
 1806SOL    HW1 7095   2.988   7.240   0.395  0.3774  0.4118 -1.3558
 1806SOL    HW2 7096   2.888   7.208   0.286  0.0647 -0.5613 -0.7902
 1807SOL     OW 7097   1.238   7.744   0.186 -0.3761  0.1882  0.4778
 1807SOL    HW1 7098   1.315   7.781   0.144 -0.0763 -1.1096 -0.1465
 1807SOL    HW2 7099   1.268   7.717   0.273 -0.1762 -0.1194  0.3140
 1808SOL     OW 7100   0.108   9.192   5.735 -0.4481 -0.5442 -0.0266
 1808SOL    HW1 7101   0.094   9.219   5.825 -1.0002 -0.7020 -0.0653
 1808SOL    HW2 7102   0.122   9.274   5.687  0.1629 -0.4831  0.2559
 1809SOL     OW 7103   6.007   6.710   1.719  0.1787 -0.4409  0.8394
 1809SOL    HW1 7104   5.960   6.734   1.639  1.1694 -1.2708 -0.0139
 1809SOL    HW2 7105   5.978   6.774   1.784 -2.1126 -0.9393  0.3425
 1810SOL     OW 7106   1.645   3.893   2.280 -0.6128 -0.3207 -0.1526
 1810SOL    HW1 7107   1.568   3.854   2.320 -0.0504  0.4134  1.7014
 1810SOL    HW2 7108   1.719   3.848   2.321 -0.0002  1.4064  0.6925
 1811SOL     OW 7109   5.999   4.229   0.544  0.1919 -0.0957 -0.3521
 1811SOL    HW1 7110   5.967   4.154   0.593 -0.2689 -0.1128 -0.6716
 1811SOL    HW2 7111   6.025   4.193   0.459  0.8888 -0.0524 -0.1543
 1812SOL     OW 7112   7.063   0.132   1.325  0.0761 -0.1101 -0.5331
 1812SOL    HW1 7113   7.110   0.206   1.363  1.7211 -1.3577 -0.0242
 1812SOL    HW2 7114   6.998   0.171   1.267 -2.4317  1.8785  3.3922
 1813SOL     OW 7115   8.851   0.604   2.396  0.7513 -0.0925 -0.7536
 1813SOL    HW1 7116   8.861   0.619   2.302  1.0651 -1.5973 -0.9707
 1813SOL    HW2 7117   8.841   0.509   2.404  2.0558 -0.1111  0.8494
 1814SOL     OW 7118   8.661   7.744   4.011  0.0186  0.3763 -0.2185
 1814SOL    HW1 7119   8.727   7.679   3.986 -0.9362 -0.6270 -0.1503
 1814SOL    HW2 7120   8.709   7.807   4.065  1.2033  0.3484 -1.2053
 1815SOL     OW 7121   8.031   0.009   4.286 -0.1726  0.7700 -0.0318
 1815SOL    HW1 7122   7.998   0.072   4.351 -0.1494  0.9676 -0.2122
 1815SOL    HW2 7123   8.079   0.062   4.223  1.0919  0.4023  0.6047
 1816SOL     OW 7124   2.754   3.868   3.792 -0.7472  0.4277  0.4548
 1816SOL    HW1 7125   2.843   3.866   3.827 -0.5514  2.6257  0.1633
 1816SOL    HW2 7126   2.756   3.935   3.724 -1.9687 -1.4131 -1.4678
 1817SOL     OW 7127   3.816   1.351   4.870  0.3958 -0.2402 -0.6578
 1817SOL    HW1 7128   3.876   1.306   4.929 -0.2946 -0.9717 -0.4973
 1817SOL    HW2 7129   3.735   1.361   4.920  0.2609  0.4133 -0.9914
 1818SOL     OW 7130   1.726   7.912   3.740  0.0267  0.1742  0.3056
 1818SOL    HW1 7131   1.651   7.940   3.688 -0.1722 -1.1264 -0.1304
 1818SOL    HW2 7132   1.802   7.933   3.685 -0.2193 -1.8865 -0.8732
 1819SOL     OW 7133   6.084   8.041   2.216 -0.5842 -0.0142  0.1239
 1819SOL    HW1 7134   5.994   8.073   2.219 -0.6599 -0.2204  0.0961
 1819SOL    HW2 7135   6.080   7.964   2.159  0.1584  1.7328 -2.3419
 1820SOL     OW 7136   3.916   1.532   7.952 -0.4095 -0.0064  0.0746
 1820SOL    HW1 7137   3.973   1.460   7.979 -0.3689 -0.2307 -0.5996
 1820SOL    HW2 7138   3.843   1.489   7.908 -2.2276  0.1178  2.8107
 1821SOL     OW 7139   1.432   7.574   3.954 -0.0313 -0.0549  0.1389
 1821SOL    HW1 7140   1.482   7.614   3.883 -0.7620  2.7599  1.1799
 1821SOL    HW2 7141   1.342   7.569   3.920 -0.5083  1.8922  1.0950
 1822SOL     OW 7142   3.497   1.012   1.486 -0.0673 -0.2607  0.7450
 1822SOL    HW1 7143   3.442   1.028   1.563 -1.2286  0.3703 -0.1891
 1822SOL    HW2 7144   3.440   1.032   1.412  0.8441 -1.4859 -0.2952
 1823SOL     OW 7145   9.103   4.707   8.551  0.0903 -0.2854  0.1335
 1823SOL    HW1 7146   9.118   4.765   8.626 -0.6420 -0.6405  0.5581
 1823SOL    HW2 7147   9.163   4.634   8.566  0.4116 -0.0466  0.0295
 1824SOL     OW 7148   4.426   6.364   3.381  0.0536 -0.0179 -0.8225
 1824SOL    HW1 7149   4.400   6.338   3.469  1.7498 -0.8599 -0.5672
 1824SOL    HW2 7150   4.350   6.339   3.327 -0.6840 -0.2027  0.2671
 1825SOL     OW 7151   0.196   8.573   1.708  0.2498  0.5413 -0.2363
 1825SOL    HW1 7152   0.267   8.629   1.740  0.4222 -0.0789  0.4682
 1825SOL    HW2 7153   0.201   8.494   1.762 -1.1193  0.5880 -0.0330
 1826SOL     OW 7154   2.903   0.728   8.336 -0.1637  0.1968  0.0046
 1826SOL    HW1 7155   2.813   0.728   8.371  0.4201 -1.5906  1.6082
 1826SOL    HW2 7156   2.895   0.690   8.249 -1.1668  1.3662 -0.4201
 1827SOL     OW 7157   0.509   2.360   6.212 -0.8146  0.3061  0.5541
 1827SOL    HW1 7158   0.497   2.271   6.179 -0.0889  0.2215  0.5026
 1827SOL    HW2 7159   0.534   2.348   6.304 -1.3959  0.4863  0.7388
 1828SOL     OW 7160   7.044   2.441   6.243  0.2166  0.1735 -0.4339
 1828SOL    HW1 7161   7.047   2.509   6.176  1.8996  0.7117  0.1752
 1828SOL    HW2 7162   6.989   2.477   6.312  0.5599  0.6477 -0.4074
 1829SOL     OW 7163   6.257   8.145   4.626  0.0471  0.0054  0.6732
 1829SOL    HW1 7164   6.279   8.228   4.669 -2.0743  0.7657  0.3494
 1829SOL    HW2 7165   6.200   8.170   4.554  0.9087 -1.5964 -0.5935
 1830SOL     OW 7166   8.212   3.603   8.416 -0.2233  0.0256 -0.0803
 1830SOL    HW1 7167   8.270   3.665   8.461 -0.5629  1.1291 -1.1319
 1830SOL    HW2 7168   8.209   3.527   8.474  2.0223  0.0734  0.1543
 1831SOL     OW 7169   4.207   2.558   2.474  0.2848  0.2728  0.8247
 1831SOL    HW1 7170   4.169   2.488   2.525  1.8979 -0.8155  0.5744
 1831SOL    HW2 7171   4.256   2.514   2.404  0.7405  1.6472  0.2442
 1832SOL     OW 7172   7.195   6.595   4.441 -0.4380 -0.4747 -0.4687
 1832SOL    HW1 7173   7.237   6.673   4.478 -1.9836  0.3833 -0.5120
 1832SOL    HW2 7174   7.255   6.523   4.463  1.0515  0.7284 -0.5282
 1833SOL     OW 7175   1.491   0.435   0.970  0.2741 -0.2480  0.2041
 1833SOL    HW1 7176   1.514   0.344   0.986  1.7382 -0.0312 -0.5917
 1833SOL    HW2 7177   1.550   0.486   1.025 -0.0367  0.2420  0.0929
 1834SOL     OW 7178   1.927   4.084   0.915  0.0389  0.2198  0.8990
 1834SOL    HW1 7179   1.999   4.023   0.899 -0.4113  0.0518 -0.4987
 1834SOL    HW2 7180   1.856   4.054   0.858 -0.8020  0.9763  1.5312
 1835SOL     OW 7181   7.012   8.994   3.869  0.1551  0.4344  0.3101
 1835SOL    HW1 7182   6.972   9.080   3.882  1.6760  1.2186 -0.1207
 1835SOL    HW2 7183   7.061   8.978   3.950 -0.2847 -0.1287  0.4710
 1836SOL     OW 7184   5.788   8.500   6.629  0.1720  0.2719  0.1321
 1836SOL    HW1 7185   5.742   8.549   6.561  1.3047  1.0491 -0.0934
 1836SOL    HW2 7186   5.722   8.486   6.697 -0.9135 -0.3521 -1.0293
 1837SOL     OW 7187   1.242   8.543   7.255 -0.1571  0.6909  0.7290
 1837SOL    HW1 7188   1.181   8.601   7.300 -2.0217 -1.1222  0.6108
 1837SOL    HW2 7189   1.272   8.482   7.323  0.9656  1.1154  0.6254
 1838SOL     OW 7190   3.218   3.126   7.326 -0.0962 -0.4372  0.0692
 1838SOL    HW1 7191   3.291   3.065   7.341  0.5618  0.2197 -0.4440
 1838SOL    HW2 7192   3.159   3.079   7.268 -0.7403 -1.4925  1.5541
 1839SOL     OW 7193   2.576   1.068   4.157  0.4012  0.2414 -0.3038
 1839SOL    HW1 7194   2.650   1.015   4.185  0.8850  0.5857 -0.8946
 1839SOL    HW2 7195   2.502   1.008   4.153  0.5547 -0.0175  0.6975
 1840SOL     OW 7196   3.642   5.027   1.678  0.2956  0.4976 -0.4158
 1840SOL    HW1 7197   3.638   5.118   1.649 -2.1959  0.2388 -1.0401
 1840SOL    HW2 7198   3.621   4.975   1.600 -0.8103 -0.4611  0.4851
 1841SOL     OW 7199   3.345   0.964   5.423  0.4793 -0.2204  0.3740
 1841SOL    HW1 7200   3.377   1.053   5.437  0.6466 -0.5701  2.4166
 1841SOL    HW2 7201   3.259   0.963   5.465  0.7210 -1.1750  0.8646
 1842SOL     OW 7202   6.433   8.585   4.619 -0.3711  0.3271  0.2065
 1842SOL    HW1 7203   6.392   8.525   4.681 -0.0128  0.5567  0.6696
 1842SOL    HW2 7204   6.410   8.551   4.533 -2.0868  0.8329  0.4568
 1843SOL     OW 7205   0.997   2.636   9.006 -0.1881  0.3426 -0.0247
 1843SOL    HW1 7206   0.932   2.706   9.011 -0.3437  0.1140  1.3248
 1843SOL    HW2 7207   1.043   2.640   9.089  0.4459 -0.5455 -0.3241
 1844SOL     OW 7208   4.752   1.854   6.990  0.4108  0.0611 -0.6269
 1844SOL    HW1 7209   4.710   1.901   7.062  3.0804  1.3632  0.1207
 1844SOL    HW2 7210   4.768   1.920   6.923 -0.4022 -0.7903 -1.6764
 1845SOL     OW 7211   8.507   2.761   1.189  0.1068 -0.2003  0.2248
 1845SOL    HW1 7212   8.563   2.837   1.209 -0.9338  0.1400  1.9238
 1845SOL    HW2 7213   8.562   2.685   1.207  0.4922  0.1379  0.4755
 1846SOL     OW 7214   4.957   7.952   6.078  0.5850  0.4162  0.3610
 1846SOL    HW1 7215   4.893   7.992   6.018 -0.9561 -0.0058  1.6741
 1846SOL    HW2 7216   4.903   7.909   6.145  2.2078 -2.9149 -0.3601
 1847SOL     OW 7217   3.081   5.921   5.418 -0.6142 -0.0683 -0.0918
 1847SOL    HW1 7218   3.161   5.872   5.439  1.7165  3.1307 -1.0509
 1847SOL    HW2 7219   3.047   5.879   5.339  0.3015 -1.2903  0.1504
 1848SOL     OW 7220   8.400   1.723   5.346  0.3067  0.4493 -0.2411
 1848SOL    HW1 7221   8.454   1.788   5.301 -1.2239  1.1199 -1.1571
 1848SOL    HW2 7222   8.453   1.696   5.420  0.3224  4.0439  1.1897
 1849SOL     OW 7223   5.145   4.011   9.246 -0.4926 -0.5142 -0.3967
 1849SOL    HW1 7224   5.185   3.945   9.303 -1.2657 -1.4033 -0.8689
 1849SOL    HW2 7225   5.177   4.094   9.280  1.3404 -1.1752 -0.4346
 1850SOL     OW 7226   0.766   4.712   4.682 -0.0630  0.2994 -0.2470
 1850SOL    HW1 7227   0.831   4.763   4.730 -0.7414  1.7024 -0.8131
 1850SOL    HW2 7228   0.811   4.629   4.664  1.6058  1.2693 -0.6958
 1851SOL     OW 7229   6.425   2.148   3.652  0.5782  0.3926  0.3177
 1851SOL    HW1 7230   6.435   2.094   3.574 -0.5449 -1.4464  1.3905
 1851SOL    HW2 7231   6.513   2.152   3.690  0.6141 -0.9775  0.4027
 1852SOL     OW 7232   6.376   2.283   9.212 -0.8433 -0.1215  0.4432
 1852SOL    HW1 7233   6.421   2.199   9.225 -0.3255 -0.0468 -0.7251
 1852SOL    HW2 7234   6.414   2.341   9.277  1.6546  0.2597 -1.2615
 1853SOL     OW 7235   3.847   5.151   0.413 -0.4418  0.0778  0.1197
 1853SOL    HW1 7236   3.845   5.113   0.325  0.1852  0.0046  0.1358
 1853SOL    HW2 7237   3.770   5.114   0.457 -1.7746  1.5104 -0.9638
 1854SOL     OW 7238   3.269   0.929   4.388 -0.3341 -0.6737  0.0419
 1854SOL    HW1 7239   3.185   0.961   4.421  0.2960  0.8979  0.1699
 1854SOL    HW2 7240   3.267   0.835   4.405 -2.0830 -0.6603 -0.0021
 1855SOL     OW 7241   7.716   1.639   8.755 -0.9235  0.0532 -0.0152
 1855SOL    HW1 7242   7.746   1.609   8.669 -0.0936  0.1891  0.2290
 1855SOL    HW2 7243   7.672   1.562   8.792 -0.0733 -0.4353  0.0027
 1856SOL     OW 7244   1.786   5.032   6.584 -0.2076  0.1705 -0.0943
 1856SOL    HW1 7245   1.711   4.992   6.627 -1.8828  1.4201 -1.7560
 1856SOL    HW2 7246   1.823   5.091   6.649  0.7398 -2.0986  1.4951
 1857SOL     OW 7247   8.194   3.877   2.196  0.3802 -0.8818  0.2017
 1857SOL    HW1 7248   8.185   3.943   2.265  0.5108 -0.2031 -0.4288
 1857SOL    HW2 7249   8.129   3.810   2.219 -1.0677  0.3636 -0.1887
 1858SOL     OW 7250   8.121   5.577   5.967 -0.4819  0.1203 -0.4968
 1858SOL    HW1 7251   8.153   5.661   6.002 -0.2331 -0.5705  0.9672
 1858SOL    HW2 7252   8.138   5.514   6.037  1.3451 -1.5985 -2.4183
 1859SOL     OW 7253   2.392   0.584   2.579 -0.4828  0.0508  0.5473
 1859SOL    HW1 7254   2.341   0.521   2.529 -0.5949  0.9446 -0.4687
 1859SOL    HW2 7255   2.356   0.578   2.668 -1.8751  0.1438  0.0118
 1860SOL     OW 7256   1.444   0.008   2.463 -0.7180  0.2471 -0.6215
 1860SOL    HW1 7257   1.493  -0.073   2.450 -1.1696  0.1213 -1.5636
 1860SOL    HW2 7258   1.371   0.002   2.401 -2.1094  0.2749  0.9918
 1861SOL     OW 7259   5.954   9.193   0.603  0.2556 -0.3616 -0.6351
 1861SOL    HW1 7260   5.950   9.167   0.511  1.0086 -0.5323 -0.6191
 1861SOL    HW2 7261   5.963   9.288   0.600  1.4867 -0.4711 -0.7666
 1862SOL     OW 7262   4.888   8.367   3.807 -0.2438 -0.1678 -0.5475
 1862SOL    HW1 7263   4.912   8.326   3.889 -1.4465 -1.6258 -0.8910
 1862SOL    HW2 7264   4.794   8.384   3.815 -0.0799  1.0754 -1.0404
 1863SOL     OW 7265   2.359   8.275   8.956 -0.4371 -0.2149  0.0866
 1863SOL    HW1 7266   2.389   8.353   8.909 -0.1770  0.4337  1.3137
 1863SOL    HW2 7267   2.411   8.204   8.919 -0.9265  0.1219 -1.2939
 1864SOL     OW 7268   6.510   7.318   0.920 -0.7995  0.2965  0.1352
 1864SOL    HW1 7269   6.416   7.311   0.934 -0.9434 -1.2354 -1.4741
 1864SOL    HW2 7270   6.531   7.247   0.859  1.6027 -0.2036  1.4705
 1865SOL     OW 7271   3.559   5.896   2.529 -0.1994  0.4475  0.2448
 1865SOL    HW1 7272   3.562   5.860   2.618 -0.8873  0.2027  0.1738
 1865SOL    HW2 7273   3.508   5.977   2.538 -2.4400 -0.8577 -0.3495
 1866SOL     OW 7274   0.975   7.722   0.378 -0.0237  0.1013 -0.5034
 1866SOL    HW1 7275   0.956   7.629   0.392 -1.2801  0.4664  0.3026
 1866SOL    HW2 7276   1.068   7.724   0.353 -0.0851 -1.3978 -0.9201
 1867SOL     OW 7277   0.475   8.771   7.136 -0.0214  0.1507 -0.4804
 1867SOL    HW1 7278   0.523   8.714   7.197  0.2469  0.9080  0.0293
 1867SOL    HW2 7279   0.479   8.725   7.053  0.1845 -0.5853 -0.0715
 1868SOL     OW 7280   3.133   2.238   0.349 -0.2039 -0.2974 -0.1492
 1868SOL    HW1 7281   3.064   2.302   0.370  1.3521  0.6676  2.2878
 1868SOL    HW2 7282   3.085   2.161   0.318 -2.4878 -0.0669  2.5596
 1869SOL     OW 7283   1.794   4.571   1.284  0.1582 -0.2371  0.3943
 1869SOL    HW1 7284   1.737   4.644   1.308  2.4933  1.8599 -0.3040
 1869SOL    HW2 7285   1.825   4.536   1.367  0.2285  0.5471  0.6980
 1870SOL     OW 7286   2.609   0.665   8.450  1.2266  0.1627  1.0622
 1870SOL    HW1 7287   2.582   0.588   8.501 -0.1952  0.2979  0.5269
 1870SOL    HW2 7288   2.590   0.739   8.507 -0.5183  0.3255  0.2959
 1871SOL     OW 7289   7.705   5.172   0.837 -0.0064 -0.3393 -0.1875
 1871SOL    HW1 7290   7.624   5.146   0.794  0.5925 -1.3871 -0.7150
 1871SOL    HW2 7291   7.771   5.168   0.767  0.7159 -0.6322  0.5059
 1872SOL     OW 7292   7.194   4.588   3.258  0.3286 -0.0517 -0.0365
 1872SOL    HW1 7293   7.215   4.624   3.172  0.8713  0.1243  0.1588
 1872SOL    HW2 7294   7.270   4.612   3.312  0.3874 -0.9063  0.2698
 1873SOL     OW 7295   3.576   1.347   8.037 -0.1570 -1.0148 -0.0769
 1873SOL    HW1 7296   3.530   1.308   8.112 -1.0543 -0.7240 -0.4656
 1873SOL    HW2 7297   3.540   1.436   8.031 -1.9684 -1.8437 -2.3916
 1874SOL     OW 7298   4.422   6.379   5.933 -0.4634  0.2279 -0.3866
 1874SOL    HW1 7299   4.397   6.341   6.017 -0.1564 -0.4074 -0.5723
 1874SOL    HW2 7300   4.373   6.328   5.868  0.7091 -0.5377 -0.7017
 1875SOL     OW 7301   7.196   7.303   2.552  0.5498  0.0768  0.7132
 1875SOL    HW1 7302   7.205   7.246   2.475 -0.7162 -0.1120  0.6912
 1875SOL    HW2 7303   7.278   7.352   2.555  0.5087  0.3061 -0.9450
 1876SOL     OW 7304   9.040   4.785   8.293  0.0238  0.0951 -0.4415
 1876SOL    HW1 7305   8.968   4.845   8.316 -0.5598 -0.2610 -1.3125
 1876SOL    HW2 7306   9.088   4.773   8.375 -1.6801 -0.6960  0.4846
 1877SOL     OW 7307   2.770   7.841   8.341  0.4746 -0.1405  0.1853
 1877SOL    HW1 7308   2.848   7.896   8.345  0.4030  0.0803 -1.1535
 1877SOL    HW2 7309   2.782   7.777   8.410  1.8291 -0.0811  0.0129
 1878SOL     OW 7310   6.561   9.284   1.051 -0.3845 -0.0593 -0.0988
 1878SOL    HW1 7311   6.633   9.221   1.064 -1.2229 -1.1194 -0.5546
 1878SOL    HW2 7312   6.605   9.369   1.049  0.7315 -0.5869  0.8983
 1879SOL     OW 7313   7.876   4.512   3.416 -0.4633  0.4044  0.0706
 1879SOL    HW1 7314   7.888   4.605   3.402 -0.3704  0.5305  0.9537
 1879SOL    HW2 7315   7.914   4.470   3.339 -1.0115  1.1175 -0.5858
 1880SOL     OW 7316   1.741   3.540   2.185 -0.2435 -0.3508 -0.3092
 1880SOL    HW1 7317   1.721   3.485   2.110  0.8626 -1.5002  0.2044
 1880SOL    HW2 7318   1.657   3.555   2.228 -0.3349 -3.2320  0.5931
 1881SOL     OW 7319   5.382   3.233   7.011  0.6392  0.1377 -0.0043
 1881SOL    HW1 7320   5.336   3.317   7.008  1.4031  0.5732  0.3669
 1881SOL    HW2 7321   5.461   3.251   7.061  1.7355 -0.3426 -1.5300
 1882SOL     OW 7322   8.450   5.567   0.318 -0.6371 -0.3130 -0.7314
 1882SOL    HW1 7323   8.411   5.509   0.383  0.5310 -0.5533 -0.2430
 1882SOL    HW2 7324   8.507   5.625   0.368 -0.8238  0.4239 -1.3676
 1883SOL     OW 7325   3.532   7.480   4.306 -0.1989  0.4705  0.2622
 1883SOL    HW1 7326   3.549   7.540   4.233 -0.2548 -0.9410 -0.9251
 1883SOL    HW2 7327   3.439   7.460   4.299 -0.6281  1.7767  1.8616
 1884SOL     OW 7328   9.006   8.621   8.157 -0.7630  0.2486  0.5587
 1884SOL    HW1 7329   8.995   8.684   8.229  1.3548 -0.7357  1.7969
 1884SOL    HW2 7330   9.101   8.616   8.145 -1.0411 -0.7386 -1.3139
 1885SOL     OW 7331   7.904   0.962   7.016 -0.4591  0.2266  0.6845
 1885SOL    HW1 7332   7.895   0.919   6.931 -1.4485  2.0607 -0.1645
 1885SOL    HW2 7333   7.998   0.963   7.033 -0.2568 -0.1565 -0.3900
 1886SOL     OW 7334   7.515   1.435   3.142  0.2216 -0.2044 -0.1081
 1886SOL    HW1 7335   7.559   1.403   3.064 -1.6270  0.5282 -1.4900
 1886SOL    HW2 7336   7.422   1.423   3.123 -0.2995  1.3659  1.3702
 1887SOL     OW 7337   8.305   7.386   2.855 -0.0036 -0.3669  0.3761
 1887SOL    HW1 7338   8.304   7.417   2.764  0.9002  1.4463  0.9739
 1887SOL    HW2 7339   8.397   7.367   2.873 -0.2212 -1.0024  0.8428
 1888SOL     OW 7340   3.583   5.232   8.742 -0.5939 -0.0110  0.2922
 1888SOL    HW1 7341   3.544   5.195   8.663  0.0843  0.7990 -0.4285
 1888SOL    HW2 7342   3.529   5.198   8.814 -1.4118 -0.4854 -0.5389
 1889SOL     OW 7343   3.972   1.651   8.753  0.0162  0.1147 -0.2404
 1889SOL    HW1 7344   3.957   1.691   8.838 -1.1314 -1.4101  0.2876
 1889SOL    HW2 7345   3.980   1.557   8.771  0.4613 -0.1413 -1.7121
 1890SOL     OW 7346   0.833   4.983   1.131  0.1550  0.1793 -0.1773
 1890SOL    HW1 7347   0.812   4.938   1.049  1.4544 -0.5028 -0.1451
 1890SOL    HW2 7348   0.922   4.957   1.151 -0.1319  0.3674  1.4572
 1891SOL     OW 7349   8.249   5.298   3.867  0.3317 -0.3246  0.3338
 1891SOL    HW1 7350   8.230   5.316   3.959 -0.6672  1.4579 -0.1853
 1891SOL    HW2 7351   8.330   5.346   3.849  1.0168 -1.4070  0.5077
 1892SOL     OW 7352   0.231   3.871   5.386 -0.2226  0.5082 -0.3015
 1892SOL    HW1 7353   0.318   3.884   5.424 -0.2415 -2.1114  0.7419
 1892SOL    HW2 7354   0.172   3.923   5.441  0.3444  0.2092  0.5917
 1893SOL     OW 7355   4.701   4.560   0.832  0.1663 -0.0804  0.2066
 1893SOL    HW1 7356   4.619   4.546   0.880 -0.0955 -1.3839 -0.5877
 1893SOL    HW2 7357   4.674   4.572   0.741  0.6614  2.3902  0.3479
 1894SOL     OW 7358   0.770   5.764   4.286 -0.1843  0.3743  0.4484
 1894SOL    HW1 7359   0.738   5.813   4.363 -1.1807  0.6683 -0.1422
 1894SOL    HW2 7360   0.860   5.743   4.308 -1.1191 -1.5772  2.7292
 1895SOL     OW 7361   8.373   7.276   8.656  0.1568 -0.3446  0.7186
 1895SOL    HW1 7362   8.400   7.354   8.705 -0.1765  0.2433 -0.0228
 1895SOL    HW2 7363   8.453   7.224   8.647  1.0422  1.3248 -1.3651
 1896SOL     OW 7364   1.414   2.964   1.120 -0.2390  0.1198 -0.0452
 1896SOL    HW1 7365   1.344   2.980   1.184 -0.5191 -1.9397  0.2171
 1896SOL    HW2 7366   1.428   3.048   1.077 -0.1805  1.5030  2.5995
 1897SOL     OW 7367   2.916   7.612   2.581  0.5784 -0.1743  0.2280
 1897SOL    HW1 7368   2.936   7.705   2.565 -0.5695  0.4868  2.5635
 1897SOL    HW2 7369   2.962   7.591   2.662  1.1614 -1.7858 -0.4968
 1898SOL     OW 7370   7.194   5.522   8.894  0.1523  1.0329  0.0800
 1898SOL    HW1 7371   7.177   5.495   8.804 -2.2878  1.1079  0.4799
 1898SOL    HW2 7372   7.191   5.441   8.945  1.0932  1.0398  0.1395
 1899SOL     OW 7373   8.455   4.423   2.079 -0.3927  0.0091 -0.1307
 1899SOL    HW1 7374   8.387   4.406   2.014 -0.2208 -0.2357 -0.2493
 1899SOL    HW2 7375   8.413   4.476   2.146 -0.6834 -0.0997 -0.2294
 1900SOL     OW 7376   5.172   5.448   5.657 -0.0763  0.0273 -0.5845
 1900SOL    HW1 7377   5.096   5.468   5.712  2.1149 -1.6837  3.2946
 1900SOL    HW2 7378   5.146   5.370   5.608 -1.0194 -0.2428  0.3299
 1901SOL     OW 7379   6.194   5.392   6.739 -0.5622  0.4655  0.0293
 1901SOL    HW1 7380   6.273   5.443   6.721  0.3247 -0.7534  0.3942
 1901SOL    HW2 7381   6.225   5.314   6.785 -1.5140 -1.8446 -3.0372
 1902SOL     OW 7382   3.603   7.054   3.579  0.4230 -0.0211  0.7903
 1902SOL    HW1 7383   3.609   7.117   3.652  0.9761 -1.4922  2.0494
 1902SOL    HW2 7384   3.509   7.048   3.561  0.3940  1.5002  0.3464
 1903SOL     OW 7385   1.537   0.923   0.042 -0.0293 -0.4690  1.1387
 1903SOL    HW1 7386   1.573   0.927   0.130 -0.1966  1.3080  1.1516
 1903SOL    HW2 7387   1.611   0.900  -0.014  0.5591  0.5330  1.4885
 1904SOL     OW 7388   5.478   3.338   1.596 -0.0975 -0.3053  0.4203
 1904SOL    HW1 7389   5.478   3.404   1.526 -2.1162  0.3599  0.9967
 1904SOL    HW2 7390   5.525   3.380   1.668  2.1029 -1.0435 -0.5754
 1905SOL     OW 7391   8.260   1.151   7.744  0.1772  0.4245  0.6816
 1905SOL    HW1 7392   8.290   1.078   7.690  0.9554 -0.2230  1.9871
 1905SOL    HW2 7393   8.278   1.228   7.690  2.3000 -0.1047  0.5703
 1906SOL     OW 7394   1.849   5.452   4.701 -0.4912 -0.1036 -0.1645
 1906SOL    HW1 7395   1.788   5.382   4.678 -1.3853  0.7695 -0.4565
 1906SOL    HW2 7396   1.876   5.432   4.791 -2.2913  0.2723  0.4750
 1907SOL     OW 7397   5.122   8.755   7.189  0.3122 -0.4605  0.0268
 1907SOL    HW1 7398   5.214   8.735   7.173  0.3605 -1.1475  1.0745
 1907SOL    HW2 7399   5.092   8.684   7.245 -0.5426  0.3877  0.6611
 1908SOL     OW 7400   8.266   7.458   2.363 -0.4116  0.3697 -0.3358
 1908SOL    HW1 7401   8.327   7.531   2.350  0.0907  0.5917  2.8938
 1908SOL    HW2 7402   8.321   7.385   2.392 -1.5143  0.2753  1.6246
 1909SOL     OW 7403   7.133   3.204   3.618  0.0159  0.1138 -0.4909
 1909SOL    HW1 7404   7.167   3.215   3.529  0.4678 -0.0496 -0.3387
 1909SOL    HW2 7405   7.203   3.237   3.675 -0.6740  1.1399 -0.2304
 1910SOL     OW 7406   1.842   7.107   4.028 -0.0133  0.0445  0.1970
 1910SOL    HW1 7407   1.932   7.074   4.037 -0.2055 -0.6182 -0.2623
 1910SOL    HW2 7408   1.790   7.048   4.082 -0.5781 -1.3684 -1.8401
 1911SOL     OW 7409   5.363   0.836   1.938 -0.2775 -0.2069 -0.4449
 1911SOL    HW1 7410   5.385   0.743   1.925 -0.8748 -0.3495 -0.4731
 1911SOL    HW2 7411   5.293   0.852   1.874 -1.9014 -0.3974  1.2550
 1912SOL     OW 7412   0.447   5.898   2.895 -0.0112  0.3232  0.2952
 1912SOL    HW1 7413   0.421   5.955   2.967  0.5635 -1.2945  1.8041
 1912SOL    HW2 7414   0.520   5.847   2.929  1.1633  0.4813 -1.8899
 1913SOL     OW 7415   2.363   8.859   1.617 -0.4766 -0.5192 -0.5299
 1913SOL    HW1 7416   2.278   8.816   1.613 -0.0910 -1.4969  1.3331
 1913SOL    HW2 7417   2.351   8.932   1.677 -0.4891  0.5343 -1.7886
 1914SOL     OW 7418   2.430   2.885   5.082 -0.5107 -0.1881 -0.5298
 1914SOL    HW1 7419   2.342   2.921   5.093 -1.1081 -1.3643 -1.3324
 1914SOL    HW2 7420   2.432   2.810   5.142  0.1787  0.2383 -0.0161
 1915SOL     OW 7421   4.992   2.745   5.271 -0.0124 -0.2704  0.0784
 1915SOL    HW1 7422   4.922   2.790   5.319 -0.4542 -1.5736  0.6655
 1915SOL    HW2 7423   5.015   2.671   5.326  0.2238 -1.1803 -1.2257
 1916SOL     OW 7424   7.481   0.572   1.150 -0.3516  0.0232 -0.0097
 1916SOL    HW1 7425   7.506   0.483   1.173  2.6075  1.2917  2.0760
 1916SOL    HW2 7426   7.565   0.618   1.137 -1.7499  2.8210  0.3688
 1917SOL     OW 7427   2.864   2.982   4.212  0.0144  0.3850 -0.1231
 1917SOL    HW1 7428   2.927   2.989   4.283 -0.5906  0.2901  0.4264
 1917SOL    HW2 7429   2.817   3.066   4.214  0.1395  0.4682 -0.5495
 1918SOL     OW 7430   3.478   2.350   6.946 -0.1819 -0.5701 -0.4176
 1918SOL    HW1 7431   3.450   2.335   7.036  0.8030  0.5322  0.0860
 1918SOL    HW2 7432   3.415   2.301   6.893 -1.1829 -0.6742  0.8318
 1919SOL     OW 7433   2.318   0.810   5.344 -0.3052  0.2836  0.0550
 1919SOL    HW1 7434   2.250   0.744   5.354 -0.7525  0.6900 -0.2933
 1919SOL    HW2 7435   2.380   0.771   5.282  0.1055 -0.3429  0.8535
 1920SOL     OW 7436   2.970   8.992   7.713 -0.1141 -0.2093 -0.0837
 1920SOL    HW1 7437   2.894   8.990   7.655 -0.1323  0.7224 -0.0938
 1920SOL    HW2 7438   2.935   9.020   7.798  0.4766  1.8789 -0.5037
 1921SOL     OW 7439   8.193   3.750   3.357 -0.0598 -0.0525 -0.5618
 1921SOL    HW1 7440   8.239   3.709   3.283  1.5637  0.2398  0.2634
 1921SOL    HW2 7441   8.255   3.814   3.391 -0.9116  0.0283  0.8853
 1922SOL     OW 7442   6.924   0.187   5.244  0.3902 -0.2432  0.3557
 1922SOL    HW1 7443   6.963   0.274   5.247  1.1611 -0.5900  0.4404
 1922SOL    HW2 7444   6.887   0.174   5.331 -0.8615  0.5085 -0.0432
 1923SOL     OW 7445   2.610   5.894   2.262  0.2347 -0.0335  0.3778
 1923SOL    HW1 7446   2.704   5.878   2.248  1.0084  1.5156  3.3020
 1923SOL    HW2 7447   2.570   5.807   2.263  1.8642 -0.7973  0.3825
 1924SOL     OW 7448   3.813   1.699   5.196  0.5556  0.0557  0.1225
 1924SOL    HW1 7449   3.822   1.604   5.188  0.8732  0.1630 -0.8333
 1924SOL    HW2 7450   3.787   1.729   5.108 -1.1909  0.6700  0.8242
 1925SOL     OW 7451   4.047   2.736   3.002 -0.2593 -0.0415  0.5517
 1925SOL    HW1 7452   4.128   2.746   3.053 -0.2319 -0.8820  0.6709
 1925SOL    HW2 7453   4.029   2.825   2.970 -0.0311  0.4082  1.6424
 1926SOL     OW 7454   4.258   8.036   0.288  0.1616  0.0306  0.0011
 1926SOL    HW1 7455   4.186   8.010   0.345 -0.0604  0.1095 -0.2446
 1926SOL    HW2 7456   4.281   8.124   0.317 -0.1361  0.1789 -0.2173
 1927SOL     OW 7457   7.341   5.593   5.786 -0.0785  0.3164 -0.3661
 1927SOL    HW1 7458   7.367   5.572   5.876 -1.4649 -0.1616 -0.0650
 1927SOL    HW2 7459   7.334   5.688   5.784  1.1132  0.4097 -0.2986
 1928SOL     OW 7460   0.333   7.024   8.372 -0.3105  0.3769 -0.1190
 1928SOL    HW1 7461   0.387   6.975   8.434 -1.3162 -0.6555 -0.0435
 1928SOL    HW2 7462   0.353   6.984   8.287 -1.4345 -0.4336 -0.0012
 1929SOL     OW 7463   8.236   3.819   5.404 -0.0538  0.4828  0.5456
 1929SOL    HW1 7464   8.274   3.823   5.316 -0.1617 -0.0967  0.4681
 1929SOL    HW2 7465   8.236   3.725   5.426  0.0424  0.6309  1.1931
 1930SOL     OW 7466   0.616   7.838   1.381 -0.1612  0.2003 -0.1175
 1930SOL    HW1 7467   0.690   7.843   1.442 -0.3994  0.3582  0.1633
 1930SOL    HW2 7468   0.641   7.893   1.307 -0.1201  0.4901  0.1092
 1931SOL     OW 7469   3.558   6.004   1.848  0.1365 -0.2609  0.0182
 1931SOL    HW1 7470   3.485   6.015   1.787 -0.0252  0.3002  0.3063
 1931SOL    HW2 7471   3.618   5.945   1.803 -1.2596 -2.0786  0.4799
 1932SOL     OW 7472   0.762   3.304   1.936 -0.9285 -0.2512 -0.0068
 1932SOL    HW1 7473   0.780   3.326   1.845 -0.8442 -2.8589 -0.6714
 1932SOL    HW2 7474   0.837   3.339   1.985 -0.0560 -0.4591 -1.1827
 1933SOL     OW 7475   1.994   7.074   0.432 -0.2091 -0.0127 -0.1606
 1933SOL    HW1 7476   2.081   7.038   0.450  0.6118  1.2308 -1.4354
 1933SOL    HW2 7477   1.976   7.050   0.341  0.4404  2.8282 -1.1083
 1934SOL     OW 7478   7.314   6.117   7.963 -0.5037  0.1105 -0.6158
 1934SOL    HW1 7479   7.384   6.169   7.924  0.6141 -1.2007 -0.3714
 1934SOL    HW2 7480   7.280   6.063   7.891 -0.4465 -0.1387 -0.4565
 1935SOL     OW 7481   4.123   8.728   2.253 -0.5292  0.0109 -0.1548
 1935SOL    HW1 7482   4.046   8.771   2.216 -0.0292  1.6221  0.6397
 1935SOL    HW2 7483   4.121   8.752   2.346  0.7739 -0.1735 -0.0807
 1936SOL     OW 7484   0.156   6.725   1.367 -0.1742 -0.3208  0.4380
 1936SOL    HW1 7485   0.228   6.750   1.424 -0.3528  1.3582 -0.0249
 1936SOL    HW2 7486   0.178   6.637   1.336  1.8502  0.3190  0.0257
 1937SOL     OW 7487   1.294   4.734   3.917 -0.3331  0.2759 -0.1103
 1937SOL    HW1 7488   1.225   4.685   3.873  0.2343 -1.3112  0.7501
 1937SOL    HW2 7489   1.248   4.808   3.958 -1.4198 -0.3842 -0.1140
 1938SOL     OW 7490   8.059   1.968   1.979 -0.1616  0.0787 -0.2602
 1938SOL    HW1 7491   8.097   1.898   1.926 -0.8078 -0.3320 -0.1871
 1938SOL    HW2 7492   8.010   2.021   1.916 -0.0250  0.2232 -0.2459
 1939SOL     OW 7493   7.851   0.502   7.035  0.2663  0.1038 -0.0710
 1939SOL    HW1 7494   7.935   0.500   7.080  0.7450 -0.3503 -0.9805
 1939SOL    HW2 7495   7.804   0.575   7.076  1.3394  0.7640  0.0042
 1940SOL     OW 7496   5.696   4.987   2.366 -0.2760 -0.6728  1.4000
 1940SOL    HW1 7497   5.626   5.051   2.380 -0.4489 -0.3564 -0.7323
 1940SOL    HW2 7498   5.751   5.026   2.298  0.1035 -2.4218  0.6769
 1941SOL     OW 7499   1.978   0.621   5.764 -0.1953  0.2632 -0.1893
 1941SOL    HW1 7500   1.935   0.673   5.831 -1.0981 -0.4072 -0.2306
 1941SOL    HW2 7501   1.953   0.531   5.784  2.4769 -0.3255  0.7287
 1942SOL     OW 7502   2.721   5.139   1.437  0.6931 -0.5704 -0.1267
 1942SOL    HW1 7503   2.731   5.077   1.365 -0.7275 -0.1371 -0.7047
 1942SOL    HW2 7504   2.757   5.093   1.513  1.4812 -1.3257 -0.9514
 1943SOL     OW 7505   4.573   7.466   0.784 -0.0537  0.5225  0.3756
 1943SOL    HW1 7506   4.653   7.419   0.759  0.0084  0.7308  0.1753
 1943SOL    HW2 7507   4.502   7.406   0.761 -0.0276  0.9738 -0.9427
 1944SOL     OW 7508   5.003   3.962   0.534  0.2661 -0.2362  0.3524
 1944SOL    HW1 7509   5.033   4.038   0.583 -1.1136  0.4219  0.1879
 1944SOL    HW2 7510   5.034   3.978   0.445 -1.0468  0.7224  0.0573
 1945SOL     OW 7511   7.691   0.836   1.393 -0.3038  0.1020  0.0199
 1945SOL    HW1 7512   7.753   0.907   1.384 -0.0135  0.0683  1.5950
 1945SOL    HW2 7513   7.607   0.873   1.365 -0.3675  1.4008  1.8470
 1946SOL     OW 7514   7.005   0.404   3.017  0.3222 -0.0006  0.1421
 1946SOL    HW1 7515   7.060   0.447   2.951  1.2245 -0.0724  0.8313
 1946SOL    HW2 7516   7.054   0.325   3.041 -0.4378 -0.4499  0.2403
 1947SOL     OW 7517   0.853   4.811   1.823 -0.4746  0.3437  0.1810
 1947SOL    HW1 7518   0.909   4.827   1.899  1.4269 -0.9477 -0.8792
 1947SOL    HW2 7519   0.812   4.727   1.840  0.7267 -0.4206 -0.6437
 1948SOL     OW 7520   0.747   5.557   0.358 -0.3189 -0.0678  0.0350
 1948SOL    HW1 7521   0.751   5.463   0.379 -0.6343 -0.6718 -2.5060
 1948SOL    HW2 7522   0.831   5.576   0.318 -0.9803  0.2821 -1.2048
 1949SOL     OW 7523   3.101   8.275   2.606 -0.3460 -0.1975 -0.0866
 1949SOL    HW1 7524   3.129   8.198   2.557 -0.6376  0.1244 -0.7617
 1949SOL    HW2 7525   3.016   8.251   2.642 -0.6204 -0.0523 -0.6306
 1950SOL     OW 7526   2.766   6.036   6.908 -0.5947  0.2516  0.3662
 1950SOL    HW1 7527   2.692   5.975   6.903 -1.8281  1.7936 -0.9273
 1950SOL    HW2 7528   2.835   5.987   6.951 -1.3333 -2.2816 -1.2327
 1951SOL     OW 7529   2.046   7.788   5.040 -0.7238 -0.2013  0.5016
 1951SOL    HW1 7530   2.004   7.735   4.972  0.3452 -0.9275  0.3918
 1951SOL    HW2 7531   2.062   7.726   5.111  0.8070 -0.1052  0.2578
 1952SOL     OW 7532   6.203   3.122   1.016 -0.8210  0.0439 -0.0421
 1952SOL    HW1 7533   6.252   3.202   1.000 -0.7551  0.3505  1.5337
 1952SOL    HW2 7534   6.124   3.151   1.062 -1.0078 -0.7406  0.1464
 1953SOL     OW 7535   1.927   0.721   6.020  0.7511  0.5934  0.4179
 1953SOL    HW1 7536   1.975   0.804   6.027  0.8039  0.5606  0.4424
 1953SOL    HW2 7537   1.983   0.657   6.064  2.0539 -0.0239 -2.0333
 1954SOL     OW 7538   5.912   3.966   5.092 -0.0924 -0.2669 -0.0947
 1954SOL    HW1 7539   5.925   3.955   5.187 -2.2955  0.5252  0.3280
 1954SOL    HW2 7540   5.818   3.959   5.080  0.2233 -1.0608 -2.3544
 1955SOL     OW 7541   2.519   6.247   8.052 -0.6549 -0.0481 -0.2520
 1955SOL    HW1 7542   2.555   6.213   7.971 -0.2807 -0.9607  0.2863
 1955SOL    HW2 7543   2.424   6.242   8.041 -0.6576  2.0381 -1.5414
 1956SOL     OW 7544   4.513   6.968   5.120  0.5753 -0.4641 -0.4343
 1956SOL    HW1 7545   4.571   7.017   5.062  1.2808 -1.1784 -0.3313
 1956SOL    HW2 7546   4.445   6.933   5.062 -1.1035  2.2795 -0.2602
 1957SOL     OW 7547   3.003   2.128   4.944 -0.5495 -0.5540  0.6769
 1957SOL    HW1 7548   3.086   2.098   4.981 -1.3849 -1.8087  1.5255
 1957SOL    HW2 7549   3.028   2.164   4.858  1.0865  0.4980  1.5543
 1958SOL     OW 7550   3.385   6.292   7.273 -0.2688  0.1960  0.3218
 1958SOL    HW1 7551   3.457   6.342   7.233 -0.8004  1.6404  1.1535
 1958SOL    HW2 7552   3.355   6.234   7.202  0.7340  0.6245 -0.4794
 1959SOL     OW 7553   1.051   7.316   7.845  0.6400  0.5010 -0.3404
 1959SOL    HW1 7554   1.137   7.346   7.875  1.1982 -1.2936 -0.0684
 1959SOL    HW2 7555   1.033   7.239   7.899 -1.8191  1.7057  0.6115
 1960SOL     OW 7556   1.269   3.517   1.055  0.1717  0.2523 -0.1673
 1960SOL    HW1 7557   1.234   3.444   1.106  1.3434 -0.0605  0.2080
 1960SOL    HW2 7558   1.207   3.588   1.070 -0.9427 -0.6359 -0.4749
 1961SOL     OW 7559   2.565   3.642   7.297  0.7436 -0.0224 -0.3167
 1961SOL    HW1 7560   2.648   3.616   7.257  0.4409 -0.5951 -0.5872
 1961SOL    HW2 7561   2.555   3.583   7.371  1.2029  0.9059  0.4877
 1962SOL     OW 7562   2.207   3.496   2.443  0.2537 -0.3787  0.5814
 1962SOL    HW1 7563   2.303   3.495   2.440  0.2074 -1.2840 -1.1955
 1962SOL    HW2 7564   2.182   3.557   2.373 -0.4610 -0.2050  0.9906
 1963SOL     OW 7565   8.162   8.811   2.361 -0.1859  0.0792 -0.4297
 1963SOL    HW1 7566   8.128   8.899   2.377 -0.4930  0.1983 -1.7157
 1963SOL    HW2 7567   8.220   8.793   2.436 -1.0590  0.8925  0.4420
 1964SOL     OW 7568   8.828   6.831   3.725  0.0405  0.2052  0.0363
 1964SOL    HW1 7569   8.843   6.836   3.630  0.0214 -1.5629 -0.0750
 1964SOL    HW2 7570   8.733   6.827   3.734  0.1307 -2.7495 -0.0606
 1965SOL     OW 7571   5.186   0.432   7.343 -0.2125 -0.1363  0.0792
 1965SOL    HW1 7572   5.254   0.477   7.294 -0.8671  2.1736  1.2187
 1965SOL    HW2 7573   5.105   0.475   7.318 -0.7835 -0.2141  1.6993
 1966SOL     OW 7574   0.629   2.705   3.657 -0.2352  0.1614  0.3898
 1966SOL    HW1 7575   0.544   2.719   3.698  0.6517  1.6062  1.8239
 1966SOL    HW2 7576   0.629   2.613   3.633 -3.4113  0.8377 -2.5374
 1967SOL     OW 7577   0.953   0.004   3.198 -0.4164  0.3193 -0.1036
 1967SOL    HW1 7578   0.857  -0.004   3.199 -0.4201 -0.1649 -2.2658
 1967SOL    HW2 7579   0.984  -0.086   3.185  0.2927  0.5813 -0.2136
 1968SOL     OW 7580   1.890   3.456   7.866  0.2661  0.1123 -0.4559
 1968SOL    HW1 7581   1.948   3.490   7.934 -0.6461  1.3784 -0.2880
 1968SOL    HW2 7582   1.894   3.521   7.797 -0.7851  0.1009 -0.5340
 1969SOL     OW 7583   4.924   7.864   2.916  0.0682  0.3676 -0.3134
 1969SOL    HW1 7584   4.834   7.852   2.886 -0.5918  1.1552  1.2916
 1969SOL    HW2 7585   4.916   7.923   2.991  1.7682 -0.7621  0.7695
 1970SOL     OW 7586   3.412   5.153   4.188 -0.1592  0.1574  0.4574
 1970SOL    HW1 7587   3.448   5.140   4.100 -1.7034  0.2686 -0.2076
 1970SOL    HW2 7588   3.477   5.208   4.232  0.8980 -0.3479 -0.4178
 1971SOL     OW 7589   8.376   3.693   1.887 -0.2234  0.0675  0.3390
 1971SOL    HW1 7590   8.373   3.768   1.827 -0.0483 -0.8738 -0.8674
 1971SOL    HW2 7591   8.396   3.619   1.831  1.2296 -0.6465  1.7583
 1972SOL     OW 7592   5.332   7.490   5.789  0.1914 -0.7551  0.3895
 1972SOL    HW1 7593   5.307   7.424   5.724 -1.5428 -0.2093  0.4745
 1972SOL    HW2 7594   5.267   7.560   5.778  1.3497  0.4308  1.0580
 1973SOL     OW 7595   1.563   3.710   2.579  0.3856  0.1471 -0.5624
 1973SOL    HW1 7596   1.589   3.796   2.612 -0.0204 -0.0019  0.1520
 1973SOL    HW2 7597   1.633   3.651   2.608  0.4453  0.1625 -0.6759
 1974SOL     OW 7598   1.855   3.749   3.842  0.7469 -0.3092 -0.3395
 1974SOL    HW1 7599   1.837   3.695   3.766 -0.7819 -0.2997 -0.0109
 1974SOL    HW2 7600   1.936   3.714   3.878  0.6288 -1.3456 -1.0522
 1975SOL     OW 7601   4.357   1.289   7.371  0.2685 -0.7804  0.1081
 1975SOL    HW1 7602   4.354   1.347   7.447  0.4721  1.4768 -1.5788
 1975SOL    HW2 7603   4.267   1.286   7.340  0.6086  0.2092 -0.9789
 1976SOL     OW 7604   4.840   6.202   9.239 -0.1346 -0.1979 -0.0313
 1976SOL    HW1 7605   4.837   6.234   9.148 -1.5073  0.5784  0.2643
 1976SOL    HW2 7606   4.752   6.168   9.255 -0.4231  1.2155  1.5488
 1977SOL     OW 7607   8.417   9.085   4.815 -0.4751  0.8741  0.1215
 1977SOL    HW1 7608   8.401   8.995   4.786  0.1897  0.0029  2.3631
 1977SOL    HW2 7609   8.380   9.089   4.903  2.1099  1.9209  1.2054
 1978SOL     OW 7610   3.414   5.295   7.942  0.4372 -0.4537 -0.2580
 1978SOL    HW1 7611   3.480   5.266   8.005  1.0820 -0.2026 -0.8130
 1978SOL    HW2 7612   3.447   5.378   7.909  1.8358 -2.1797 -3.4306
 1979SOL     OW 7613   7.071   0.229   8.076  0.2433 -0.4566  0.0885
 1979SOL    HW1 7614   7.076   0.181   7.993 -0.2912 -0.5053  0.0811
 1979SOL    HW2 7615   6.996   0.287   8.065 -0.2078 -0.9085  0.7652
 1980SOL     OW 7616   7.712   3.697   2.492  0.1328 -0.3203  0.1458
 1980SOL    HW1 7617   7.752   3.643   2.559  1.6343  1.1228  0.4374
 1980SOL    HW2 7618   7.638   3.645   2.460 -0.2022 -1.3127  2.4260
 1981SOL     OW 7619   5.648   1.255   7.721  1.0779 -0.0436  0.1142
 1981SOL    HW1 7620   5.610   1.290   7.801  0.0323 -1.2315  0.1483
 1981SOL    HW2 7621   5.637   1.160   7.728 -0.1163 -0.0870 -1.9811
 1982SOL     OW 7622   9.147   0.222   5.693  0.3010  0.5190 -0.3082
 1982SOL    HW1 7623   9.232   0.254   5.722  0.9276 -1.6681  0.3138
 1982SOL    HW2 7624   9.168   0.153   5.629 -0.9973  0.1448 -0.3429
 1983SOL     OW 7625   6.707   5.886   5.010  0.5998  0.1872 -0.0276
 1983SOL    HW1 7626   6.769   5.845   5.070 -1.1072 -0.3979  1.3599
 1983SOL    HW2 7627   6.748   5.970   4.989  1.2626  0.3871  1.9236
 1984SOL     OW 7628   2.920   5.024   2.986  0.2198  0.0572 -0.9685
 1984SOL    HW1 7629   2.934   4.954   3.049  0.2905 -0.0477 -1.1001
 1984SOL    HW2 7630   2.906   4.979   2.902 -1.9154  0.1047 -0.6709
 1985SOL     OW 7631   0.030   1.106   4.452  0.3592 -0.0862  0.0232
 1985SOL    HW1 7632  -0.015   1.188   4.432  1.1973  0.4897  0.4738
 1985SOL    HW2 7633  -0.039   1.040   4.453 -0.9252  1.2055  3.4192
 1986SOL     OW 7634   5.422   2.390   2.905 -0.3786 -0.6927  0.2564
 1986SOL    HW1 7635   5.430   2.480   2.936 -1.2668 -0.3624 -0.4360
 1986SOL    HW2 7636   5.334   2.385   2.869 -0.7154 -2.1583  1.2628
 1987SOL     OW 7637   2.500   3.994   2.010  0.3784 -0.2129  0.1042
 1987SOL    HW1 7638   2.556   3.937   2.063 -0.4545 -0.8348  0.3382
 1987SOL    HW2 7639   2.428   4.018   2.068  0.4966  0.7459 -0.1277
 1988SOL     OW 7640   2.207   8.825   6.802  0.2653  0.4641  0.2008
 1988SOL    HW1 7641   2.226   8.867   6.885  1.0633  0.6484 -0.0659
 1988SOL    HW2 7642   2.287   8.837   6.750 -0.6206  1.3256 -0.9946
 1989SOL     OW 7643   4.516   6.452   3.704  0.1043 -0.5973 -0.6840
 1989SOL    HW1 7644   4.523   6.357   3.693  1.1485 -0.5285 -0.6463
 1989SOL    HW2 7645   4.429   6.473   3.671  1.2182 -1.0931 -4.1669
 1990SOL     OW 7646   2.935   6.870   2.841  0.7012  0.7127  0.5897
 1990SOL    HW1 7647   2.981   6.786   2.849  0.1706  0.4255  0.6534
 1990SOL    HW2 7648   3.004   6.934   2.828  1.0982  0.2291  0.3027
 1991SOL     OW 7649   7.618   5.893   3.766 -0.2608 -0.3066  0.1730
 1991SOL    HW1 7650   7.599   5.961   3.831  1.1150  0.7251 -0.4801
 1991SOL    HW2 7651   7.571   5.920   3.688 -1.2980 -1.1531  0.4835
 1992SOL     OW 7652   2.119   2.029   7.459 -0.2063 -0.3870 -0.3559
 1992SOL    HW1 7653   2.036   2.076   7.447  0.5608  1.2304  0.4705
 1992SOL    HW2 7654   2.176   2.063   7.389 -0.0712 -1.0922 -0.5908
 1993SOL     OW 7655   7.150   6.774   7.746  0.2452  0.2490 -0.9085
 1993SOL    HW1 7656   7.155   6.779   7.841  0.5235  1.5787 -0.9867
 1993SOL    HW2 7657   7.227   6.724   7.720  0.3352  0.1520 -0.4634
 1994SOL     OW 7658   7.338   3.002   0.717 -0.2328  0.0193 -0.0170
 1994SOL    HW1 7659   7.379   3.041   0.639  1.9169  1.3033  1.6980
 1994SOL    HW2 7660   7.380   2.917   0.726  0.5235  0.4466  0.5207
 1995SOL     OW 7661   8.547   5.633   3.987 -0.0148 -0.1526 -0.3631
 1995SOL    HW1 7662   8.478   5.641   4.053  0.5423  0.0542  0.1978
 1995SOL    HW2 7663   8.503   5.593   3.911 -0.7425 -0.0405 -0.0055
 1996SOL     OW 7664   3.237   3.628   5.228 -0.5102 -0.6857  0.2752
 1996SOL    HW1 7665   3.222   3.616   5.135  0.5586  2.0837 -0.2876
 1996SOL    HW2 7666   3.306   3.565   5.250  0.8669  0.2433 -1.3144
 1997SOL     OW 7667   9.052   2.432   0.173  0.8954  0.6667 -0.0857
 1997SOL    HW1 7668   9.146   2.438   0.159  0.9202  2.7666  0.8145
 1997SOL    HW2 7669   9.018   2.399   0.090  2.4417 -0.4163 -0.3086
 1998SOL     OW 7670   5.182   0.114   4.163  0.2653  0.2902  0.4428
 1998SOL    HW1 7671   5.276   0.130   4.177  0.6100  0.2331 -1.7364
 1998SOL    HW2 7672   5.142   0.200   4.166  0.4702  0.3806  0.6657
 1999SOL     OW 7673   5.471   8.027   3.972 -0.0921 -0.1171 -0.0835
 1999SOL    HW1 7674   5.472   8.022   3.876 -0.4595  0.8199 -0.1361
 1999SOL    HW2 7675   5.432   7.944   3.999  0.1687 -0.4612 -0.7345
 2000SOL     OW 7676   4.962   8.459   7.942  0.0411 -0.3740  0.2119
 2000SOL    HW1 7677   4.952   8.448   7.847  0.9065  0.0415  0.0626
 2000SOL    HW2 7678   5.000   8.376   7.972  2.0008  0.3445 -0.1782
 2001SOL     OW 7679   3.273   9.208   8.340  0.2270  0.0565  0.2876
 2001SOL    HW1 7680   3.321   9.284   8.306 -0.4009  0.4669  0.3279
 2001SOL    HW2 7681   3.227   9.241   8.417  1.9304 -0.9496  1.7862
 2002SOL     OW 7682   1.365   8.765   8.355  0.0872  0.9007  0.1813
 2002SOL    HW1 7683   1.271   8.754   8.365  0.4753 -1.9867  1.2491
 2002SOL    HW2 7684   1.387   8.717   8.275  0.9150 -0.3755  1.1373
 2003SOL     OW 7685   8.831   7.253   6.498  0.6244 -0.3184 -0.0531
 2003SOL    HW1 7686   8.906   7.292   6.452 -0.5726  0.0510 -1.7216
 2003SOL    HW2 7687   8.761   7.253   6.434 -1.2316  0.5707  1.9259
 2004SOL     OW 7688   0.680   2.644   1.314 -0.3205  1.1440 -0.2683
 2004SOL    HW1 7689   0.770   2.615   1.297 -0.5644  0.0169  0.3038
 2004SOL    HW2 7690   0.658   2.700   1.239  0.9220  1.5875 -0.3167
 2005SOL     OW 7691   3.288   4.743   0.700 -0.4545 -0.7175  0.0833
 2005SOL    HW1 7692   3.294   4.828   0.744  0.4258  0.6752 -2.6065
 2005SOL    HW2 7693   3.222   4.756   0.632 -0.6595 -2.3631 -0.0468
 2006SOL     OW 7694   5.096   3.166   5.184 -0.0739  0.9399  0.3155
 2006SOL    HW1 7695   5.166   3.171   5.118 -1.2163 -0.3910 -1.0468
 2006SOL    HW2 7696   5.116   3.087   5.234 -0.9725  0.1502 -0.5462
 2007SOL     OW 7697   6.455   2.890   5.760  0.2448  0.3518 -0.5872
 2007SOL    HW1 7698   6.399   2.857   5.830  1.3012 -0.8242 -0.2782
 2007SOL    HW2 7699   6.480   2.812   5.710  0.7151  0.9952 -1.3722
 2008SOL     OW 7700   3.407   9.134   6.811 -0.1480  0.3725  0.4701
 2008SOL    HW1 7701   3.372   9.203   6.868 -0.4970  1.0779 -0.5891
 2008SOL    HW2 7702   3.340   9.122   6.744  1.7894  2.0773 -1.8679
 2009SOL     OW 7703   0.992   0.701   4.089 -0.8060  0.4118 -0.3964
 2009SOL    HW1 7704   0.951   0.625   4.047  0.1150  0.5771 -1.6381
 2009SOL    HW2 7705   0.924   0.769   4.085 -1.2162  0.0111 -0.3463
 2010SOL     OW 7706   6.829   4.756   2.296 -0.0570 -0.0791 -0.2727
 2010SOL    HW1 7707   6.820   4.724   2.206 -0.7786 -0.3346 -0.1145
 2010SOL    HW2 7708   6.747   4.803   2.313  0.4368  0.7205 -0.0447
 2011SOL     OW 7709   3.557   0.089   0.243  0.2448  0.1357  0.4978
 2011SOL    HW1 7710   3.579   0.038   0.322 -0.4496  0.1028  0.6716
 2011SOL    HW2 7711   3.585   0.034   0.170 -2.3840 -1.4164  0.6240
 2012SOL     OW 7712   1.551   5.938   9.261 -0.7705  0.3532  0.0390
 2012SOL    HW1 7713   1.532   5.855   9.306 -1.0611  0.0455 -0.6396
 2012SOL    HW2 7714   1.571   5.999   9.331 -2.4833  0.2035  0.6819
 2013SOL     OW 7715   4.467   7.668   2.981 -0.4029 -0.1867 -0.0298
 2013SOL    HW1 7716   4.513   7.585   2.991 -0.6671 -0.3369 -0.0459
 2013SOL    HW2 7717   4.382   7.653   3.021  0.2078  0.6606  1.6214
 2014SOL     OW 7718   1.250   4.528   3.464 -0.8121 -0.2140  0.0493
 2014SOL    HW1 7719   1.323   4.489   3.416 -2.7892 -1.9623 -1.6822
 2014SOL    HW2 7720   1.288   4.600   3.513  2.4449 -2.4106  0.8760
 2015SOL     OW 7721   3.525   3.700   4.188  0.3008 -0.4607  0.1821
 2015SOL    HW1 7722   3.521   3.786   4.147 -1.9961 -0.9318 -0.6310
 2015SOL    HW2 7723   3.543   3.718   4.280  3.7706  0.6812 -0.6235
 2016SOL     OW 7724   3.286   8.684   4.568  0.2381 -0.3731 -0.2220
 2016SOL    HW1 7725   3.264   8.702   4.660 -0.4785 -1.6675 -0.1301
 2016SOL    HW2 7726   3.324   8.766   4.536  0.7101  0.0159  1.2932
 2017SOL     OW 7727   3.936   1.024   0.416 -0.3482 -0.6826 -0.3341
 2017SOL    HW1 7728   3.978   0.966   0.352 -1.0134 -1.9480  0.3737
 2017SOL    HW2 7729   3.930   1.109   0.371 -1.1860 -1.6590 -2.1045
 2018SOL     OW 7730   2.541   1.584   0.900  0.2526  1.1038 -0.4409
 2018SOL    HW1 7731   2.596   1.531   0.841 -1.5384 -0.5375 -0.6647
 2018SOL    HW2 7732   2.509   1.655   0.844  1.2094  1.4242 -0.5988
 2019SOL     OW 7733   5.850   3.428   4.646  0.4966 -0.5037  0.2827
 2019SOL    HW1 7734   5.915   3.447   4.713  1.1817 -2.2468  0.1378
 2019SOL    HW2 7735   5.781   3.380   4.692  0.2172 -0.3185  0.0601
 2020SOL     OW 7736   2.735   3.981   3.332 -0.5986  0.5973  0.9207
 2020SOL    HW1 7737   2.671   3.920   3.296  0.1072 -1.2046  2.6203
 2020SOL    HW2 7738   2.806   3.984   3.268  0.0632 -1.5897  1.5159
 2021SOL     OW 7739   2.316   3.509   3.723 -0.4197 -0.0118 -0.6883
 2021SOL    HW1 7740   2.373   3.586   3.720  0.0031 -0.2524  0.7878
 2021SOL    HW2 7741   2.373   3.435   3.705 -1.1828  0.1534 -4.0775
 2022SOL     OW 7742   3.847   6.465   8.605 -0.0919 -0.1497  0.6110
 2022SOL    HW1 7743   3.861   6.411   8.527 -1.0981 -2.9218  2.2662
 2022SOL    HW2 7744   3.752   6.473   8.611 -0.0033  0.4133  1.3038
 2023SOL     OW 7745   7.073   4.455   6.558 -0.1589 -0.7371 -0.0524
 2023SOL    HW1 7746   7.153   4.406   6.537  0.0061 -0.5884  0.2217
 2023SOL    HW2 7747   7.066   4.522   6.490  0.5034 -0.0970  0.5027
 2024SOL     OW 7748   4.379   1.262   3.907 -0.1271  0.6008  0.0065
 2024SOL    HW1 7749   4.399   1.259   3.813  2.8214  1.0688  0.5837
 2024SOL    HW2 7750   4.406   1.177   3.940 -1.2664  0.3995  0.4339
 2025SOL     OW 7751   0.206   4.666   9.172 -0.5694  0.4684  0.2377
 2025SOL    HW1 7752   0.253   4.592   9.209  1.3827  1.2680 -0.5542
 2025SOL    HW2 7753   0.132   4.627   9.125 -1.0184 -0.7787  1.9447
 2026SOL     OW 7754   3.132   0.296   1.950  0.3575 -0.2904  0.6496
 2026SOL    HW1 7755   3.087   0.243   1.883  0.3047 -0.2834  0.6796
 2026SOL    HW2 7756   3.141   0.382   1.909 -0.3811 -0.0651  0.9522
 2027SOL     OW 7757   8.274   3.489   3.191 -0.6934 -0.0676  0.5087
 2027SOL    HW1 7758   8.278   3.474   3.286 -0.5880  0.3578  0.5735
 2027SOL    HW2 7759   8.188   3.456   3.165  0.4616 -2.9987  0.2319
 2028SOL     OW 7760   5.561   5.903   2.838 -0.4184  0.9082  0.3105
 2028SOL    HW1 7761   5.548   5.998   2.848  3.1668  1.0980  4.2991
 2028SOL    HW2 7762   5.633   5.895   2.775  0.3934  0.9273  1.2251
 2029SOL     OW 7763   5.142   6.692   2.052  0.0187  0.1172 -0.0886
 2029SOL    HW1 7764   5.050   6.717   2.045 -0.0563  0.4481  1.6917
 2029SOL    HW2 7765   5.187   6.775   2.071  0.7982  0.0785 -1.6895
 2030SOL     OW 7766   1.653   5.810   6.073 -1.1695 -0.0162 -0.0504
 2030SOL    HW1 7767   1.644   5.850   5.986  1.1388 -1.8481 -1.2035
 2030SOL    HW2 7768   1.747   5.790   6.080 -1.7500 -2.2813  1.7955
 2031SOL     OW 7769   3.126   3.105   6.361 -0.7203 -0.5770 -0.2827
 2031SOL    HW1 7770   3.051   3.062   6.321 -1.1431  0.5152 -0.7020
 2031SOL    HW2 7771   3.098   3.125   6.451 -1.1777  0.3998 -0.6328
 2032SOL     OW 7772   6.009   4.007   7.847 -0.0482  0.5894  0.3714
 2032SOL    HW1 7773   6.028   3.991   7.940  1.0478  2.1399  0.4437
 2032SOL    HW2 7774   5.940   3.945   7.826 -0.6011  0.4750  2.3368
 2033SOL     OW 7775   3.138   4.652   5.843 -0.3837  0.2996 -0.3344
 2033SOL    HW1 7776   3.115   4.604   5.764 -1.9621 -0.8326  0.7788
 2033SOL    HW2 7777   3.220   4.612   5.872 -0.7334 -0.4937 -0.4277
 2034SOL     OW 7778   3.688   6.611   8.064  0.3497 -0.0985 -0.0566
 2034SOL    HW1 7779   3.646   6.529   8.037  0.1866  0.6903 -2.2911
 2034SOL    HW2 7780   3.664   6.673   7.996 -0.1820  2.0415  2.0383
 2035SOL     OW 7781   1.166   0.367   1.823  0.1371 -0.4859 -0.2185
 2035SOL    HW1 7782   1.075   0.389   1.803  0.2408 -1.5508 -1.9902
 2035SOL    HW2 7783   1.217   0.441   1.791 -0.0869  0.0019  0.5526
 2036SOL     OW 7784   0.952   4.920   7.697 -0.4169 -0.4027  0.5779
 2036SOL    HW1 7785   0.872   4.973   7.691 -1.6883 -2.5622 -2.9565
 2036SOL    HW2 7786   1.014   4.963   7.639 -0.4671 -1.1236 -0.0149
 2037SOL     OW 7787   2.179   4.140   8.177 -0.8384  0.2351 -0.4376
 2037SOL    HW1 7788   2.275   4.141   8.171 -0.8601  2.4359 -1.0688
 2037SOL    HW2 7789   2.157   4.049   8.196  1.6195  0.3698  3.6951
 2038SOL     OW 7790   1.490   7.621   5.280  0.0618 -0.4975 -0.4600
 2038SOL    HW1 7791   1.398   7.597   5.266  0.0542 -1.3778  0.9882
 2038SOL    HW2 7792   1.498   7.629   5.375  0.9751  1.6712 -0.6884
 2039SOL     OW 7793   5.372   6.972   3.564 -0.2228 -0.1675  0.3208
 2039SOL    HW1 7794   5.341   7.050   3.611  0.6103 -0.4626  1.3766
 2039SOL    HW2 7795   5.296   6.942   3.514 -0.9004  0.5967  0.8895
 2040SOL     OW 7796   6.099   0.345   3.593 -0.5139 -0.3731 -0.3311
 2040SOL    HW1 7797   6.114   0.407   3.664 -1.2994  1.7673 -1.9904
 2040SOL    HW2 7798   6.098   0.259   3.636  1.0676  0.6979  1.9318
 2041SOL     OW 7799   3.086   6.658   4.524  0.0795 -0.1278  0.4785
 2041SOL    HW1 7800   3.016   6.674   4.588 -0.0998  0.1549  0.2158
 2041SOL    HW2 7801   3.145   6.733   4.535  0.2822 -0.3074  0.6202
 2042SOL     OW 7802   0.436   6.875   0.372  0.1211  0.4835  0.0735
 2042SOL    HW1 7803   0.526   6.849   0.388 -0.6536 -2.1663  0.3972
 2042SOL    HW2 7804   0.396   6.880   0.459 -1.0433 -2.4242 -0.2065
 2043SOL     OW 7805   7.947   8.068   5.347  0.2393 -0.1158  0.1008
 2043SOL    HW1 7806   8.038   8.085   5.373  0.0141 -0.2369  0.9479
 2043SOL    HW2 7807   7.896   8.133   5.394  0.0464  1.0767 -1.6918
 2044SOL     OW 7808   2.784   9.060   0.336  0.3542 -0.2169  0.0453
 2044SOL    HW1 7809   2.730   9.020   0.405 -0.6012  1.4965  0.2980
 2044SOL    HW2 7810   2.872   9.025   0.352  0.1323  0.0958  2.0998
 2045SOL     OW 7811   1.451   4.925   8.661 -0.4021  0.2924 -0.6232
 2045SOL    HW1 7812   1.515   4.860   8.691  0.6648  1.4575 -0.2967
 2045SOL    HW2 7813   1.400   4.880   8.595 -0.2424 -1.1474  0.2049
 2046SOL     OW 7814   7.484   4.519   7.367  0.0336 -0.3535 -0.1787
 2046SOL    HW1 7815   7.483   4.605   7.324 -0.0079 -0.3728 -0.2169
 2046SOL    HW2 7816   7.393   4.504   7.393  0.2435  0.1389  0.8606
 2047SOL     OW 7817   8.887   3.804   6.453 -0.0504 -0.2050 -0.4218
 2047SOL    HW1 7818   8.910   3.796   6.360 -4.0449  0.2534 -1.5626
 2047SOL    HW2 7819   8.802   3.761   6.460 -0.5383  1.1243  2.7206
 2048SOL     OW 7820   0.817   3.580   2.091  0.3540 -0.3099 -0.5177
 2048SOL    HW1 7821   0.727   3.608   2.072 -0.1963 -2.0890 -0.6367
 2048SOL    HW2 7822   0.862   3.589   2.007 -0.0435 -0.6143 -0.7694
 2049SOL     OW 7823   6.609   7.559   4.020  0.4964 -0.6371  0.6528
 2049SOL    HW1 7824   6.614   7.580   4.113 -0.5536 -0.7572  0.7475
 2049SOL    HW2 7825   6.525   7.596   3.992 -0.0243 -2.1497  0.1602
 2050SOL     OW 7826   8.549   1.645   0.173 -0.4104 -0.3202  0.2669
 2050SOL    HW1 7827   8.473   1.671   0.226 -0.5847 -0.9350  0.3209
 2050SOL    HW2 7828   8.622   1.640   0.234 -0.6312 -1.1215  0.4742
 2051SOL     OW 7829   5.752   0.783   3.701  0.8121  0.1167 -0.3016
 2051SOL    HW1 7830   5.687   0.795   3.632 -0.3593 -0.0269  0.7731
 2051SOL    HW2 7831   5.717   0.713   3.756  1.9778 -0.1198  0.1657
 2052SOL     OW 7832   1.261   7.050   1.859 -0.4497 -0.0013  0.0544
 2052SOL    HW1 7833   1.331   7.002   1.815 -0.3552  1.5746 -1.6080
 2052SOL    HW2 7834   1.297   7.138   1.872 -1.8670  0.6497 -0.2536
 2053SOL     OW 7835   1.419   2.574   7.212  0.2185  0.1164  0.3278
 2053SOL    HW1 7836   1.370   2.495   7.188  0.3261 -0.1078  0.8453
 2053SOL    HW2 7837   1.385   2.641   7.153  0.7405 -0.5144 -0.6940
 2054SOL     OW 7838   1.933   4.284   1.711  0.1069 -0.1384  0.1677
 2054SOL    HW1 7839   1.848   4.310   1.677  0.8351  1.0157 -0.8313
 2054SOL    HW2 7840   1.917   4.203   1.758 -1.3246 -0.6181 -1.1179
 2055SOL     OW 7841   8.552   5.983   1.868  0.2444  0.1364 -0.0530
 2055SOL    HW1 7842   8.565   6.019   1.779 -1.6742 -0.2737 -0.5082
 2055SOL    HW2 7843   8.515   5.896   1.854  1.0034 -0.3967  1.1541
 2056SOL     OW 7844   1.554   6.895   6.860 -0.2885 -0.3861 -0.3867
 2056SOL    HW1 7845   1.460   6.914   6.856 -0.0606  0.4498 -2.5837
 2056SOL    HW2 7846   1.560   6.800   6.850 -0.8238 -0.2391 -2.3078
 2057SOL     OW 7847   8.591   6.194   6.473  0.1641 -0.1469  0.2767
 2057SOL    HW1 7848   8.623   6.142   6.547  2.3412  1.6309  0.6289
 2057SOL    HW2 7849   8.593   6.284   6.504  0.7365  0.5885 -1.8144
 2058SOL     OW 7850   7.299   3.257   1.620  0.4113  0.2041  0.3756
 2058SOL    HW1 7851   7.330   3.167   1.612 -1.9237 -0.4960 -1.2566
 2058SOL    HW2 7852   7.379   3.309   1.625  1.8024 -1.9280  1.3372
 2059SOL     OW 7853   6.926   9.281   7.504  0.2861  0.2246  0.8543
 2059SOL    HW1 7854   6.841   9.314   7.474  0.9582  0.4525 -0.8638
 2059SOL    HW2 7855   6.907   9.237   7.587 -1.5225  0.2095  0.4507
 2060SOL     OW 7856   0.869   0.342   1.071  0.2462 -0.4830  0.4473
 2060SOL    HW1 7857   0.786   0.379   1.101 -0.5810 -1.2797 -0.8226
 2060SOL    HW2 7858   0.910   0.308   1.151 -1.3181 -1.4150  0.8740
 2061SOL     OW 7859   8.393   2.243   3.763 -0.4103  0.0394  0.1453
 2061SOL    HW1 7860   8.417   2.151   3.757  1.0995  0.3427  1.0758
 2061SOL    HW2 7861   8.424   2.270   3.849 -0.8850  1.3945 -0.0946
 2062SOL     OW 7862   7.889   0.126   6.863  0.0785  0.5249  0.4363
 2062SOL    HW1 7863   7.834   0.194   6.824  0.0644  0.0722 -0.3428
 2062SOL    HW2 7864   7.877   0.136   6.957  0.1371  1.6512  0.3233
 2063SOL     OW 7865   4.165   7.042   8.992 -0.1094  0.4657 -0.0022
 2063SOL    HW1 7866   4.114   6.969   8.959  0.7014  0.4774 -1.3588
 2063SOL    HW2 7867   4.105   7.117   8.990 -0.6149  0.0663  0.3303
 2064SOL     OW 7868   0.326   2.687   6.954 -0.2825  0.2562  0.0027
 2064SOL    HW1 7869   0.414   2.724   6.943 -0.3689  0.3906 -0.2282
 2064SOL    HW2 7870   0.267   2.760   6.939 -0.4361  0.1571  0.1284
 2065SOL     OW 7871   4.814   2.096   8.062 -0.1449  0.2276  0.0310
 2065SOL    HW1 7872   4.730   2.069   8.100 -0.3607  1.2473  0.2952
 2065SOL    HW2 7873   4.879   2.039   8.103 -0.6441 -0.2090  0.2189
 2066SOL     OW 7874   7.378   3.142   0.093  0.9041 -0.0027 -0.0720
 2066SOL    HW1 7875   7.323   3.216   0.118 -0.0677 -1.3078  1.8784
 2066SOL    HW2 7876   7.331   3.099   0.022  0.1746 -0.2177  0.5373
 2067SOL     OW 7877   4.363   3.791   5.718  0.1614 -0.1940 -0.3555
 2067SOL    HW1 7878   4.297   3.750   5.775  0.7460  0.6286  0.9466
 2067SOL    HW2 7879   4.394   3.866   5.768  1.7796 -0.3215 -1.1362
 2068SOL     OW 7880   2.245   4.622   7.466  0.3585  0.4815  0.2705
 2068SOL    HW1 7881   2.180   4.691   7.454 -0.2922 -0.2906 -0.7217
 2068SOL    HW2 7882   2.245   4.605   7.560 -1.7838 -0.3519  0.1629
 2069SOL     OW 7883   8.725   8.128   7.906 -0.2743  0.3617  0.3152
 2069SOL    HW1 7884   8.797   8.077   7.943  0.2531 -0.1994 -1.4300
 2069SOL    HW2 7885   8.668   8.148   7.981  0.5907 -1.0087  1.3536
 2070SOL     OW 7886   0.677   2.104   0.313  0.6557 -0.8260 -0.0850
 2070SOL    HW1 7887   0.654   2.088   0.405  1.0392 -0.9204 -0.0052
 2070SOL    HW2 7888   0.607   2.162   0.281 -0.0309 -1.6159 -0.0253
 2071SOL     OW 7889   8.203   6.650   6.134 -0.2484  0.0067 -0.4816
 2071SOL    HW1 7890   8.199   6.590   6.208  0.7180 -0.1736 -0.5746
 2071SOL    HW2 7891   8.111   6.667   6.112 -0.5386 -0.2298  0.5169
 2072SOL     OW 7892   1.360   5.975   7.979 -0.2976  0.6659 -0.4305
 2072SOL    HW1 7893   1.383   5.910   7.913 -3.4102  0.7220 -1.6722
 2072SOL    HW2 7894   1.395   6.058   7.945  2.2019 -0.0474  0.3353
 2073SOL     OW 7895   5.218   1.080   4.689  0.0024 -0.7301 -0.6042
 2073SOL    HW1 7896   5.136   1.123   4.712  0.8477  0.2741  0.5601
 2073SOL    HW2 7897   5.273   1.089   4.766 -0.2547 -5.1412  0.2221
 2074SOL     OW 7898   0.649   8.250   2.141 -0.1273  0.5568 -0.4693
 2074SOL    HW1 7899   0.579   8.201   2.185 -0.9893  1.6570 -0.5749
 2074SOL    HW2 7900   0.654   8.332   2.189  2.4600 -0.2691  0.7630
 2075SOL     OW 7901   2.857   8.609   4.977  0.1328  0.5514 -0.6402
 2075SOL    HW1 7902   2.785   8.547   4.974  1.3876 -1.0053  0.7595
 2075SOL    HW2 7903   2.818   8.690   5.010 -0.9134 -0.3470  0.3199
 2076SOL     OW 7904   5.552   1.946   7.108  0.2939 -0.8037 -0.0948
 2076SOL    HW1 7905   5.600   1.970   7.187  0.6180 -2.2280  0.1582
 2076SOL    HW2 7906   5.473   1.902   7.140 -0.9649  1.0878 -0.5156
 2077SOL     OW 7907   2.422   3.078   5.648  0.3240 -0.1058  0.0573
 2077SOL    HW1 7908   2.473   3.000   5.670  0.4784  0.0752  0.3344
 2077SOL    HW2 7909   2.434   3.087   5.553  1.8455  0.6723  0.3040
 2078SOL     OW 7910   0.925   6.013   2.714  0.5281  0.0184  0.0295
 2078SOL    HW1 7911   0.952   5.930   2.754  0.9154  0.0522 -0.1643
 2078SOL    HW2 7912   0.913   5.992   2.621 -1.6824 -0.3804  0.3806
 2079SOL     OW 7913   2.456   0.422   5.336 -0.5042  0.7569 -0.1398
 2079SOL    HW1 7914   2.445   0.343   5.282 -3.7742  0.6593  0.5497
 2079SOL    HW2 7915   2.404   0.404   5.414  2.5476  1.7237  2.1860
 2080SOL     OW 7916   2.583   0.298   6.801  0.3392  0.8569  0.4711
 2080SOL    HW1 7917   2.544   0.216   6.832  1.6064  0.0103 -0.0998
 2080SOL    HW2 7918   2.671   0.272   6.771  2.7839  3.3033  4.9871
 2081SOL     OW 7919   9.294   4.148   4.998  1.0195 -0.1157  0.1647
 2081SOL    HW1 7920   9.209   4.154   5.042  0.8086 -0.8045 -0.1475
 2081SOL    HW2 7921   9.352   4.111   5.064  0.7840 -0.8132 -0.0082
 2082SOL     OW 7922   7.902   2.954   0.613  0.2953  0.1862 -0.2670
 2082SOL    HW1 7923   7.855   2.938   0.695  1.4164 -0.6978  0.2120
 2082SOL    HW2 7924   7.961   3.026   0.633  0.1043  0.4036 -0.4846
 2083SOL     OW 7925   9.251   1.519   4.252  0.5868  0.2276 -0.8817
 2083SOL    HW1 7926   9.265   1.464   4.329 -1.4039  0.2788 -0.4578
 2083SOL    HW2 7927   9.290   1.603   4.275  1.1960 -0.1703 -0.4545
 2084SOL     OW 7928   8.916   0.591   4.411 -0.5489 -0.1120  0.2762
 2084SOL    HW1 7929   8.820   0.587   4.407 -0.5344 -1.2537  0.8487
 2084SOL    HW2 7930   8.942   0.635   4.330 -1.6383  1.7499  0.9022
 2085SOL     OW 7931   2.587   2.529   5.738 -0.0128  0.1909 -0.4189
 2085SOL    HW1 7932   2.542   2.592   5.795 -1.5498 -0.7366 -0.5786
 2085SOL    HW2 7933   2.679   2.555   5.742 -0.3486  1.2296  1.0899
 2086SOL     OW 7934   4.286   0.443   5.742 -0.1494  0.3721 -0.6252
 2086SOL    HW1 7935   4.206   0.421   5.790  1.4622 -1.3199  1.3745
 2086SOL    HW2 7936   4.314   0.360   5.704  0.6718  0.9608 -1.3135
 2087SOL     OW 7937   2.481   6.788   2.024 -0.6934 -0.5559  0.3203
 2087SOL    HW1 7938   2.560   6.733   2.031 -0.4194 -0.1192  0.7355
 2087SOL    HW2 7939   2.408   6.727   2.033 -0.3859 -0.7583  1.5921
 2088SOL     OW 7940   0.423   7.705   5.228 -0.1066 -0.3135  0.2834
 2088SOL    HW1 7941   0.487   7.714   5.299 -0.8102 -0.5963  0.9668
 2088SOL    HW2 7942   0.344   7.674   5.272 -0.1807 -1.7230 -0.8046
 2089SOL     OW 7943   3.888   0.590   0.767 -0.4351 -0.1264 -0.0068
 2089SOL    HW1 7944   3.978   0.572   0.795 -0.7477  0.0785  1.1963
 2089SOL    HW2 7945   3.879   0.685   0.775  0.4728  0.3628 -4.0209
 2090SOL     OW 7946   6.888   3.940   2.178  0.3380 -0.0034 -0.0375
 2090SOL    HW1 7947   6.858   4.025   2.213  2.4481  1.1139 -0.8592
 2090SOL    HW2 7948   6.893   3.884   2.255 -0.3248  0.8619  0.6506
 2091SOL     OW 7949   8.285   6.727   0.349  0.1423  0.6388  0.1139
 2091SOL    HW1 7950   8.379   6.744   0.360  0.4905 -1.8258  1.4551
 2091SOL    HW2 7951   8.245   6.762   0.428 -0.1380  2.0279 -0.6295
 2092SOL     OW 7952   3.508   8.309   8.671  0.4093 -0.8207  0.3459
 2092SOL    HW1 7953   3.529   8.219   8.695 -0.6693 -1.0895  0.3013
 2092SOL    HW2 7954   3.565   8.328   8.596 -0.7337 -2.1235 -0.8754
 2093SOL     OW 7955   7.923   6.114   8.659  0.2448  0.3952 -0.1955
 2093SOL    HW1 7956   7.880   6.106   8.744 -3.8991 -0.8793 -2.2644
 2093SOL    HW2 7957   7.886   6.194   8.621  0.8623  0.1265 -1.3849
 2094SOL     OW 7958   3.624   4.817   2.168  0.4680  0.4838 -0.4281
 2094SOL    HW1 7959   3.646   4.835   2.077 -0.9959  1.6297 -0.5759
 2094SOL    HW2 7960   3.704   4.837   2.217  0.4256  2.4967 -1.1706
 2095SOL     OW 7961   0.597   6.604   5.930 -0.6225 -0.2924  0.2189
 2095SOL    HW1 7962   0.553   6.642   5.854  0.2905 -2.3033 -1.3266
 2095SOL    HW2 7963   0.531   6.547   5.970 -0.4082 -0.9055 -0.3059
 2096SOL     OW 7964   8.973   2.986   8.301  0.0951 -0.4427 -0.5411
 2096SOL    HW1 7965   8.931   3.025   8.378  1.2665  0.0997 -0.1682
 2096SOL    HW2 7966   9.066   2.979   8.325  0.3801 -0.7750 -1.7003
 2097SOL     OW 7967   4.361   4.762   1.334  0.3960  0.0002 -0.3728
 2097SOL    HW1 7968   4.433   4.716   1.376 -1.8914 -1.4605  2.0421
 2097SOL    HW2 7969   4.283   4.713   1.359 -1.5435  2.0471 -2.2317
 2098SOL     OW 7970   5.615   4.383   3.315  0.3564 -0.2721  0.3711
 2098SOL    HW1 7971   5.581   4.295   3.333 -0.2503 -0.4381 -1.4561
 2098SOL    HW2 7972   5.618   4.426   3.400 -2.6263 -0.9168  0.8500
 2099SOL     OW 7973   3.066   4.494   5.630 -0.7888 -0.2951  0.0822
 2099SOL    HW1 7974   2.974   4.510   5.650 -1.0912  0.4797 -1.9264
 2099SOL    HW2 7975   3.071   4.491   5.535  1.5722  1.4821  0.0902
 2100SOL     OW 7976   6.455   7.909   9.284  0.2514 -0.4625  0.8963
 2100SOL    HW1 7977   6.447   7.814   9.283  1.0693 -0.5395 -0.9936
 2100SOL    HW2 7978   6.365   7.940   9.270  0.4544 -1.0401 -2.0471
 2101SOL     OW 7979   1.003   0.114   4.519  0.2410  0.2326  0.0736
 2101SOL    HW1 7980   0.983   0.122   4.425  2.3280  0.2711 -0.4100
 2101SOL    HW2 7981   1.004   0.020   4.536  2.1655  0.1240 -0.5135
 2102SOL     OW 7982   3.265   1.200   5.790  0.0076  0.1749 -0.5027
 2102SOL    HW1 7983   3.308   1.118   5.770  0.3366  0.2352 -0.0472
 2102SOL    HW2 7984   3.336   1.261   5.811 -0.3656 -0.3520  2.5604
 2103SOL     OW 7985   7.452   5.017   1.960 -0.2933  0.3528 -0.7202
 2103SOL    HW1 7986   7.535   5.008   1.913 -0.3115  0.7977 -0.8406
 2103SOL    HW2 7987   7.386   4.987   1.898 -0.2605  0.3763 -0.7658
 2104SOL     OW 7988   5.464   2.976   2.050  0.4003  0.4454  0.3601
 2104SOL    HW1 7989   5.418   2.971   2.133  0.9951  1.3060  0.7514
 2104SOL    HW2 7990   5.550   3.011   2.072  0.7256  0.2451 -0.5557
 2105SOL     OW 7991   2.243   2.105   2.782  0.7336  0.3982  0.0573
 2105SOL    HW1 7992   2.326   2.057   2.778 -0.3916 -1.4990 -1.7265
 2105SOL    HW2 7993   2.186   2.049   2.836 -0.5261 -0.2328 -1.8683
 2106SOL     OW 7994   0.662   7.254   4.733  0.4338 -0.5844  0.1826
 2106SOL    HW1 7995   0.712   7.211   4.664  0.7366  0.7726 -0.4569
 2106SOL    HW2 7996   0.592   7.192   4.755  0.6816 -1.2628 -0.9336
 2107SOL     OW 7997   9.249   3.341   6.749 -0.7555 -0.1651  0.1310
 2107SOL    HW1 7998   9.200   3.363   6.670 -0.2602  2.1645  0.4186
 2107SOL    HW2 7999   9.337   3.319   6.717 -1.0829 -1.1363 -0.1141
 2108SOL     OW 8000   6.215   5.645   3.539  0.0737 -0.0551 -0.4052
 2108SOL    HW1 8001   6.178   5.665   3.625 -1.0206 -1.4295 -0.5400
 2108SOL    HW2 8002   6.267   5.722   3.517 -0.3870  0.7013  1.0744
 2109SOL     OW 8003   0.006   0.817   2.803  0.2734 -0.0029  0.3183
 2109SOL    HW1 8004  -0.063   0.755   2.825 -0.0211  0.4144  0.5673
 2109SOL    HW2 8005  -0.005   0.889   2.864  1.7313 -0.5083  1.2044
 2110SOL     OW 8006   3.452   0.980   1.136 -0.5910 -0.3660 -0.2213
 2110SOL    HW1 8007   3.363   1.003   1.163 -0.4454 -1.3373  1.1225
 2110SOL    HW2 8008   3.440   0.928   1.057 -1.0263  2.4157 -2.0713
 2111SOL     OW 8009   5.330   5.814   5.637 -0.3650 -0.4179 -0.3521
 2111SOL    HW1 8010   5.290   5.832   5.552 -0.4918  1.0314  0.0161
 2111SOL    HW2 8011   5.373   5.729   5.626 -0.6690 -0.3901 -1.7546
 2112SOL     OW 8012   6.786   0.302   3.148 -0.5377 -0.4518 -0.3152
 2112SOL    HW1 8013   6.861   0.331   3.096 -1.0301  1.9821  0.2822
 2112SOL    HW2 8014   6.823   0.279   3.233 -0.3335 -0.2908 -0.3616
 2113SOL     OW 8015   4.048   4.933   4.386  0.6930 -0.2540 -0.2403
 2113SOL    HW1 8016   4.120   4.935   4.323  0.4968 -2.0230 -0.5397
 2113SOL    HW2 8017   4.078   4.872   4.454 -0.4219 -0.8001 -0.2323
 2114SOL     OW 8018   9.119   6.057   7.830 -0.2724  0.2456  0.1910
 2114SOL    HW1 8019   9.131   6.034   7.738 -1.0777 -2.4242  0.7025
 2114SOL    HW2 8020   9.056   6.129   7.829  0.9654  1.3607 -1.3925
 2115SOL     OW 8021   2.526   9.207   6.152  0.0727 -0.0842 -0.5783
 2115SOL    HW1 8022   2.537   9.301   6.168  0.0900 -0.0641 -0.7109
 2115SOL    HW2 8023   2.433   9.190   6.170  0.3654 -0.2946  0.7383
 2116SOL     OW 8024   5.498   3.697   7.980  0.2207 -0.0746  0.1039
 2116SOL    HW1 8025   5.431   3.659   8.038  0.3783 -0.5996 -0.0552
 2116SOL    HW2 8026   5.452   3.714   7.898 -0.1424  1.2055  0.5669
 2117SOL     OW 8027   0.141   3.573   1.533  0.1030 -0.6016  0.6939
 2117SOL    HW1 8028   0.063   3.517   1.535  0.4595 -1.1613 -1.0860
 2117SOL    HW2 8029   0.147   3.603   1.443  2.6008 -1.4623  0.5459
 2118SOL     OW 8030   2.055   4.209   6.564  0.1418  0.2983  0.2194
 2118SOL    HW1 8031   2.092   4.124   6.588 -1.4034 -0.7790 -1.1448
 2118SOL    HW2 8032   2.039   4.253   6.648  0.1239 -1.0936  0.9469
 2119SOL     OW 8033   8.391   0.297   6.090  0.4608  0.0818  0.5288
 2119SOL    HW1 8034   8.306   0.269   6.057 -0.4721  1.0111  2.0874
 2119SOL    HW2 8035   8.452   0.275   6.020 -1.0876 -0.3281 -0.7267
 2120SOL     OW 8036   7.888   8.087   0.745 -0.3968 -0.0498 -0.2907
 2120SOL    HW1 8037   7.882   8.043   0.661  0.3339 -2.3607  0.8202
 2120SOL    HW2 8038   7.973   8.130   0.744  0.0211 -0.8776 -0.3613
 2121SOL     OW 8039   6.754   4.006   6.612  0.5884 -0.4037  0.1718
 2121SOL    HW1 8040   6.774   3.923   6.571  1.8155 -0.0753  0.0767
 2121SOL    HW2 8041   6.818   4.067   6.576  0.0024  0.4794  0.5900
 2122SOL     OW 8042   1.909   8.082   2.908 -0.2071  0.8268 -0.0733
 2122SOL    HW1 8043   1.897   8.160   2.854  0.8996  0.8458 -0.2990
 2122SOL    HW2 8044   1.999   8.088   2.940 -0.5954  0.4231  1.1572
 2123SOL     OW 8045   3.351   1.337   4.132 -0.2411  0.1162  0.4122
 2123SOL    HW1 8046   3.372   1.244   4.125  0.5115  0.2884  0.3053
 2123SOL    HW2 8047   3.333   1.365   4.042  1.7727  0.5740  0.1146
 2124SOL     OW 8048   1.908   8.156   1.272 -0.1588 -0.1569 -0.3526
 2124SOL    HW1 8049   1.887   8.249   1.279  0.8015  0.1526 -1.3052
 2124SOL    HW2 8050   1.915   8.141   1.177  0.3188 -1.0483 -0.1793
 2125SOL     OW 8051   3.667   5.608   3.767  0.0491  0.3205  0.3658
 2125SOL    HW1 8052   3.718   5.527   3.765 -0.1870  0.1773  0.1138
 2125SOL    HW2 8053   3.576   5.579   3.780 -0.0672  0.5313  0.0287
 2126SOL     OW 8054   3.989   8.601   3.071 -0.0854  0.0023 -0.1541
 2126SOL    HW1 8055   3.904   8.590   3.029 -0.4666 -0.6958  0.8081
 2126SOL    HW2 8056   3.994   8.695   3.090 -0.4118  0.1309 -0.6928
 2127SOL     OW 8057   6.597   5.027   4.035 -0.2265  0.4042 -0.6329
 2127SOL    HW1 8058   6.591   5.072   3.951  1.6755  0.7596 -0.6004
 2127SOL    HW2 8059   6.681   5.054   4.071 -1.5337  1.1757  1.9355
 2128SOL     OW 8060   6.113   5.275   8.738  0.0595 -0.9866  0.1920
 2128SOL    HW1 8061   6.046   5.333   8.700 -0.0473 -0.7016  0.8142
 2128SOL    HW2 8062   6.076   5.247   8.821  0.3649 -1.4913  0.1561
 2129SOL     OW 8063   9.028   7.403   5.704  0.4707 -0.3161 -0.4460
 2129SOL    HW1 8064   9.015   7.314   5.736 -2.1349  0.1293 -0.1414
 2129SOL    HW2 8065   9.039   7.455   5.783  1.0604 -0.2322 -0.5840
 2130SOL     OW 8066   1.033   8.276   9.071 -0.1877 -0.2084  0.0293
 2130SOL    HW1 8067   0.996   8.194   9.103 -0.2394  0.2097  1.0672
 2130SOL    HW2 8068   1.076   8.314   9.147  0.4051  0.4104 -0.6094
 2131SOL     OW 8069   1.411   7.288   7.693  0.5155 -0.1688  0.3539
 2131SOL    HW1 8070   1.482   7.245   7.645  0.2465  0.4506 -0.6149
 2131SOL    HW2 8071   1.455   7.342   7.758  0.9520  0.4170 -0.4175
 2132SOL     OW 8072   7.493   0.095   8.226 -0.3592 -0.1780 -0.2082
 2132SOL    HW1 8073   7.587   0.116   8.219 -0.2875 -0.4877 -0.1702
 2132SOL    HW2 8074   7.450   0.158   8.168 -0.4058  2.0719  2.1460
 2133SOL     OW 8075   4.779   5.900   8.459  0.1728  0.3356  0.7484
 2133SOL    HW1 8076   4.683   5.896   8.466  0.2042 -2.7389  0.1959
 2133SOL    HW2 8077   4.795   5.933   8.371 -0.3915 -0.3125  0.3962
 2134SOL     OW 8078   8.732   4.754   3.157  1.4530 -0.2176  0.3355
 2134SOL    HW1 8079   8.686   4.744   3.241 -0.8340  0.7327 -0.7313
 2134SOL    HW2 8080   8.719   4.671   3.113 -0.6964  0.5868 -0.6141
 2135SOL     OW 8081   2.044   3.302   4.344 -0.0359  0.3556  0.1405
 2135SOL    HW1 8082   1.964   3.269   4.384 -0.7001  1.0776 -0.5717
 2135SOL    HW2 8083   2.081   3.227   4.298 -1.7559  0.6693 -1.8294
 2136SOL     OW 8084   4.925   7.682   1.226 -0.0425  0.4853 -0.2398
 2136SOL    HW1 8085   4.978   7.750   1.267  1.9949  0.3800 -2.5898
 2136SOL    HW2 8086   4.910   7.713   1.137 -0.4322 -1.4230 -0.8598
 2137SOL     OW 8087   7.503   1.011   8.946 -0.0591 -0.1960  0.1628
 2137SOL    HW1 8088   7.529   1.089   8.994 -0.9620 -0.1626  0.6115
 2137SOL    HW2 8089   7.570   0.946   8.966 -0.1549 -0.0218  1.0607
 2138SOL     OW 8090   0.945   4.512   0.103 -1.1497 -0.3350  0.1079
 2138SOL    HW1 8091   0.866   4.564   0.085  0.4601  2.3880  0.5995
 2138SOL    HW2 8092   0.970   4.536   0.192  0.0774 -1.4025  0.0661
 2139SOL     OW 8093   3.195   2.939   0.634  0.2068 -0.1224 -0.0657
 2139SOL    HW1 8094   3.194   3.029   0.601  0.3480 -0.1559 -0.1616
 2139SOL    HW2 8095   3.284   2.926   0.666 -0.3344  0.4020  1.6986
 2140SOL     OW 8096   4.641   7.372   4.083 -0.0557 -0.0572 -0.2309
 2140SOL    HW1 8097   4.624   7.286   4.043  1.9556 -0.8226  0.5195
 2140SOL    HW2 8098   4.637   7.433   4.009  1.5206 -1.1908 -1.2864
 2141SOL     OW 8099   0.656   4.095   5.836  0.6967  0.0069 -0.0457
 2141SOL    HW1 8100   0.708   4.161   5.883  1.0338 -0.3132  0.0264
 2141SOL    HW2 8101   0.586   4.146   5.795 -0.5864  0.0762  2.1879
 2142SOL     OW 8102   5.035   8.572   6.959  0.1196 -0.0589  0.0534
 2142SOL    HW1 8103   5.114   8.602   7.004  0.0813 -0.1472  0.1770
 2142SOL    HW2 8104   5.040   8.614   6.873  0.9058 -0.9964 -0.3789
 2143SOL     OW 8105   3.369   0.562   3.092 -0.3111 -0.6728  0.3795
 2143SOL    HW1 8106   3.396   0.644   3.132 -3.4783 -0.5550  2.5169
 2143SOL    HW2 8107   3.439   0.540   3.030  1.5591  2.5455  1.2600
 2144SOL     OW 8108   5.563   8.638   4.573 -0.4887 -0.3689  0.7014
 2144SOL    HW1 8109   5.631   8.591   4.622  1.0361  0.7512 -0.2859
 2144SOL    HW2 8110   5.560   8.725   4.615 -0.1252  0.1375 -0.3089
 2145SOL     OW 8111   2.900   5.231   1.723  0.7187  0.3066 -0.4713
 2145SOL    HW1 8112   2.970   5.181   1.765  0.1520  0.2450  0.4140
 2145SOL    HW2 8113   2.879   5.300   1.786 -1.4389 -0.9142  0.1676
 2146SOL     OW 8114   8.956   2.101   1.701 -0.3550  0.0819 -0.9323
 2146SOL    HW1 8115   8.997   2.031   1.753 -2.2614 -1.8894 -2.0252
 2146SOL    HW2 8116   9.021   2.122   1.634  0.8780  0.5049  0.3682
 2147SOL     OW 8117   0.845   6.059   5.140  0.0260 -0.2101  0.1622
 2147SOL    HW1 8118   0.757   6.054   5.178  0.1592 -0.1517  0.4819
 2147SOL    HW2 8119   0.831   6.096   5.053 -0.1849  0.4858  0.4918
 2148SOL     OW 8120   9.146   4.173   3.059 -0.5609 -0.2154  0.3849
 2148SOL    HW1 8121   9.106   4.160   3.145 -0.4001 -0.5002  0.4173
 2148SOL    HW2 8122   9.149   4.268   3.049 -1.9426 -0.1906  0.0499
 2149SOL     OW 8123   4.172   7.594   0.205  0.7602 -0.2402 -0.1381
 2149SOL    HW1 8124   4.238   7.609   0.138  1.0736 -1.8422 -0.2086
 2149SOL    HW2 8125   4.195   7.509   0.244 -0.7312 -0.4160  0.4329
 2150SOL     OW 8126   6.914   8.850   2.273  0.0720 -0.2259 -0.2951
 2150SOL    HW1 8127   6.920   8.816   2.184 -1.0157  1.1610 -0.9135
 2150SOL    HW2 8128   6.851   8.922   2.267 -0.7946 -0.7791  1.7848
 2151SOL     OW 8129   7.478   9.051   8.627 -0.0927  0.0111  0.6061
 2151SOL    HW1 8130   7.422   9.014   8.695 -0.6749 -1.9458 -0.9128
 2151SOL    HW2 8131   7.418   9.072   8.555  0.7661  0.2757 -0.0457
 2152SOL     OW 8132   1.629   9.287   0.123  0.0957  0.0604 -0.2598
 2152SOL    HW1 8133   1.688   9.317   0.192  0.8014 -1.5074 -0.1513
 2152SOL    HW2 8134   1.683   9.286   0.044  0.8756 -3.3958  0.2283
 2153SOL     OW 8135   3.961   6.479   2.727 -0.4785  0.0145  0.5550
 2153SOL    HW1 8136   3.984   6.571   2.719  0.7853 -0.2549  0.9927
 2153SOL    HW2 8137   4.016   6.434   2.662  2.8832 -1.0451  3.9736
 2154SOL     OW 8138   8.809   1.967   6.981  0.2578 -0.3035 -0.3110
 2154SOL    HW1 8139   8.835   2.059   6.981 -0.3722 -0.1097 -1.8874
 2154SOL    HW2 8140   8.768   1.953   7.066 -3.5732  2.0420 -1.6336
 2155SOL     OW 8141   5.882   5.356   4.107  0.4415 -0.3145 -0.0001
 2155SOL    HW1 8142   5.948   5.297   4.072 -0.4753 -2.4987  1.8384
 2155SOL    HW2 8143   5.893   5.351   4.202 -0.3892  1.6397  0.2246
 2156SOL     OW 8144   6.642   2.774   3.513 -0.1247  0.4496  0.6530
 2156SOL    HW1 8145   6.661   2.680   3.513 -0.7887  0.3021 -0.1361
 2156SOL    HW2 8146   6.578   2.786   3.583  0.0258  0.3304  0.8118
 2157SOL     OW 8147   5.612   0.991   4.025  0.3077 -0.3380  0.7464
 2157SOL    HW1 8148   5.566   1.072   4.048 -0.6309 -0.9319  0.9619
 2157SOL    HW2 8149   5.699   1.001   4.065  0.8939  1.4140 -0.8842
 2158SOL     OW 8150   9.248   6.804   8.011 -0.4314  0.4875  0.4601
 2158SOL    HW1 8151   9.291   6.827   8.093 -0.6532 -0.9125  0.9745
 2158SOL    HW2 8152   9.174   6.865   8.005  0.6391  1.7971  0.3877
 2159SOL     OW 8153   1.628   8.014   5.510  0.4665 -0.7327  0.3939
 2159SOL    HW1 8154   1.624   8.106   5.536  0.4474 -0.2500 -1.2640
 2159SOL    HW2 8155   1.648   7.967   5.591 -0.4197  0.6351  1.4306
 2160SOL     OW 8156   1.465   0.733   6.635 -0.8638 -0.5412 -0.3526
 2160SOL    HW1 8157   1.542   0.764   6.683 -0.6349  1.7991 -2.1359
 2160SOL    HW2 8158   1.394   0.734   6.699 -0.2067  0.9085  0.3625
 2161SOL     OW 8159   7.967   1.444   7.100  0.1807 -0.0347  0.0811
 2161SOL    HW1 8160   7.962   1.388   7.022 -1.5648  1.5093 -0.9653
 2161SOL    HW2 8161   8.016   1.392   7.164 -0.7179 -2.4387 -1.1129
 2162SOL     OW 8162   7.112   0.430   5.231  0.0705  0.1015 -0.2806
 2162SOL    HW1 8163   7.152   0.485   5.299  0.6023  0.7323 -1.0870
 2162SOL    HW2 8164   7.126   0.479   5.150 -2.0714  0.1642 -0.6345
 2163SOL     OW 8165   1.072   0.271   7.578  0.4213 -0.5846 -0.5223
 2163SOL    HW1 8166   1.138   0.251   7.643  1.4971 -1.2116 -1.7789
 2163SOL    HW2 8167   1.102   0.351   7.535 -0.5495  0.1249  0.0932
 2164SOL     OW 8168   2.680   6.125   8.442  0.2552 -0.3773 -0.3689
 2164SOL    HW1 8169   2.608   6.138   8.379 -0.1449  0.0315  0.1649
 2164SOL    HW2 8170   2.749   6.083   8.391 -0.4205 -0.9188 -0.8523
 2165SOL     OW 8171   3.856   5.606   2.251 -0.7040  0.1639 -0.5341
 2165SOL    HW1 8172   3.874   5.599   2.344 -0.9655  1.6789 -0.3514
 2165SOL    HW2 8173   3.932   5.567   2.208  0.9034  2.3276  0.2892
 2166SOL     OW 8174   1.830   1.955   0.543  0.0511  0.0154  0.2013
 2166SOL    HW1 8175   1.787   1.883   0.588  0.3288 -0.6092 -0.5291
 2166SOL    HW2 8176   1.758   2.013   0.516 -0.2466 -0.4904 -0.0894
 2167SOL     OW 8177   8.272   1.605   5.773 -0.2067  0.9930 -0.5191
 2167SOL    HW1 8178   8.283   1.548   5.697 -2.4719 -1.6453  1.0434
 2167SOL    HW2 8179   8.179   1.627   5.774 -0.4288  0.1108  2.0428
 2168SOL     OW 8180   4.042   6.044   6.449  0.4690 -0.9767  0.3590
 2168SOL    HW1 8181   3.971   6.075   6.504  0.4097 -1.1158  0.3608
 2168SOL    HW2 8182   4.002   5.980   6.391  0.8213 -1.9598  1.1751
 2169SOL     OW 8183   0.162   8.530   6.706  0.1788  0.5427 -0.2339
 2169SOL    HW1 8184   0.230   8.580   6.661 -0.6853  1.1026 -0.9356
 2169SOL    HW2 8185   0.179   8.439   6.682  0.9936  0.6240  0.0199
 2170SOL     OW 8186   2.579   1.589   7.361  0.0326 -0.6448 -0.2166
 2170SOL    HW1 8187   2.589   1.502   7.400  0.5165 -0.6068 -0.2485
 2170SOL    HW2 8188   2.589   1.649   7.435 -0.5530 -0.6255 -0.1541
 2171SOL     OW 8189   1.648   3.337   7.984  0.5058 -0.0892  0.1784
 2171SOL    HW1 8190   1.696   3.317   8.064  1.2380  0.7990 -0.0336
 2171SOL    HW2 8191   1.694   3.412   7.946 -0.0680 -0.2571 -0.8741
 2172SOL     OW 8192   0.398   4.195   5.745  0.2340  0.2571 -0.1203
 2172SOL    HW1 8193   0.342   4.257   5.792  0.8385  1.1147 -0.5119
 2172SOL    HW2 8194   0.448   4.250   5.684  1.0932 -0.5656 -0.1661
 2173SOL     OW 8195   8.113   0.225   5.399  0.2143  0.6651  0.5502
 2173SOL    HW1 8196   8.111   0.163   5.327 -1.0681 -1.1667  2.1111
 2173SOL    HW2 8197   8.141   0.307   5.359 -1.4734 -0.0281 -2.2121
 2174SOL     OW 8198   2.489   5.027   7.539 -0.5647 -0.6240 -0.7263
 2174SOL    HW1 8199   2.440   5.043   7.619 -0.7314 -1.9883 -0.5452
 2174SOL    HW2 8200   2.569   5.080   7.549 -1.2901  0.4241 -0.3632
 2175SOL     OW 8201   2.943   6.797   4.723 -0.3629  0.4394 -1.0204
 2175SOL    HW1 8202   3.005   6.799   4.795 -1.5024  0.4684 -0.0191
 2175SOL    HW2 8203   2.961   6.877   4.673  1.1393 -0.1194 -1.3931
 2176SOL     OW 8204   9.254   8.414   8.568  0.2217 -0.0166  0.5176
 2176SOL    HW1 8205   9.185   8.476   8.543 -0.2841 -0.5416  0.5911
 2176SOL    HW2 8206   9.330   8.440   8.516 -0.0321  0.5693  0.4396
 2177SOL     OW 8207   7.155   1.850   1.476 -0.2864  0.0403  0.3469
 2177SOL    HW1 8208   7.109   1.912   1.419  1.2207  0.4278 -0.4854
 2177SOL    HW2 8209   7.196   1.905   1.543  0.3969 -0.1167  0.0679
 2178SOL     OW 8210   0.972   2.807   0.669  0.4084 -0.0165 -0.0032
 2178SOL    HW1 8211   0.950   2.714   0.678 -0.5840  0.3797  1.8942
 2178SOL    HW2 8212   1.041   2.822   0.734  0.6888  0.5550 -0.4243
 2179SOL     OW 8213   0.303   3.449   9.165  0.4529 -0.5202  0.4409
 2179SOL    HW1 8214   0.384   3.453   9.114 -0.3960  0.9986 -0.8371
 2179SOL    HW2 8215   0.325   3.492   9.247  0.8324  0.3123 -0.0818
 2180SOL     OW 8216   4.244   5.892   5.502  0.1200  0.2142 -0.1315
 2180SOL    HW1 8217   4.315   5.923   5.558  1.1096  1.6417 -2.1528
 2180SOL    HW2 8218   4.259   5.934   5.418 -2.3671 -0.5179 -0.9787
 2181SOL     OW 8219   8.375   3.320   7.713  0.1275  0.3454 -0.0552
 2181SOL    HW1 8220   8.410   3.371   7.786 -0.5743  0.1886  0.3901
 2181SOL    HW2 8221   8.447   3.317   7.650  1.0836 -0.3803  1.0529
 2182SOL     OW 8222   6.304   6.978   1.432  0.1303  0.0411  0.0473
 2182SOL    HW1 8223   6.293   7.062   1.388 -0.8194 -0.7768 -1.3210
 2182SOL    HW2 8224   6.355   6.925   1.370 -1.1745 -1.1018 -0.0700
 2183SOL     OW 8225   3.043   1.102   0.214  0.6178 -0.0426  0.6678
 2183SOL    HW1 8226   3.000   1.027   0.253  0.1852  0.1884  0.6371
 2183SOL    HW2 8227   2.976   1.144   0.160  1.0960 -0.1302 -0.0060
 2184SOL     OW 8228   2.141   0.356   6.489 -0.9755  0.2839  0.3391
 2184SOL    HW1 8229   2.193   0.303   6.429  0.3614  0.2290  1.4996
 2184SOL    HW2 8230   2.052   0.352   6.455 -0.4613 -0.7710 -0.9061
 2185SOL     OW 8231   6.662   1.860   0.059  0.1856 -0.2998  0.2272
 2185SOL    HW1 8232   6.619   1.848  -0.026  2.4732  2.4406 -1.4554
 2185SOL    HW2 8233   6.598   1.909   0.111 -0.4676 -0.2243 -0.6238
 2186SOL     OW 8234   7.488   6.281   3.487 -0.0042  0.0037  0.2801
 2186SOL    HW1 8235   7.440   6.363   3.491  1.2801  0.7610  0.2822
 2186SOL    HW2 8236   7.547   6.284   3.563  1.6369  0.0916 -0.9759
 2187SOL     OW 8237   4.119   4.101   1.613  0.2514  0.2475  0.0414
 2187SOL    HW1 8238   4.171   4.153   1.551  1.7750  0.8693  1.7738
 2187SOL    HW2 8239   4.183   4.042   1.653 -0.9084 -0.8598  0.2508
 2188SOL     OW 8240   7.937   4.025   7.189  0.3253  0.4567 -0.3196
 2188SOL    HW1 8241   7.842   4.037   7.197  0.5755  2.9391 -0.5394
 2188SOL    HW2 8242   7.973   4.107   7.223  2.4489 -1.0929  1.2353
 2189SOL     OW 8243   4.327   6.698   4.802  0.0130 -0.1396  0.3802
 2189SOL    HW1 8244   4.272   6.756   4.749  1.0780 -0.1194 -0.7154
 2189SOL    HW2 8245   4.378   6.648   4.738  0.5108 -0.9080  1.3660
 2190SOL     OW 8246   7.873   5.494   7.886 -0.4422  0.2009 -0.2518
 2190SOL    HW1 8247   7.854   5.415   7.937  1.4163 -0.4274 -0.4779
 2190SOL    HW2 8248   7.969   5.497   7.882 -0.5243  1.4813 -1.7817
 2191SOL     OW 8249   3.468   5.538   8.760  0.1688 -0.0853 -0.3101
 2191SOL    HW1 8250   3.489   5.446   8.748 -2.3231 -0.7468  0.1405
 2191SOL    HW2 8251   3.474   5.552   8.854 -0.4227 -0.0212 -0.2842
 2192SOL     OW 8252   6.794   3.130   2.010  0.3255  0.5098 -0.0339
 2192SOL    HW1 8253   6.880   3.101   2.041  0.5053  2.3088  1.2225
 2192SOL    HW2 8254   6.732   3.091   2.072  0.5317  2.2656  1.3376
 2193SOL     OW 8255   3.048   2.333   7.595  0.2726  0.3862  0.3161
 2193SOL    HW1 8256   3.047   2.336   7.499  2.1911 -2.6189  0.1174
 2193SOL    HW2 8257   2.997   2.255   7.617  2.2770 -0.6218  1.5464
 2194SOL     OW 8258   6.000   3.956   5.369 -0.5199  0.2484 -0.6080
 2194SOL    HW1 8259   5.993   4.040   5.414 -0.6850  0.8159 -1.6763
 2194SOL    HW2 8260   6.094   3.941   5.360 -0.4811 -0.0343  0.2266
 2195SOL     OW 8261   2.082   3.371   3.895 -0.0143  0.4927 -0.2039
 2195SOL    HW1 8262   2.046   3.444   3.844  0.5684  0.5124 -0.5996
 2195SOL    HW2 8263   2.153   3.410   3.945 -1.7034  0.8432  1.9894
 2196SOL     OW 8264   0.997   2.973   4.068 -0.5715 -0.3113  0.1684
 2196SOL    HW1 8265   1.026   2.935   3.985 -1.2480 -0.7986  0.1493
 2196SOL    HW2 8266   1.030   2.913   4.135 -0.8962 -0.4636  0.1913
 2197SOL     OW 8267   7.023   6.292   2.942  0.2981  0.2377 -0.2597
 2197SOL    HW1 8268   7.020   6.291   3.038  0.5732 -3.1951 -0.2046
 2197SOL    HW2 8269   6.938   6.255   2.916  0.7163  0.0008 -1.2823
 2198SOL     OW 8270   5.501   5.020   3.890  0.7683  0.4308 -0.3286
 2198SOL    HW1 8271   5.564   4.948   3.893 -0.0307 -0.2361  1.0570
 2198SOL    HW2 8272   5.546   5.090   3.842  1.5494 -0.9894 -1.7101
 2199SOL     OW 8273   5.677   8.429   7.596 -0.1237  0.0295 -0.5768
 2199SOL    HW1 8274   5.645   8.351   7.642 -1.5385  1.1887  0.4737
 2199SOL    HW2 8275   5.621   8.500   7.629  1.0678  1.4603 -1.6003
 2200SOL     OW 8276   4.669   1.808   4.227  0.5116  0.7462 -0.3238
 2200SOL    HW1 8277   4.583   1.848   4.214  1.7594  2.8006 -2.5499
 2200SOL    HW2 8278   4.708   1.859   4.297 -0.4376 -0.8648  1.4354
 2201SOL     OW 8279   2.099   3.260   7.317  0.5783 -0.5186  0.1159
 2201SOL    HW1 8280   2.188   3.296   7.312  0.6015 -0.9072 -2.9176
 2201SOL    HW2 8281   2.061   3.276   7.231 -2.2880 -0.4776  1.3327
 2202SOL     OW 8282   0.703   3.823   6.449  0.4361  0.3589  0.0943
 2202SOL    HW1 8283   0.630   3.760   6.446  0.6943  0.1137 -1.3720
 2202SOL    HW2 8284   0.771   3.778   6.499  0.1510 -0.0251  0.1451
 2203SOL     OW 8285   3.053   0.777   4.665 -0.3297 -0.2746  0.5574
 2203SOL    HW1 8286   3.055   0.690   4.626 -1.6986 -0.8625  1.7809
 2203SOL    HW2 8287   3.133   0.782   4.717  0.7231 -0.0618 -1.0265
 2204SOL     OW 8288   0.134   1.317   9.058  0.3633 -0.5033 -0.1955
 2204SOL    HW1 8289   0.175   1.339   8.975  0.2377  2.6909  0.5200
 2204SOL    HW2 8290   0.207   1.293   9.115  1.2053  3.4636  0.5623
 2205SOL     OW 8291   7.768   0.491   2.491  0.2691 -0.1601  0.2797
 2205SOL    HW1 8292   7.806   0.564   2.444 -0.5455 -0.3714 -0.7149
 2205SOL    HW2 8293   7.812   0.492   2.577  0.9203  0.9113 -0.0617
 2206SOL     OW 8294   2.822   8.078   1.850 -0.5690 -0.1710 -0.1062
 2206SOL    HW1 8295   2.906   8.080   1.803 -0.0634  2.0546  0.8216
 2206SOL    HW2 8296   2.770   8.147   1.810 -0.8155  0.5210  1.3578
 2207SOL     OW 8297   4.599   5.101   0.135  0.1262 -0.4295 -0.0328
 2207SOL    HW1 8298   4.536   5.029   0.145  0.5863 -0.6244  1.4787
 2207SOL    HW2 8299   4.583   5.158   0.210  2.2384 -0.8589  0.7844
 2208SOL     OW 8300   7.727   5.647   1.313 -0.1947  0.4513 -0.1710
 2208SOL    HW1 8301   7.730   5.552   1.301  0.7773  0.3750  0.6164
 2208SOL    HW2 8302   7.782   5.682   1.243 -1.1925  0.4861 -0.9469
 2209SOL     OW 8303   1.010   1.353   8.721 -0.0687  0.0597 -0.1219
 2209SOL    HW1 8304   1.098   1.390   8.717  0.2076 -0.3320  1.7084
 2209SOL    HW2 8305   0.999   1.306   8.639  0.3335  2.4941 -1.6274
 2210SOL     OW 8306   0.465   9.073   5.813  0.2215  0.0956 -0.3996
 2210SOL    HW1 8307   0.422   9.145   5.859 -0.7343  0.7883 -2.3264
 2210SOL    HW2 8308   0.494   9.014   5.882 -0.5376  1.4667  1.1153
 2211SOL     OW 8309   1.631   8.245   5.646 -0.3028 -0.2812  0.2953
 2211SOL    HW1 8310   1.588   8.292   5.717 -0.1749 -0.9292  0.8046
 2211SOL    HW2 8311   1.721   8.278   5.645 -1.0038  1.6612 -1.2875
 2212SOL     OW 8312   4.185   7.461   5.175  0.2362  0.4858  0.3624
 2212SOL    HW1 8313   4.259   7.466   5.234 -1.0793 -1.1153  2.2265
 2212SOL    HW2 8314   4.210   7.395   5.110  1.4678  1.8551 -0.5605
 2213SOL     OW 8315   2.658   6.914   4.053 -0.1963 -0.3399  0.6008
 2213SOL    HW1 8316   2.607   6.837   4.028  0.6320 -1.0874  1.1669
 2213SOL    HW2 8317   2.635   6.929   4.145 -2.1574  1.5405 -0.1659
 2214SOL     OW 8318   4.758   5.689   3.997  0.2502  0.7944  0.2781
 2214SOL    HW1 8319   4.776   5.595   3.989 -1.7753  0.5213 -1.5872
 2214SOL    HW2 8320   4.799   5.728   3.920  0.3404  1.3200  0.5910
 2215SOL     OW 8321   3.041   1.194   1.447  0.2160 -0.4969  0.4993
 2215SOL    HW1 8322   3.035   1.242   1.529 -0.0747  0.6564 -0.1883
 2215SOL    HW2 8323   2.993   1.112   1.463  0.7483 -0.5830  1.6791
 2216SOL     OW 8324   6.183   8.150   6.688 -0.4040 -0.0682 -0.2325
 2216SOL    HW1 8325   6.245   8.219   6.666  0.4992 -0.2490  1.6279
 2216SOL    HW2 8326   6.098   8.193   6.687  0.1953  1.2315  1.4038
 2217SOL     OW 8327   3.071   3.131   6.845  0.6153 -0.3648  0.0310
 2217SOL    HW1 8328   3.065   3.179   6.927  0.0457  0.9753 -0.7815
 2217SOL    HW2 8329   3.018   3.052   6.858 -1.4259  0.9914  0.1582
 2218SOL     OW 8330   5.292   9.149   4.056 -0.3496 -0.7242  0.3259
 2218SOL    HW1 8331   5.201   9.170   4.077  0.4155  0.2905  2.8635
 2218SOL    HW2 8332   5.313   9.074   4.111  0.2934 -1.0850 -0.4025
 2219SOL     OW 8333   2.298   7.241   0.311 -0.0322  0.2901 -0.1971
 2219SOL    HW1 8334   2.376   7.287   0.280 -0.2865  1.2138  0.5131
 2219SOL    HW2 8335   2.228   7.271   0.252 -0.6838  2.6820  1.7280
 2220SOL     OW 8336   6.028   4.524   1.359 -0.1316 -0.0933 -0.3161
 2220SOL    HW1 8337   6.102   4.500   1.415  1.2123  0.6179 -1.7725
 2220SOL    HW2 8338   5.968   4.571   1.418  0.6508 -0.4892  0.8169
 2221SOL     OW 8339   5.959   2.574   6.307  0.2955  0.4016  0.2950
 2221SOL    HW1 8340   6.030   2.631   6.334 -0.7076  1.2416  1.2234
 2221SOL    HW2 8341   5.907   2.561   6.387 -1.1210  0.5979 -0.5663
 2222SOL     OW 8342   4.543   4.111   6.743 -0.2326 -0.0835 -0.7728
 2222SOL    HW1 8343   4.632   4.133   6.768 -0.6068  1.2808 -0.5945
 2222SOL    HW2 8344   4.497   4.101   6.826 -0.1465 -1.1982 -0.8613
 2223SOL     OW 8345   0.778   9.182   4.814  0.2406 -0.1450  0.3159
 2223SOL    HW1 8346   0.764   9.127   4.891 -0.6188  0.8293  0.8497
 2223SOL    HW2 8347   0.874   9.186   4.805  0.3316 -2.2606 -0.1215
 2224SOL     OW 8348   2.152   5.579   0.562  0.1424 -0.1313 -0.1895
 2224SOL    HW1 8349   2.145   5.539   0.649 -1.3240  3.9274  1.6756
 2224SOL    HW2 8350   2.236   5.625   0.564 -0.1941  0.5085 -0.6561
 2225SOL     OW 8351   6.029   3.307   5.996  0.2731 -0.4979  0.7792
 2225SOL    HW1 8352   6.017   3.296   5.902  0.3851  1.0390  0.5712
 2225SOL    HW2 8353   5.944   3.285   6.034 -1.0651  2.9215 -0.0505
 2226SOL     OW 8354   6.526   7.672   3.612  0.1850 -0.6623 -0.5600
 2226SOL    HW1 8355   6.540   7.598   3.671 -0.8125 -0.0922  0.4187
 2226SOL    HW2 8356   6.560   7.748   3.661 -1.5621 -0.0328 -0.2867
 2227SOL     OW 8357   0.928   2.267   4.240 -0.2185  0.0935 -0.0798
 2227SOL    HW1 8358   0.923   2.215   4.320 -0.4607 -0.4609 -0.4490
 2227SOL    HW2 8359   0.926   2.358   4.269  2.8128 -0.0467  0.7869
 2228SOL     OW 8360   7.558   1.356   1.940 -0.0963  0.0935 -0.4343
 2228SOL    HW1 8361   7.470   1.353   1.905 -0.0396  0.6544 -0.6322
 2228SOL    HW2 8362   7.597   1.435   1.902  0.3260  0.1151  0.0286
 2229SOL     OW 8363   6.954   5.035   0.016  0.0262 -0.7704  0.3452
 2229SOL    HW1 8364   7.003   5.008   0.094 -0.0771  0.4731  0.8422
 2229SOL    HW2 8365   7.021   5.063  -0.046 -0.0402  0.9415  1.0294
 2230SOL     OW 8366   0.363   0.070   7.151 -0.2799 -0.8666 -0.4161
 2230SOL    HW1 8367   0.396   0.053   7.062 -0.3445 -1.6875 -0.2857
 2230SOL    HW2 8368   0.326   0.158   7.146 -0.1534 -0.8506 -1.1727
 2231SOL     OW 8369   1.070   2.943   5.378  0.0114 -0.2367  0.2461
 2231SOL    HW1 8370   1.059   2.849   5.394  0.9557 -0.5399 -0.8442
 2231SOL    HW2 8371   1.164   2.956   5.372 -0.1071  0.8278  0.6339
 2232SOL     OW 8372   4.200   1.504   0.235  0.3896  0.4072  0.5036
 2232SOL    HW1 8373   4.116   1.476   0.270  0.6394 -1.1961 -0.0995
 2232SOL    HW2 8374   4.203   1.598   0.249 -1.6801  0.5361  0.1518
 2233SOL     OW 8375   6.293   6.951   3.239 -0.3812  0.0595  0.5217
 2233SOL    HW1 8376   6.267   6.887   3.173  1.4473 -0.3437  0.1692
 2233SOL    HW2 8377   6.285   7.035   3.195  1.0150 -0.2223 -0.2860
 2234SOL     OW 8378   3.429   7.323   4.065  0.3413 -0.3038  0.4062
 2234SOL    HW1 8379   3.486   7.395   4.038 -2.0222  1.8207  0.8357
 2234SOL    HW2 8380   3.407   7.278   3.984  0.7546  0.2895 -0.0441
 2235SOL     OW 8381   6.282   1.738   0.890 -0.4772 -0.3058 -0.2566
 2235SOL    HW1 8382   6.297   1.800   0.962  1.5634 -1.1228  0.0755
 2235SOL    HW2 8383   6.243   1.791   0.820  0.0186  1.0782  0.4921
 2236SOL     OW 8384   5.197   0.494   3.073 -0.2995  0.7942  0.0131
 2236SOL    HW1 8385   5.167   0.443   3.148  0.1123  0.9690  0.2955
 2236SOL    HW2 8386   5.154   0.453   2.998  0.8702 -0.6444  0.1147
 2237SOL     OW 8387   5.424   8.801   0.749 -0.4935  0.3688 -0.2238
 2237SOL    HW1 8388   5.361   8.823   0.681  0.2098 -0.0436 -1.0104
 2237SOL    HW2 8389   5.383   8.729   0.798 -0.4845 -0.1290 -0.9436
 2238SOL     OW 8390   0.659   8.499   2.254 -0.1215 -0.0487 -0.0499
 2238SOL    HW1 8391   0.624   8.573   2.203 -1.1489 -0.3053  0.2655
 2238SOL    HW2 8392   0.724   8.538   2.312  1.7776  0.1217 -2.2119
 2239SOL     OW 8393   6.484   6.231   1.052 -0.1103 -0.0229  0.1587
 2239SOL    HW1 8394   6.459   6.222   0.960  0.6431  1.8848 -0.2523
 2239SOL    HW2 8395   6.406   6.202   1.100 -0.8030 -0.2767 -1.0812
 2240SOL     OW 8396   7.794   2.389   2.973  0.1641  0.0284 -0.1026
 2240SOL    HW1 8397   7.808   2.376   2.879 -1.3413  0.0614 -0.3502
 2240SOL    HW2 8398   7.705   2.358   2.988  0.6036 -0.5376  1.4348
 2241SOL     OW 8399   0.552   2.347   2.211 -0.2556  0.1271  0.5642
 2241SOL    HW1 8400   0.469   2.395   2.204 -0.0368  0.4997  0.4843
 2241SOL    HW2 8401   0.551   2.287   2.137 -0.7565 -0.3463  0.9490
 2242SOL     OW 8402   1.390   3.684   9.198 -0.7843  0.1787 -0.0234
 2242SOL    HW1 8403   1.393   3.693   9.102  0.7400 -1.8721 -0.2085
 2242SOL    HW2 8404   1.481   3.693   9.225 -1.1533  0.2792  1.2012
 2243SOL     OW 8405   8.506   1.669   6.927 -0.7153  0.0880 -0.1394
 2243SOL    HW1 8406   8.588   1.631   6.957 -0.7707 -0.3930 -0.5884
 2243SOL    HW2 8407   8.442   1.599   6.939 -0.7944 -0.0121 -1.1167
 2244SOL     OW 8408   8.900   4.902   5.751  0.0918 -0.2090  0.8109
 2244SOL    HW1 8409   8.993   4.885   5.770 -0.1990 -1.0284  1.5117
 2244SOL    HW2 8410   8.900   4.990   5.714  1.1841 -0.2920  0.5755
 2245SOL     OW 8411   2.052   3.912   8.544 -0.0502 -0.7608  0.1310
 2245SOL    HW1 8412   2.119   3.965   8.587 -1.3559  0.9380  0.1083
 2245SOL    HW2 8413   2.050   3.830   8.594  1.5938 -0.5738  0.5091
 2246SOL     OW 8414   5.284   4.487   6.993 -0.2038 -0.6527 -0.8383
 2246SOL    HW1 8415   5.195   4.509   6.965  0.0146 -0.3255 -1.2894
 2246SOL    HW2 8416   5.340   4.528   6.927  0.3621  0.7986  0.5287
 2247SOL     OW 8417   6.494   6.465   6.656 -0.4120 -0.1033 -0.0590
 2247SOL    HW1 8418   6.573   6.519   6.652 -0.3763 -0.1922 -0.6179
 2247SOL    HW2 8419   6.525   6.380   6.688 -0.2448 -0.2072 -0.5021
 2248SOL     OW 8420   0.486   5.511   1.026 -0.0510 -0.5305  0.1515
 2248SOL    HW1 8421   0.488   5.535   0.933 -0.0762  0.4510  0.4050
 2248SOL    HW2 8422   0.429   5.576   1.066  0.4403 -0.6016  0.9630
 2249SOL     OW 8423   4.018   0.269   0.954  0.4093 -0.3046 -0.4474
 2249SOL    HW1 8424   4.059   0.355   0.963 -0.2702  0.1576 -1.6766
 2249SOL    HW2 8425   3.932   0.279   0.995  1.2614 -1.1174  1.6274
 2250SOL     OW 8426   7.328   6.601   6.485 -0.0593  0.0964 -0.2084
 2250SOL    HW1 8427   7.372   6.549   6.418 -0.2003 -0.9936  0.5543
 2250SOL    HW2 8428   7.235   6.584   6.471 -0.1764  1.0760 -0.7175
 2251SOL     OW 8429   7.627   6.540   8.625 -0.0646 -0.5615  0.5393
 2251SOL    HW1 8430   7.614   6.500   8.711  0.3557 -0.6506  0.5652
 2251SOL    HW2 8431   7.676   6.620   8.643  3.1655 -2.3210  0.0886
 2252SOL     OW 8432   0.355   3.828   3.147 -0.3579 -0.3833  0.5153
 2252SOL    HW1 8433   0.284   3.853   3.205 -1.3041 -0.6348 -0.5309
 2252SOL    HW2 8434   0.371   3.735   3.166  0.3339 -0.0909  1.4111
 2253SOL     OW 8435   2.349   6.366   3.032  0.1700  0.3590 -0.4547
 2253SOL    HW1 8436   2.361   6.363   2.937 -0.0353 -2.3307 -0.4302
 2253SOL    HW2 8437   2.257   6.347   3.046  0.6291 -1.3371  0.3696
 2254SOL     OW 8438   6.992   1.557   1.916 -0.5931  0.6002  0.1009
 2254SOL    HW1 8439   6.992   1.541   1.822 -3.9360 -0.5174  0.2295
 2254SOL    HW2 8440   6.932   1.630   1.928 -0.7480  0.2750  1.4226
 2255SOL     OW 8441   0.799   3.882   0.206  0.0116  0.3993 -0.4190
 2255SOL    HW1 8442   0.780   3.872   0.113 -0.3715  3.5479 -0.7302
 2255SOL    HW2 8443   0.870   3.946   0.210 -0.3124  0.6802  1.4655
 2256SOL     OW 8444   5.441   0.638   3.058  0.2684 -0.2055  0.2526
 2256SOL    HW1 8445   5.354   0.605   3.037 -0.4378  0.7705  1.5403
 2256SOL    HW2 8446   5.495   0.560   3.071  0.7616 -0.8819 -4.9727
 2257SOL     OW 8447   4.202   3.910   2.684 -0.2519  0.6063 -0.5842
 2257SOL    HW1 8448   4.202   3.984   2.745 -3.0284 -0.5779  0.9647
 2257SOL    HW2 8449   4.182   3.948   2.599 -2.3852  1.5776  0.3215
 2258SOL     OW 8450   8.179   6.065   6.548  0.2544  0.2023  0.2376
 2258SOL    HW1 8451   8.172   6.041   6.640  0.5617  0.9320  0.4624
 2258SOL    HW2 8452   8.256   6.017   6.517 -0.9030 -1.4363 -0.1091
 2259SOL     OW 8453   7.083   7.513   5.256  0.0354 -0.4887 -0.0205
 2259SOL    HW1 8454   7.000   7.503   5.208 -1.2134  1.0929  1.7221
 2259SOL    HW2 8455   7.071   7.459   5.334  0.0520  0.8717  0.9406
 2260SOL     OW 8456   2.472   4.794   4.507  0.8552 -0.0928 -0.2298
 2260SOL    HW1 8457   2.392   4.782   4.456  0.3712  0.8176  0.2978
 2260SOL    HW2 8458   2.483   4.889   4.510  0.3619 -0.1001  2.1557
 2261SOL     OW 8459   1.276   1.439   8.639 -0.3123  0.0762 -0.8139
 2261SOL    HW1 8460   1.338   1.488   8.693  1.1478 -0.8132 -1.6585
 2261SOL    HW2 8461   1.326   1.364   8.607 -1.7757 -0.5600 -1.6490
 2262SOL     OW 8462   1.334   4.476   1.145  0.4521  0.3974  0.5780
 2262SOL    HW1 8463   1.420   4.434   1.153 -0.3591 -1.3147  0.4930
 2262SOL    HW2 8464   1.294   4.465   1.231 -0.6098 -0.9439 -0.0540
 2263SOL     OW 8465   8.623   4.150   4.487 -0.6740  0.1669  0.1871
 2263SOL    HW1 8466   8.695   4.176   4.430 -0.8014 -1.6748 -0.8659
 2263SOL    HW2 8467   8.662   4.149   4.575 -0.5851  3.3824  0.2362
 2264SOL     OW 8468   5.026   0.372   0.097 -0.0434 -0.3984 -0.5211
 2264SOL    HW1 8469   5.092   0.384   0.028 -1.2339  1.3308 -1.4175
 2264SOL    HW2 8470   5.009   0.278   0.097 -1.5810 -0.2346 -4.1579
 2265SOL     OW 8471   1.759   5.638   5.301  0.1733  0.2368  0.2958
 2265SOL    HW1 8472   1.700   5.707   5.333  0.0382  0.0388  0.4734
 2265SOL    HW2 8473   1.715   5.604   5.223 -0.1701 -0.2150  0.6806
 2266SOL     OW 8474   5.826   3.000   5.085  0.0930 -0.0660 -0.4179
 2266SOL    HW1 8475   5.820   3.095   5.070  0.9148 -0.2272 -1.8282
 2266SOL    HW2 8476   5.871   2.966   5.008  2.2623 -1.2708  1.3172
 2267SOL     OW 8477   0.410   1.407   1.470  0.4385  0.2036  0.5967
 2267SOL    HW1 8478   0.447   1.459   1.399 -0.0912 -1.2153 -0.7633
 2267SOL    HW2 8479   0.332   1.367   1.432 -0.4260  0.2144  2.2963
 2268SOL     OW 8480   5.226   0.685   3.594 -0.3696  0.0596  0.1292
 2268SOL    HW1 8481   5.238   0.591   3.604  0.5340  0.3404  1.9603
 2268SOL    HW2 8482   5.313   0.722   3.613 -0.9575  1.3205  0.3940
 2269SOL     OW 8483   2.020   1.187   5.787  0.2271  0.2981 -0.0189
 2269SOL    HW1 8484   1.946   1.217   5.838 -0.4116 -0.4232 -0.5073
 2269SOL    HW2 8485   2.041   1.260   5.729  0.1886  0.6704  0.4420
 2270SOL     OW 8486   4.205   9.029   2.348 -0.3123 -0.2793 -0.0828
 2270SOL    HW1 8487   4.274   9.095   2.359 -0.4840  0.0354 -0.9029
 2270SOL    HW2 8488   4.219   8.968   2.421 -1.7038  2.0388  2.2050
 2271SOL     OW 8489   5.026   8.249   8.469 -0.0903 -0.5901  0.5661
 2271SOL    HW1 8490   5.070   8.208   8.543  0.8811  0.7387  0.7345
 2271SOL    HW2 8491   4.936   8.216   8.473  0.0775 -0.8921  2.0593
 2272SOL     OW 8492   5.978   4.719   1.179 -0.5787 -0.3175 -0.7797
 2272SOL    HW1 8493   5.905   4.765   1.220  1.2959  1.6439  0.4443
 2272SOL    HW2 8494   6.003   4.652   1.243  1.3298  1.7302  0.7389
 2273SOL     OW 8495   8.714   0.284   8.756  0.1401  0.1424  0.0818
 2273SOL    HW1 8496   8.648   0.352   8.743 -1.1741 -1.3090 -1.1219
 2273SOL    HW2 8497   8.775   0.294   8.683 -0.5513 -0.5202 -0.5920
 2274SOL     OW 8498   1.273   3.526   3.093  0.3655  0.3460 -0.2632
 2274SOL    HW1 8499   1.220   3.569   3.160 -0.8512 -0.0849 -0.9316
 2274SOL    HW2 8500   1.236   3.439   3.084  1.7974 -0.3067 -0.0775
 2275SOL     OW 8501   6.646   6.591   7.947  0.0815  0.5443  0.3513
 2275SOL    HW1 8502   6.674   6.537   8.021 -2.0969 -0.5422  0.4131
 2275SOL    HW2 8503   6.618   6.674   7.986  1.3987  0.9427  0.4672
 2276SOL     OW 8504   5.675   8.512   4.189  0.3722 -0.2683 -0.2795
 2276SOL    HW1 8505   5.723   8.496   4.270  1.8558 -0.4779 -1.1854
 2276SOL    HW2 8506   5.656   8.425   4.154  0.1353 -0.1714 -0.3960
 2277SOL     OW 8507   2.927   2.015   5.253 -0.0737 -0.1764 -0.6720
 2277SOL    HW1 8508   2.991   2.063   5.306  0.5748 -2.6231  0.8771
 2277SOL    HW2 8509   2.877   2.083   5.208  0.8057  1.9219  1.3916
 2278SOL     OW 8510   7.498   0.854   2.083 -0.2378 -0.0620  0.4926
 2278SOL    HW1 8511   7.527   0.764   2.071 -0.9439 -0.4189  1.4046
 2278SOL    HW2 8512   7.405   0.853   2.059  0.3470  0.9606 -1.9260
 2279SOL     OW 8513   0.919   2.458   0.946  0.0326  0.2908  0.3811
 2279SOL    HW1 8514   0.998   2.452   1.000  0.6434  1.1413 -0.4149
 2279SOL    HW2 8515   0.866   2.383   0.973  1.8572 -1.2692 -0.2835
 2280SOL     OW 8516   1.948   1.449   1.499 -0.3940 -0.1455  0.3264
 2280SOL    HW1 8517   2.017   1.405   1.548  0.1133  1.2004  0.8563
 2280SOL    HW2 8518   1.972   1.542   1.503  0.8308 -0.1152 -4.1753
 2281SOL     OW 8519   2.156   1.566   0.096 -0.2395 -0.4227  0.3733
 2281SOL    HW1 8520   2.176   1.578   0.004 -0.2121  0.0678  0.4443
 2281SOL    HW2 8521   2.095   1.636   0.118  0.1402 -0.2389  0.8486
 2282SOL     OW 8522   1.847   8.574   1.563 -0.2632 -0.3366  0.3436
 2282SOL    HW1 8523   1.754   8.587   1.582 -0.7894  0.0902 -2.2451
 2282SOL    HW2 8524   1.855   8.482   1.537 -0.1400 -0.1508 -0.2952
 2283SOL     OW 8525   2.500   5.321   1.463 -0.0355  0.5267 -0.2183
 2283SOL    HW1 8526   2.570   5.256   1.458 -0.0774  0.4345  0.4035
 2283SOL    HW2 8527   2.539   5.396   1.508  0.1182  1.0804 -1.2403
 2284SOL     OW 8528   3.487   8.984   5.174 -0.0235 -0.1409 -0.3905
 2284SOL    HW1 8529   3.400   8.947   5.154 -1.1690  1.7570  0.9636
 2284SOL    HW2 8530   3.546   8.938   5.114 -1.6561 -2.8560 -0.0106
 2285SOL     OW 8531   2.521   4.875   6.701  0.2610  0.5456 -0.3143
 2285SOL    HW1 8532   2.582   4.845   6.633  0.6213  1.0330 -0.2097
 2285SOL    HW2 8533   2.530   4.811   6.771  0.2697  0.3246 -0.5180
 2286SOL     OW 8534   6.998   3.975   0.318 -0.1363 -0.3355  0.1253
 2286SOL    HW1 8535   7.063   4.025   0.367 -0.6409 -0.1957  0.6428
 2286SOL    HW2 8536   6.971   4.033   0.247 -0.5273  0.0247  0.5698
 2287SOL     OW 8537   3.250   9.080   5.339 -0.6165  0.3935  0.0097
 2287SOL    HW1 8538   3.308   9.022   5.290  0.3446  0.3299  1.2015
 2287SOL    HW2 8539   3.196   9.021   5.393 -0.4856  0.5375  0.3029
 2288SOL     OW 8540   1.558   1.750   2.431  0.1688  0.9094  0.3013
 2288SOL    HW1 8541   1.532   1.805   2.505  0.7515 -0.7713  1.8036
 2288SOL    HW2 8542   1.621   1.689   2.469  2.0753  1.3465 -2.0565
 2289SOL     OW 8543   8.049   6.066   6.279  0.5184  0.0087  0.1271
 2289SOL    HW1 8544   8.058   5.970   6.273 -1.6717 -0.3971  2.7790
 2289SOL    HW2 8545   8.000   6.090   6.200  2.3262 -0.8130 -1.3084
 2290SOL     OW 8546   7.030   7.172   1.556 -0.0640  0.4595 -0.0932
 2290SOL    HW1 8547   7.034   7.098   1.616  0.2743  0.3882 -0.2024
 2290SOL    HW2 8548   7.015   7.133   1.470  0.3308  0.5021 -0.1826
 2291SOL     OW 8549   8.504   7.578   7.299  0.1923  0.5302 -0.1087
 2291SOL    HW1 8550   8.424   7.627   7.281  0.3211  1.3899  1.5700
 2291SOL    HW2 8551   8.479   7.486   7.291 -1.1041  0.7760  0.9131
 2292SOL     OW 8552   7.404   0.922   7.545  0.1501 -0.4824  0.1546
 2292SOL    HW1 8553   7.498   0.902   7.546  0.7663  2.1779 -0.3381
 2292SOL    HW2 8554   7.371   0.884   7.626  2.2468  1.0594  1.7994
 2293SOL     OW 8555   0.378   5.375   7.956 -0.8662 -0.1253  0.2679
 2293SOL    HW1 8556   0.439   5.331   8.015  0.6072  1.5283 -0.0034
 2293SOL    HW2 8557   0.336   5.443   8.011 -1.8920 -0.7205  0.2427
 2294SOL     OW 8558   8.685   7.976   5.494  0.3715  0.1972 -0.5077
 2294SOL    HW1 8559   8.705   7.890   5.532  0.1378  1.3365  2.3043
 2294SOL    HW2 8560   8.602   8.001   5.534  0.6497  1.9150 -0.9859
 2295SOL     OW 8561   8.025   0.018   6.013  0.5705  0.1287 -0.2579
 2295SOL    HW1 8562   8.037   0.111   5.993  0.1376  0.2056 -0.1667
 2295SOL    HW2 8563   8.065  -0.028   5.939  0.7983  0.3882 -0.2955
 2296SOL     OW 8564   1.990   6.558   7.190 -0.2275 -0.3670  0.3163
 2296SOL    HW1 8565   2.076   6.587   7.158  0.4284 -2.5355 -0.0014
 2296SOL    HW2 8566   1.945   6.525   7.112 -0.5700 -1.0604  0.8031
 2297SOL     OW 8567   8.125   7.340   5.207  0.1874  0.3296  0.3928
 2297SOL    HW1 8568   8.198   7.372   5.260  0.2963  0.9671 -0.1264
 2297SOL    HW2 8569   8.156   7.350   5.117 -0.3731  0.1902  0.1865
 2298SOL     OW 8570   2.240   8.337   5.732  0.0334 -0.9269 -0.1202
 2298SOL    HW1 8571   2.237   8.329   5.637 -1.3786 -0.9819 -0.0798
 2298SOL    HW2 8572   2.330   8.313   5.755  0.3667 -0.9850 -1.4254
 2299SOL     OW 8573   0.995   8.385   8.590 -0.2034 -0.0578 -0.0733
 2299SOL    HW1 8574   1.043   8.412   8.512  0.2363 -0.2153  0.1415
 2299SOL    HW2 8575   1.057   8.400   8.662 -1.4543  2.5062  0.5510
 2300SOL     OW 8576   1.355   7.913   3.016  0.0242 -0.5092  0.2358
 2300SOL    HW1 8577   1.352   8.000   2.975  1.7741 -0.2769  0.5788
 2300SOL    HW2 8578   1.395   7.928   3.101  1.3611 -1.8212 -0.1499
 2301SOL     OW 8579   1.155   5.725   8.583  0.1567  0.6998  0.3346
 2301SOL    HW1 8580   1.172   5.806   8.534  1.9086 -1.1313 -2.2232
 2301SOL    HW2 8581   1.242   5.692   8.605 -0.5094 -0.8720  0.6760
 2302SOL     OW 8582   7.547   1.600   7.558  0.0594 -0.3739  0.0961
 2302SOL    HW1 8583   7.504   1.526   7.601 -2.0379 -0.1880 -1.5836
 2302SOL    HW2 8584   7.509   1.602   7.470 -1.1175  3.6902  0.5964
 2303SOL     OW 8585   0.116   2.369   6.239 -0.3123  0.2969  0.3266
 2303SOL    HW1 8586   0.139   2.411   6.157 -0.2036  1.4339  0.9384
 2303SOL    HW2 8587   0.075   2.286   6.213  0.3808  0.3176 -0.8454
 2304SOL     OW 8588   6.811   0.663   7.107  0.4228  0.0782  0.0956
 2304SOL    HW1 8589   6.902   0.632   7.105  0.3188 -0.3175  1.0266
 2304SOL    HW2 8590   6.781   0.640   7.195  0.0105  1.8867  0.4338
 2305SOL     OW 8591   6.770   6.619   5.171 -0.4292 -0.0279  0.3391
 2305SOL    HW1 8592   6.759   6.661   5.086  1.4560 -3.5553 -1.7337
 2305SOL    HW2 8593   6.689   6.569   5.184  0.9584 -2.8389 -1.4152
 2306SOL     OW 8594   8.552   3.023   0.509 -0.3000  0.3147  0.5769
 2306SOL    HW1 8595   8.583   3.057   0.593  0.2370  1.3509 -0.0316
 2306SOL    HW2 8596   8.508   3.098   0.468 -0.3280 -0.1169 -0.1808
 2307SOL     OW 8597   7.450   4.665   3.340  0.2319 -0.0215 -0.0205
 2307SOL    HW1 8598   7.494   4.641   3.421  0.9492 -0.9562 -0.6735
 2307SOL    HW2 8599   7.484   4.604   3.275 -0.7848  0.3247 -0.9022
 2308SOL     OW 8600   1.059   0.498   2.609  0.5242 -0.6474  0.1002
 2308SOL    HW1 8601   1.059   0.530   2.699  0.4995 -0.0484 -0.1139
 2308SOL    HW2 8602   1.135   0.439   2.606  0.5842 -0.5974  0.4860
 2309SOL     OW 8603   2.063   1.336   7.048 -0.1568  0.4877 -0.3231
 2309SOL    HW1 8604   2.025   1.388   6.977  1.8844  0.6241 -1.3662
 2309SOL    HW2 8605   2.136   1.289   7.007  1.2413  0.7729  1.7410
 2310SOL     OW 8606   8.575   3.718   2.861  0.4566 -0.2551  0.0120
 2310SOL    HW1 8607   8.568   3.655   2.933 -0.6825 -0.4819 -0.2893
 2310SOL    HW2 8608   8.489   3.717   2.819 -0.2694  2.9969  1.2382
 2311SOL     OW 8609   5.764   4.522   6.122  0.4685 -0.0399 -0.2308
 2311SOL    HW1 8610   5.759   4.472   6.040  0.5227  0.6749 -0.6698
 2311SOL    HW2 8611   5.774   4.613   6.094  0.2033  0.2357  0.5740
 2312SOL     OW 8612   0.397   6.211   7.552 -0.5662  0.3347 -0.6363
 2312SOL    HW1 8613   0.443   6.196   7.469 -0.2471  1.3905 -0.6613
 2312SOL    HW2 8614   0.357   6.127   7.573 -0.3186 -0.0470 -1.6637
 2313SOL     OW 8615   6.866   7.407   6.598  0.0674  0.4573  0.1464
 2313SOL    HW1 8616   6.816   7.326   6.605 -0.5782  0.8616  0.2776
 2313SOL    HW2 8617   6.949   7.381   6.558  0.2345 -0.4183  1.0446
 2314SOL     OW 8618   3.707   6.501   2.543  0.4707  0.1417  0.4378
 2314SOL    HW1 8619   3.647   6.533   2.476  0.6170  1.9951  1.1568
 2314SOL    HW2 8620   3.788   6.482   2.496 -0.0115 -0.3369 -0.1999
 2315SOL     OW 8621   3.616   6.033   0.505 -0.0803 -0.4640  0.2227
 2315SOL    HW1 8622   3.590   5.998   0.590  0.0025  0.1607  0.5066
 2315SOL    HW2 8623   3.701   6.075   0.521 -0.3316  0.1525 -0.0437
 2316SOL     OW 8624   2.085   8.054   1.481  0.0493  0.1919  0.9251
 2316SOL    HW1 8625   2.158   8.012   1.435  0.9419  0.4664  2.0859
 2316SOL    HW2 8626   2.023   8.077   1.411  1.5970  1.0332 -0.2007
 2317SOL     OW 8627   8.380   6.916   8.708 -0.1740  0.0599  0.1564
 2317SOL    HW1 8628   8.318   6.953   8.772 -1.4491 -0.2565 -0.8852
 2317SOL    HW2 8629   8.354   6.955   8.625  1.8804  0.9519 -0.0952
 2318SOL     OW 8630   3.506   6.602   5.887 -0.1674  0.4654 -0.4021
 2318SOL    HW1 8631   3.490   6.567   5.799  1.6650 -1.1284 -0.1397
 2318SOL    HW2 8632   3.538   6.691   5.872  1.6303 -0.3307 -1.4575
 2319SOL     OW 8633   1.992   7.140   9.154 -0.0946 -0.3158 -0.0379
 2319SOL    HW1 8634   1.975   7.154   9.247  0.8577  0.3886  0.0413
 2319SOL    HW2 8635   2.044   7.216   9.127 -0.4671 -0.4426 -1.1783
 2320SOL     OW 8636   4.016   1.384   6.351 -0.4788 -0.0602 -0.2131
 2320SOL    HW1 8637   4.108   1.390   6.324 -0.1313 -2.1042  0.4048
 2320SOL    HW2 8638   3.992   1.293   6.332 -1.2484 -0.5888  2.9758
 2321SOL     OW 8639   0.924   5.245   5.232  0.0151 -0.6241  0.0790
 2321SOL    HW1 8640   0.910   5.338   5.217  1.4081  0.1389  3.0339
 2321SOL    HW2 8641   0.837   5.209   5.250 -0.5194  0.1111 -1.0586
 2322SOL     OW 8642   3.391   2.585   2.836 -0.2260 -0.1004  0.3090
 2322SOL    HW1 8643   3.396   2.630   2.921 -0.2247 -0.9294  0.7584
 2322SOL    HW2 8644   3.438   2.642   2.776  2.9634 -1.2221  1.6273
 2323SOL     OW 8645   0.289   8.918   2.885 -0.3428  0.2656  0.4462
 2323SOL    HW1 8646   0.348   8.865   2.939  0.0096  1.4284  1.2146
 2323SOL    HW2 8647   0.336   8.928   2.802 -0.1330 -0.0913  0.5195
 2324SOL     OW 8648   7.108   1.038   4.561 -0.1990  0.3681  0.4707
 2324SOL    HW1 8649   7.089   1.129   4.586 -0.6246  0.6129 -0.7189
 2324SOL    HW2 8650   7.092   0.988   4.641 -2.8225  0.9619  0.3717
 2325SOL     OW 8651   9.069   2.549   2.279 -0.0472  0.4291 -0.4417
 2325SOL    HW1 8652   9.044   2.457   2.294  0.9352 -0.1576 -2.3239
 2325SOL    HW2 8653   9.056   2.562   2.186 -0.4082  2.3004 -0.1415
 2326SOL     OW 8654   9.260   5.587   1.703 -0.0116 -0.4957  0.0341
 2326SOL    HW1 8655   9.315   5.658   1.671 -2.1877  1.2013 -0.0837
 2326SOL    HW2 8656   9.322   5.525   1.741  2.1593  0.1722 -2.2249
 2327SOL     OW 8657   8.747   5.993   7.285  0.0453 -0.8375 -0.5251
 2327SOL    HW1 8658   8.657   5.974   7.261  0.1501 -1.0357 -0.7557
 2327SOL    HW2 8659   8.754   5.965   7.376 -0.0621 -1.0316 -0.5763
 2328SOL     OW 8660   1.942   6.633   5.672 -0.6459 -0.0496  0.6996
 2328SOL    HW1 8661   2.016   6.678   5.632 -0.1075 -2.2472 -0.9069
 2328SOL    HW2 8662   1.881   6.617   5.599 -1.7310 -0.1563  1.6045
 2329SOL     OW 8663   8.557   6.570   1.654  0.2720 -0.4986 -0.4313
 2329SOL    HW1 8664   8.527   6.614   1.574 -0.2946 -0.4551 -0.2005
 2329SOL    HW2 8665   8.488   6.506   1.673 -0.6349  0.9052  1.1817
 2330SOL     OW 8666   1.000   5.503   6.750  0.1417  0.5745  0.6359
 2330SOL    HW1 8667   1.031   5.592   6.733  1.4923  0.3692  1.8662
 2330SOL    HW2 8668   1.064   5.447   6.706 -0.3801  0.2004  0.3476
 2331SOL     OW 8669   0.194   2.417   4.682  0.0779 -0.8416 -0.2279
 2331SOL    HW1 8670   0.230   2.336   4.719  1.9097  0.5280  1.0999
 2331SOL    HW2 8671   0.200   2.480   4.753 -2.3237  0.2208 -0.9289
 2332SOL     OW 8672   6.738   4.910   9.172  0.8462  0.1215  0.3602
 2332SOL    HW1 8673   6.809   4.964   9.206  2.0586 -2.2272  1.6344
 2332SOL    HW2 8674   6.659   4.942   9.216  1.2931  1.8533 -0.0732
 2333SOL     OW 8675   5.614   3.005   7.171 -0.2245  0.7334  0.0686
 2333SOL    HW1 8676   5.628   2.922   7.217  2.5080  1.3735  0.5124
 2333SOL    HW2 8677   5.563   2.982   7.093  0.3771 -1.3461  0.2737
 2334SOL     OW 8678   5.081   0.366   0.390 -1.0826 -0.2285 -0.3127
 2334SOL    HW1 8679   5.034   0.306   0.333 -0.0714  1.7350 -3.3221
 2334SOL    HW2 8680   5.023   0.443   0.397 -1.5465 -0.7499  1.9820
 2335SOL     OW 8681   5.299   0.116   7.879 -0.4019 -0.3209  0.2578
 2335SOL    HW1 8682   5.344   0.072   7.807 -1.7633  1.0194 -1.4847
 2335SOL    HW2 8683   5.365   0.174   7.917 -0.3741  0.9801 -1.6997
 2336SOL     OW 8684   2.142   7.315   6.394  0.1531  0.2396  0.2834
 2336SOL    HW1 8685   2.091   7.313   6.475 -0.5506 -2.5007 -0.1968
 2336SOL    HW2 8686   2.095   7.376   6.337 -0.8688  0.0789  0.9537
 2337SOL     OW 8687   8.784   5.000   1.345  0.0242 -0.2692 -0.8179
 2337SOL    HW1 8688   8.731   4.928   1.309  0.6013 -1.4026  0.5673
 2337SOL    HW2 8689   8.848   5.019   1.277  0.3124 -1.5514 -0.9090
 2338SOL     OW 8690   0.033   8.324   4.501 -0.5569  0.2575  0.0995
 2338SOL    HW1 8691  -0.035   8.388   4.479 -0.1651  0.6160 -0.0576
 2338SOL    HW2 8692   0.064   8.291   4.417 -0.0192  0.6365  0.1464
 2339SOL     OW 8693   4.936   2.610   8.035  0.2108 -0.4055 -0.2851
 2339SOL    HW1 8694   4.875   2.666   7.986 -0.8882 -0.9153  0.4940
 2339SOL    HW2 8695   5.023   2.645   8.013 -0.2080 -1.0254 -3.1023
 2340SOL     OW 8696   6.497   2.879   1.423  0.2087 -0.3859  0.2546
 2340SOL    HW1 8697   6.455   2.927   1.352 -1.9965  0.5962  2.1465
 2340SOL    HW2 8698   6.538   2.947   1.477  1.5497 -1.0834  0.1355
 2341SOL     OW 8699   5.581   3.259   9.220 -0.0379  0.2814 -0.2581
 2341SOL    HW1 8700   5.495   3.283   9.187  0.1060 -1.5302 -2.0541
 2341SOL    HW2 8701   5.606   3.183   9.168  1.5699 -0.7465  1.9585
 2342SOL     OW 8702   5.001   7.088   6.951 -0.4799 -0.1644 -0.2588
 2342SOL    HW1 8703   5.070   7.067   7.014  1.2808  0.5508 -1.8984
 2342SOL    HW2 8704   4.998   7.012   6.893 -0.3774  0.2335 -0.7848
 2343SOL     OW 8705   4.839   8.241   3.430  0.2461 -0.2729 -0.2253
 2343SOL    HW1 8706   4.790   8.294   3.493  0.0785 -1.6047  0.7895
 2343SOL    HW2 8707   4.926   8.281   3.428  0.2714 -0.2409  0.9231
 2344SOL     OW 8708   7.830   0.024   1.332  0.4498 -0.0762 -0.0761
 2344SOL    HW1 8709   7.906  -0.034   1.327 -0.5158 -1.1895 -2.1081
 2344SOL    HW2 8710   7.765  -0.026   1.382  0.7093  0.5310  0.8953
 2345SOL     OW 8711   3.003   1.307   4.508 -0.3001  0.0263  0.5893
 2345SOL    HW1 8712   2.929   1.351   4.549 -0.6190  0.5760 -0.5535
 2345SOL    HW2 8713   2.977   1.215   4.503 -0.4234  0.0244  1.2357
 2346SOL     OW 8714   7.295   8.251   8.594 -0.1134  0.6599 -0.5937
 2346SOL    HW1 8715   7.201   8.268   8.585 -0.5796 -0.3467  1.8155
 2346SOL    HW2 8716   7.326   8.320   8.652  0.2802 -0.0200  0.0056
 2347SOL     OW 8717   6.597   8.304   2.057 -0.3785 -0.0970  0.1816
 2347SOL    HW1 8718   6.644   8.227   2.087  1.5723  0.1517 -2.1417
 2347SOL    HW2 8719   6.521   8.310   2.115 -0.5785 -3.7707  0.3581
 2348SOL     OW 8720   7.479   4.073   3.006 -0.9453  0.6304 -0.2060
 2348SOL    HW1 8721   7.499   4.105   2.918 -0.3137  1.4559  0.2319
 2348SOL    HW2 8722   7.468   4.152   3.059  0.8321  0.1472  0.9412
 2349SOL     OW 8723   1.145   5.347   9.032 -0.4436  0.2027  0.2932
 2349SOL    HW1 8724   1.163   5.434   9.069  1.1931  0.2352 -0.5257
 2349SOL    HW2 8725   1.096   5.366   8.951  2.0055  0.5435 -1.1706
 2350SOL     OW 8726   0.169   0.623   4.607  0.0483 -0.4942 -0.4898
 2350SOL    HW1 8727   0.214   0.646   4.525 -1.1049 -0.3391 -1.0941
 2350SOL    HW2 8728   0.235   0.636   4.675  0.1263  2.4781 -1.0395
 2351SOL     OW 8729   4.642   7.458   8.136 -0.4850  0.1590  0.0719
 2351SOL    HW1 8730   4.729   7.419   8.136 -0.5688 -0.1342  3.6829
 2351SOL    HW2 8731   4.590   7.400   8.079  1.7378  0.6591 -2.5597
 2352SOL     OW 8732   7.510   4.470   5.851  0.5867 -0.5392 -1.2582
 2352SOL    HW1 8733   7.561   4.491   5.773 -0.5339 -1.1485 -2.1626
 2352SOL    HW2 8734   7.448   4.542   5.860  2.5722  1.0040  0.7341
 2353SOL     OW 8735   4.406   3.673   7.083 -0.1911 -0.5648 -0.4483
 2353SOL    HW1 8736   4.432   3.765   7.085 -2.4603  0.1267 -0.5474
 2353SOL    HW2 8737   4.390   3.655   6.990  1.3573 -1.4030 -0.5633
 2354SOL     OW 8738   4.146   5.311   1.158 -0.7921  0.4765  0.3617
 2354SOL    HW1 8739   4.157   5.231   1.107 -2.6591 -0.5232  1.4812
 2354SOL    HW2 8740   4.180   5.290   1.245  1.0376  1.7224 -0.0088
 2355SOL     OW 8741   8.074   7.161   0.364  0.4743 -0.3320 -0.0434
 2355SOL    HW1 8742   8.134   7.150   0.438 -0.5550  3.0310  1.3653
 2355SOL    HW2 8743   8.023   7.080   0.362  2.7329 -1.8410  0.8191
 2356SOL     OW 8744   8.923   9.102   5.736  0.1238  0.2423  0.5011
 2356SOL    HW1 8745   8.942   9.193   5.758 -1.7683  1.2236 -1.6722
 2356SOL    HW2 8746   8.992   9.079   5.673  1.5256 -0.3640  2.2275
 2357SOL     OW 8747   3.046   5.548   1.616 -0.3921 -0.4333 -0.4959
 2357SOL    HW1 8748   2.986   5.621   1.630 -0.6956 -0.5315 -1.2344
 2357SOL    HW2 8749   2.992   5.481   1.572  0.7414  0.2615 -3.0510
 2358SOL     OW 8750   2.926   0.002   7.421  0.1273 -0.4663 -0.1713
 2358SOL    HW1 8751   2.991   0.012   7.352  1.6471 -2.8895  0.8403
 2358SOL    HW2 8752   2.856  -0.050   7.381 -1.4294  2.4515 -1.3713
 2359SOL     OW 8753   1.606   7.718   4.321 -0.1952  0.2639 -0.3284
 2359SOL    HW1 8754   1.653   7.721   4.238  0.3200 -1.2001 -0.0990
 2359SOL    HW2 8755   1.517   7.691   4.297 -0.8943  2.7541 -0.7267
 2360SOL     OW 8756   0.405   4.703   1.113  0.3214 -0.4044  0.4940
 2360SOL    HW1 8757   0.420   4.798   1.114  1.8868 -0.5649 -2.3704
 2360SOL    HW2 8758   0.491   4.666   1.133  0.0752 -1.2526 -0.0162
 2361SOL     OW 8759   1.505   4.151   1.068  0.3415 -0.0207  0.3733
 2361SOL    HW1 8760   1.542   4.222   1.120  0.1939 -0.9088  1.7358
 2361SOL    HW2 8761   1.503   4.076   1.128  0.3435 -1.1286 -0.9795
 2362SOL     OW 8762   3.222   6.946   2.980  0.5529 -0.3160  0.0993
 2362SOL    HW1 8763   3.197   7.037   2.993 -4.3241 -1.4565 -0.1344
 2362SOL    HW2 8764   3.239   6.939   2.886 -0.5108  0.0544 -0.1221
 2363SOL     OW 8765   2.879   3.382   2.645  0.2119 -0.5414 -0.4424
 2363SOL    HW1 8766   2.949   3.318   2.653  1.0240  0.1485 -1.8869
 2363SOL    HW2 8767   2.866   3.393   2.551  0.1929  1.5127 -0.2269
 2364SOL     OW 8768   6.880   7.438   0.556  0.0353  0.0674 -0.3581
 2364SOL    HW1 8769   6.954   7.394   0.514 -0.1917  0.5776 -1.3252
 2364SOL    HW2 8770   6.820   7.458   0.484  0.6414  2.9732 -0.1491
 2365SOL     OW 8771   3.650   0.949   7.409  0.1440  0.0857 -0.4662
 2365SOL    HW1 8772   3.729   0.898   7.389  0.9445  1.4313 -0.8368
 2365SOL    HW2 8773   3.583   0.915   7.349  0.5684 -0.7658 -0.4565
 2366SOL     OW 8774   7.305   0.960   3.885 -0.6995 -0.2773  0.8152
 2366SOL    HW1 8775   7.390   0.917   3.870 -1.6551 -2.1044  0.5316
 2366SOL    HW2 8776   7.318   1.050   3.852  1.0516 -0.5926  0.5821
 2367SOL     OW 8777   2.439   0.250   0.796 -0.2818  0.3933  0.1171
 2367SOL    HW1 8778   2.359   0.204   0.770 -0.0101 -0.0332  0.0296
 2367SOL    HW2 8779   2.509   0.187   0.781  0.2589  1.3057 -1.3395
 2368SOL     OW 8780   1.377   0.125   2.779 -0.1442  0.1213 -0.4637
 2368SOL    HW1 8781   1.389   0.043   2.732  2.8056  0.4605 -0.3725
 2368SOL    HW2 8782   1.402   0.105   2.869  2.6705  1.6193 -0.8714
 2369SOL     OW 8783   6.038   0.997   8.421 -0.5940 -0.1828  0.4916
 2369SOL    HW1 8784   5.973   0.977   8.353  0.0343  1.0185 -0.4662
 2369SOL    HW2 8785   6.105   1.049   8.377 -0.0661  0.4346  1.9768
 2370SOL     OW 8786   1.538   2.977   4.362 -0.6432 -0.1349 -0.7132
 2370SOL    HW1 8787   1.611   3.007   4.308 -0.2943  0.4098  0.0568
 2370SOL    HW2 8788   1.554   2.883   4.374  0.4988  0.1816  0.3150
 2371SOL     OW 8789   3.039   3.661   2.989  0.5678  0.1610 -0.0537
 2371SOL    HW1 8790   3.065   3.569   2.982  3.8444  0.9811  0.2909
 2371SOL    HW2 8791   3.039   3.679   3.082  1.0666  0.7660 -0.1621
 2372SOL     OW 8792   8.882   1.348   5.643 -0.4232 -0.4593 -0.3274
 2372SOL    HW1 8793   8.802   1.305   5.616 -0.4342 -0.0766 -0.9165
 2372SOL    HW2 8794   8.929   1.367   5.562 -0.5743  0.9212 -0.1123
 2373SOL     OW 8795   4.255   1.341   3.250 -0.0801 -0.4250 -0.9522
 2373SOL    HW1 8796   4.287   1.425   3.219 -0.3149  0.0081 -0.0344
 2373SOL    HW2 8797   4.242   1.353   3.344 -1.8633 -0.9422 -1.1152
 2374SOL     OW 8798   5.712   4.739   8.954  0.0776  0.5796  0.3318
 2374SOL    HW1 8799   5.626   4.704   8.976 -0.5814  2.7250  1.3194
 2374SOL    HW2 8800   5.693   4.822   8.910  1.6274  0.7387 -0.0493
 2375SOL     OW 8801   3.864   6.032   3.152  0.0914 -0.6135  0.6107
 2375SOL    HW1 8802   3.926   6.096   3.119 -0.2669 -1.2019 -1.2660
 2375SOL    HW2 8803   3.882   6.026   3.246  0.9963  1.2499  0.5681
 2376SOL     OW 8804   1.096   2.511   1.812  0.1433  0.5568  0.4757
 2376SOL    HW1 8805   1.058   2.431   1.849  0.5237  0.8223  1.4638
 2376SOL    HW2 8806   1.021   2.567   1.793 -0.1846 -0.4002 -1.1034
 2377SOL     OW 8807   1.470   6.330   8.401  0.1962  0.0408  0.2144
 2377SOL    HW1 8808   1.562   6.330   8.374 -0.0911 -2.6439 -0.8967
 2377SOL    HW2 8809   1.421   6.341   8.319 -0.5248 -0.3652  0.5831
 2378SOL     OW 8810   5.626   6.570   5.384 -0.3039 -0.3511 -0.2368
 2378SOL    HW1 8811   5.579   6.580   5.301 -0.2954  0.0170 -0.1972
 2378SOL    HW2 8812   5.715   6.546   5.358 -0.0935  0.5688 -0.3529
 2379SOL     OW 8813   2.681   1.198   7.270  0.0799  0.2179  0.6571
 2379SOL    HW1 8814   2.770   1.191   7.303  0.6167 -0.5038 -0.8783
 2379SOL    HW2 8815   2.632   1.239   7.341  2.0104  2.2595  0.8604
 2380SOL     OW 8816   7.877   2.641   3.302  0.3739  0.3270 -0.4827
 2380SOL    HW1 8817   7.841   2.730   3.300 -1.6762 -0.3894  1.3524
 2380SOL    HW2 8818   7.814   2.591   3.354  1.1713 -2.3559 -1.9572
 2381SOL     OW 8819   5.521   8.630   5.216  0.0888  0.4163  0.8201
 2381SOL    HW1 8820   5.589   8.649   5.281  1.9231  1.4788 -1.3290
 2381SOL    HW2 8821   5.470   8.711   5.211  0.3444  0.5592  0.4930
 2382SOL     OW 8822   6.085   6.159   1.550  0.3597 -0.2527 -0.3253
 2382SOL    HW1 8823   5.998   6.120   1.539 -0.3811  1.2669 -0.0233
 2382SOL    HW2 8824   6.092   6.223   1.478  0.3543  1.1346  0.8828
 2383SOL     OW 8825   5.637   6.055   8.364 -0.0667 -0.2408  0.2586
 2383SOL    HW1 8826   5.583   5.977   8.367  0.3584 -0.6590 -2.1068
 2383SOL    HW2 8827   5.715   6.029   8.315  0.3522  1.4914 -0.0421
 2384SOL     OW 8828   0.777   5.224   7.869 -0.0494  0.3828 -0.7015
 2384SOL    HW1 8829   0.773   5.171   7.949  2.9751 -0.1754 -0.8821
 2384SOL    HW2 8830   0.704   5.192   7.816 -1.2417 -0.2036  1.2242
 2385SOL     OW 8831   6.592   8.651   5.298 -0.0282  0.3075 -0.0788
 2385SOL    HW1 8832   6.673   8.618   5.260 -0.3527 -0.9863  0.3282
 2385SOL    HW2 8833   6.600   8.746   5.293  0.6445  0.1801 -1.8699
 2386SOL     OW 8834   5.288   2.776   2.289 -0.3461  0.7913 -0.1492
 2386SOL    HW1 8835   5.360   2.765   2.351 -1.4597  1.3994  1.2794
 2386SOL    HW2 8836   5.211   2.744   2.335 -1.0657  0.5221 -1.5165
 2387SOL     OW 8837   8.591   5.101   1.490  0.1019 -0.0946 -0.3364
 2387SOL    HW1 8838   8.597   5.058   1.576  0.3893 -0.8618 -0.7315
 2387SOL    HW2 8839   8.668   5.068   1.442 -0.9476 -0.9576 -1.4578
 2388SOL     OW 8840   8.381   5.854   6.162 -0.5110  0.3659  0.5617
 2388SOL    HW1 8841   8.422   5.779   6.119  0.0918  0.2136  1.4009
 2388SOL    HW2 8842   8.418   5.930   6.117 -0.9682  0.1770 -0.1487
 2389SOL     OW 8843   4.768   7.698   4.380  0.4009  0.1037 -0.1224
 2389SOL    HW1 8844   4.691   7.677   4.327  0.2430  0.6811 -0.1155
 2389SOL    HW2 8845   4.733   7.726   4.464  0.6443 -0.4628  0.1739
 2390SOL     OW 8846   4.929   1.663   6.606  0.4314 -0.1184  0.2937
 2390SOL    HW1 8847   4.999   1.691   6.548 -0.0503  0.8285  0.1590
 2390SOL    HW2 8848   4.932   1.725   6.679  0.4472 -0.7515  0.8422
 2391SOL     OW 8849   1.164   6.427   5.645  0.1947 -1.3711 -0.6517
 2391SOL    HW1 8850   1.222   6.372   5.698  1.6832 -0.3464 -1.1892
 2391SOL    HW2 8851   1.162   6.511   5.692 -0.1160 -1.1160 -1.1197
 2392SOL     OW 8852   8.386   6.055   3.127 -0.2178 -0.6152  0.2950
 2392SOL    HW1 8853   8.361   5.986   3.066 -2.0423  0.1888  0.0811
 2392SOL    HW2 8854   8.304   6.102   3.144  0.8707  1.1319  0.8699
 2393SOL     OW 8855   8.391   6.043   4.835  0.1662  0.5524  0.1616
 2393SOL    HW1 8856   8.297   6.028   4.847 -0.2247  1.4885 -1.5468
 2393SOL    HW2 8857   8.396   6.121   4.779  1.9545  0.2489 -0.1343
 2394SOL     OW 8858   7.911   0.769   4.471 -0.6338 -0.9890 -0.5482
 2394SOL    HW1 8859   7.902   0.829   4.398  0.0941 -1.3244 -0.9130
 2394SOL    HW2 8860   7.972   0.702   4.441  0.8153 -0.3480  0.8584
 2395SOL     OW 8861   8.407   5.133   3.162 -0.6087 -0.7596  0.5264
 2395SOL    HW1 8862   8.352   5.069   3.209 -2.3190  1.7670  2.0882
 2395SOL    HW2 8863   8.386   5.217   3.204  0.1589  1.1238 -2.7395
 2396SOL     OW 8864   2.634   3.958   9.255  0.6405  0.1005 -0.3344
 2396SOL    HW1 8865   2.706   3.995   9.203  1.5917 -2.3383 -0.8234
 2396SOL    HW2 8866   2.675   3.890   9.308 -0.5178  1.7681  2.8456
 2397SOL     OW 8867   3.825   9.152   7.710 -0.1665 -0.3094 -0.2947
 2397SOL    HW1 8868   3.796   9.238   7.740 -2.0279 -0.8145 -0.6121
 2397SOL    HW2 8869   3.863   9.168   7.624  0.4189  0.3253  0.0659
 2398SOL     OW 8870   0.443   8.143   5.401 -0.8599 -0.1953  0.1797
 2398SOL    HW1 8871   0.402   8.219   5.361  0.0348 -0.6405 -1.6044
 2398SOL    HW2 8872   0.421   8.070   5.343  0.4329 -0.8673  0.5170
 2399SOL     OW 8873   7.165   5.441   0.227  0.1241 -0.2148  0.5423
 2399SOL    HW1 8874   7.151   5.470   0.317  0.0030 -0.7768  0.7034
 2399SOL    HW2 8875   7.111   5.500   0.174 -0.6765 -0.5994  0.9274
 2400SOL     OW 8876   8.202   3.883   4.635  0.1812 -0.3028  0.0651
 2400SOL    HW1 8877   8.290   3.915   4.616  0.6487  0.1315  2.7512
 2400SOL    HW2 8878   8.172   3.938   4.707 -1.1419 -2.3406  1.1103
 2401SOL     OW 8879   2.036   6.535   0.516 -0.4301  0.3660 -0.4805
 2401SOL    HW1 8880   1.952   6.504   0.550  0.0610 -0.0446  0.3840
 2401SOL    HW2 8881   2.020   6.551   0.423 -1.4285  0.1716 -0.3468
 2402SOL     OW 8882   2.932   6.924   1.343  0.0379 -0.4751  0.2561
 2402SOL    HW1 8883   2.910   7.008   1.302  2.8384 -0.6463 -1.7530
 2402SOL    HW2 8884   2.945   6.946   1.435  0.2249  1.2105 -0.1432
 2403SOL     OW 8885   5.672   0.762   7.594 -0.3142 -0.1037 -0.0311
 2403SOL    HW1 8886   5.620   0.692   7.634  1.5759 -0.9977  0.9754
 2403SOL    HW2 8887   5.659   0.752   7.500 -1.1999 -0.9017  0.1756
 2404SOL     OW 8888   8.008   1.698   7.082 -0.5377  0.3684  0.6341
 2404SOL    HW1 8889   8.077   1.698   7.149 -1.8631  0.8379  2.0351
 2404SOL    HW2 8890   7.963   1.615   7.093  0.4142 -0.3888 -0.9628
 2405SOL     OW 8891   8.841   2.502   5.629 -1.0380  0.2053 -0.4879
 2405SOL    HW1 8892   8.752   2.488   5.598 -1.0427 -1.0969  0.0391
 2405SOL    HW2 8893   8.839   2.588   5.670 -2.0784  0.1599 -0.4173
 2406SOL     OW 8894   2.231   6.128   3.282  0.6990 -0.1478  0.6395
 2406SOL    HW1 8895   2.284   6.185   3.338 -1.5316  1.1759  1.4621
 2406SOL    HW2 8896   2.144   6.130   3.322 -0.2766 -1.3079 -1.3800
 2407SOL     OW 8897   3.416   8.919   3.967  0.1687  0.2323  0.6852
 2407SOL    HW1 8898   3.463   8.858   3.910 -1.0375  0.1945 -0.3001
 2407SOL    HW2 8899   3.478   8.991   3.982  0.0235  0.9191 -1.8321
 2408SOL     OW 8900   2.809   4.823   7.893 -0.1103 -0.2170  0.3226
 2408SOL    HW1 8901   2.757   4.890   7.936  0.2670  0.9744 -1.0372
 2408SOL    HW2 8902   2.881   4.806   7.953 -3.3331 -3.7697  3.4709
 2409SOL     OW 8903   8.497   2.993   1.817  0.5304  0.1032  0.2544
 2409SOL    HW1 8904   8.428   3.055   1.793 -1.4430 -1.9522  0.5111
 2409SOL    HW2 8905   8.568   3.011   1.755 -1.1567  0.6801 -1.5488
 2410SOL     OW 8906   6.360   7.448   9.129 -0.3324  0.3553  0.0326
 2410SOL    HW1 8907   6.330   7.359   9.111 -0.0434  0.9880 -4.1605
 2410SOL    HW2 8908   6.453   7.447   9.106 -0.7500  2.1523 -1.8412
 2411SOL     OW 8909   0.347   1.387   2.894 -0.3048 -0.0969 -0.6866
 2411SOL    HW1 8910   0.408   1.318   2.867  0.4360 -0.2418  1.2774
 2411SOL    HW2 8911   0.268   1.340   2.922 -0.0208 -0.1064  0.0905
 2412SOL     OW 8912   2.089   0.220   5.446  0.0344  0.2216  0.8976
 2412SOL    HW1 8913   2.157   0.250   5.506 -1.1044  0.2466  2.1878
 2412SOL    HW2 8914   2.086   0.287   5.378  0.5755  0.7646  1.4026
 2413SOL     OW 8915   9.091   2.709   6.135 -0.2209  0.4998  0.1803
 2413SOL    HW1 8916   9.073   2.703   6.042  0.0102 -1.5929  0.2342
 2413SOL    HW2 8917   9.185   2.730   6.141  0.1935 -1.2173 -0.0696
 2414SOL     OW 8918   8.757   6.613   2.978 -0.3420 -0.5637  0.3723
 2414SOL    HW1 8919   8.816   6.639   2.907 -0.7288 -1.6234 -0.3714
 2414SOL    HW2 8920   8.691   6.682   2.980 -0.2196 -0.4212 -0.1863
 2415SOL     OW 8921   4.891   4.952   4.715 -0.2024  0.8482 -0.0675
 2415SOL    HW1 8922   4.923   4.955   4.805 -1.2679  2.2373  0.2813
 2415SOL    HW2 8923   4.944   4.884   4.673 -0.7927 -0.9850  2.0350
 2416SOL     OW 8924   2.641   4.575   4.384 -0.8605  0.0085 -0.0711
 2416SOL    HW1 8925   2.734   4.598   4.389 -0.5585 -1.0457 -0.6527
 2416SOL    HW2 8926   2.602   4.647   4.334 -0.1247 -0.1864 -0.9368
 2417SOL     OW 8927   5.367   1.150   0.052  0.1407  0.1596  0.2444
 2417SOL    HW1 8928   5.451   1.180   0.085 -0.0525  2.3996 -1.1499
 2417SOL    HW2 8929   5.389   1.083  -0.013  0.8465  0.5043  0.1264
 2418SOL     OW 8930   5.471   6.234   3.220  0.1407 -0.0466  0.0052
 2418SOL    HW1 8931   5.562   6.253   3.199  0.5083 -0.3825  1.2422
 2418SOL    HW2 8932   5.438   6.315   3.259  0.3302 -0.3978  0.8949
 2419SOL     OW 8933   4.784   9.245   9.220  0.5081  0.7108 -0.4445
 2419SOL    HW1 8934   4.706   9.265   9.272 -0.8100 -1.7587 -1.4191
 2419SOL    HW2 8935   4.776   9.302   9.143  0.0754  1.0144 -0.1806
 2420SOL     OW 8936   5.911   4.686   3.082 -0.1477  0.3598 -0.0232
 2420SOL    HW1 8937   5.833   4.740   3.094 -0.5712 -0.0739 -0.8035
 2420SOL    HW2 8938   5.895   4.638   3.001 -0.1754 -1.5984  1.1223
 2421SOL     OW 8939   3.213   6.259   5.129  0.2246  0.0586 -0.4054
 2421SOL    HW1 8940   3.156   6.238   5.055  0.5814 -1.1152 -0.3587
 2421SOL    HW2 8941   3.213   6.179   5.182  0.1746  0.8013  0.7314
 2422SOL     OW 8942   4.867   6.321   6.202 -0.6024 -0.2418  0.2993
 2422SOL    HW1 8943   4.930   6.392   6.194 -0.2255 -0.7052 -0.9771
 2422SOL    HW2 8944   4.827   6.315   6.115 -1.0685 -1.1894  0.5751
 2423SOL     OW 8945   6.206   6.810   0.492 -0.2172  0.4326 -0.2491
 2423SOL    HW1 8946   6.133   6.773   0.442 -0.5381 -0.4331  0.8405
 2423SOL    HW2 8947   6.164   6.859   0.562  0.2323  1.3881 -0.6472
 2424SOL     OW 8948   3.985   7.467   7.965  0.1589 -0.1547  0.6647
 2424SOL    HW1 8949   4.056   7.412   7.932  0.3965  0.5359  0.0132
 2424SOL    HW2 8950   4.028   7.538   8.012 -0.1359 -0.2878  1.1409
 2425SOL     OW 8951   6.065   4.840   7.280 -0.1773 -0.2780  0.5819
 2425SOL    HW1 8952   6.156   4.848   7.251 -0.4916  1.6855  0.0484
 2425SOL    HW2 8953   6.014   4.864   7.203 -1.1475 -1.2220  0.9274
 2426SOL     OW 8954   0.358   7.864   8.892 -0.3501 -0.1964  0.2290
 2426SOL    HW1 8955   0.303   7.793   8.926 -0.4852 -0.1922  0.0167
 2426SOL    HW2 8956   0.324   7.942   8.935 -0.9846 -0.0884 -0.4472
 2427SOL     OW 8957   7.916   8.226   0.392  0.0482  0.5095  0.4966
 2427SOL    HW1 8958   7.876   8.222   0.305 -0.1235  1.2341  0.5339
 2427SOL    HW2 8959   7.896   8.141   0.431 -0.0532  0.2529 -0.0934
 2428SOL     OW 8960   3.367   6.980   1.554  0.1530  1.0500 -0.0489
 2428SOL    HW1 8961   3.385   7.047   1.488  0.7205  0.6271 -0.3286
 2428SOL    HW2 8962   3.419   6.905   1.526 -0.2378  0.5987  0.4377
 2429SOL     OW 8963   8.330   1.671   0.350 -0.0556 -0.3567 -0.5862
 2429SOL    HW1 8964   8.290   1.590   0.320 -1.0299 -0.0019 -0.2669
 2429SOL    HW2 8965   8.299   1.737   0.288 -0.1842 -0.0338 -0.1814
 2430SOL     OW 8966   6.300   2.531   3.104 -0.0154 -0.4702 -0.4574
 2430SOL    HW1 8967   6.311   2.625   3.118  0.8357 -0.5034 -0.8460
 2430SOL    HW2 8968   6.248   2.524   3.025 -0.5522 -0.3185 -0.1142
 2431SOL     OW 8969   1.229   3.675   4.253 -0.1082 -0.2810 -0.3190
 2431SOL    HW1 8970   1.174   3.743   4.293  0.5397 -0.2264  0.4968
 2431SOL    HW2 8971   1.286   3.723   4.193 -0.3214 -0.2240 -0.4759
 2432SOL     OW 8972   9.163   8.605   9.105  0.1941 -0.0096 -0.1347
 2432SOL    HW1 8973   9.254   8.593   9.132  0.5699  1.2728 -0.8026
 2432SOL    HW2 8974   9.159   8.562   9.019  0.1761 -0.0589 -0.1103
 2433SOL     OW 8975   5.005   4.878   6.409 -0.1381 -0.0119  0.5689
 2433SOL    HW1 8976   5.013   4.862   6.315 -1.2117 -0.5463  0.5683
 2433SOL    HW2 8977   5.094   4.904   6.436 -0.0948  1.3600 -0.8076
 2434SOL     OW 8978   7.063   4.851   5.909 -0.5088  0.3727  0.4097
 2434SOL    HW1 8979   7.016   4.795   5.848  1.8870  0.0101 -1.1762
 2434SOL    HW2 8980   7.042   4.940   5.881 -1.7741  0.2519  0.9425
 2435SOL     OW 8981   5.725   6.756   7.780 -0.5054 -0.6168  0.3900
 2435SOL    HW1 8982   5.651   6.794   7.733  0.3349  0.0820 -0.3962
 2435SOL    HW2 8983   5.766   6.830   7.824 -0.2952 -1.0111  0.8688
 2436SOL     OW 8984   1.191   7.117   8.107  0.2145 -0.0189  0.6028
 2436SOL    HW1 8985   1.196   7.099   8.200  1.0784 -0.5900  0.4438
 2436SOL    HW2 8986   1.225   7.206   8.097 -0.1120  0.1369  0.8517
 2437SOL     OW 8987   7.147   5.276   6.969  0.2221  0.7415  0.3517
 2437SOL    HW1 8988   7.210   5.275   7.041 -0.7765 -1.7558  1.2422
 2437SOL    HW2 8989   7.069   5.234   7.004  0.3741 -2.3753 -2.6668
 2438SOL     OW 8990   4.713   5.310   0.341 -0.2376 -0.4223 -0.3189
 2438SOL    HW1 8991   4.743   5.372   0.407 -0.7067  0.6824 -1.1316
 2438SOL    HW2 8992   4.758   5.228   0.363  0.1581  0.1164  0.9323
 2439SOL     OW 8993   3.757   6.829   3.546 -0.2070  0.1679  0.2685
 2439SOL    HW1 8994   3.706   6.910   3.546  0.8857  0.9033 -1.2152
 2439SOL    HW2 8995   3.831   6.848   3.487 -0.6782 -2.3810 -1.2225
 2440SOL     OW 8996   0.981   5.804   3.451  0.3255 -0.3048  0.1237
 2440SOL    HW1 8997   1.059   5.843   3.492  0.6215  1.3346 -1.9070
 2440SOL    HW2 8998   0.922   5.878   3.439 -2.2479 -1.7811  3.0344
 2441SOL     OW 8999   5.058   9.215   3.832 -0.4321  0.5147  0.0546
 2441SOL    HW1 9000   5.024   9.294   3.873 -1.0985 -0.0070  0.5349
 2441SOL    HW2 9001   5.122   9.246   3.769 -1.3251  1.4887 -0.3924
 2442SOL     OW 9002   6.499   0.271   8.100 -0.4214  0.4324  0.4955
 2442SOL    HW1 9003   6.529   0.360   8.113  0.0706  0.5150 -1.0919
 2442SOL    HW2 9004   6.578   0.222   8.075 -0.5806 -0.5772  1.8444
 2443SOL     OW 9005   7.631   6.138   5.029 -0.0845 -0.4086  0.4604
 2443SOL    HW1 9006   7.627   6.226   5.066  0.7242 -0.2776  0.2468
 2443SOL    HW2 9007   7.539   6.111   5.020 -0.5508  2.0881 -3.4651
 2444SOL     OW 9008   1.719   0.882   7.784 -0.3354  0.8561 -0.1181
 2444SOL    HW1 9009   1.798   0.936   7.791  0.4113 -0.2215 -0.1672
 2444SOL    HW2 9010   1.704   0.875   7.690 -0.0247  0.3968 -0.1350
 2445SOL     OW 9011   0.329   7.904   3.860 -0.0604 -0.5210  0.5721
 2445SOL    HW1 9012   0.387   7.889   3.934  0.5726  0.6616  0.3191
 2445SOL    HW2 9013   0.387   7.932   3.789 -0.8032 -0.3993  0.0085
 2446SOL     OW 9014   3.461   0.512   8.791  0.1800  0.4851  0.1220
 2446SOL    HW1 9015   3.430   0.422   8.803 -0.4548  0.5077 -1.1662
 2446SOL    HW2 9016   3.391   0.554   8.740  0.7321  1.5464  0.2346
 2447SOL     OW 9017   1.199   8.580   8.094 -0.6035 -0.3516  0.1221
 2447SOL    HW1 9018   1.153   8.661   8.075 -0.7856 -0.3144  0.7207
 2447SOL    HW2 9019   1.131   8.520   8.123 -0.0446  0.2385  2.7532
 2448SOL     OW 9020   2.583   1.180   3.078 -0.7132 -0.3778 -0.1183
 2448SOL    HW1 9021   2.660   1.201   3.132 -0.2566 -0.4128 -0.7559
 2448SOL    HW2 9022   2.597   1.090   3.050  0.0715  0.3296 -2.0221
 2449SOL     OW 9023   8.910   9.280   2.258  0.5306 -0.1720  0.0263
 2449SOL    HW1 9024   8.906   9.314   2.169 -0.4129  2.5121  1.0483
 2449SOL    HW2 9025   8.855   9.202   2.256 -1.3201  1.1172 -1.2309
 2450SOL     OW 9026   1.687   9.193   8.245 -0.3825  0.4744 -0.0975
 2450SOL    HW1 9027   1.771   9.182   8.200 -0.1315 -1.6644  0.8031
 2450SOL    HW2 9028   1.711   9.206   8.337 -1.0445 -1.7646  0.4259
 2451SOL     OW 9029   4.764   5.655   1.495 -0.0717 -0.5577 -0.6471
 2451SOL    HW1 9030   4.669   5.668   1.490 -0.0403  0.6075  1.1858
 2451SOL    HW2 9031   4.795   5.670   1.406 -1.4870  0.1459 -1.0387
 2452SOL     OW 9032   8.932   1.178   0.332 -0.2959  0.1868 -0.1154
 2452SOL    HW1 9033   9.022   1.163   0.302  0.3451  0.4841  1.5933
 2452SOL    HW2 9034   8.912   1.101   0.385 -1.2420 -0.1074 -0.8844
 2453SOL     OW 9035   0.535   8.630   2.731 -0.2579  0.2055  0.4214
 2453SOL    HW1 9036   0.588   8.552   2.712 -0.4729  0.5598 -1.7940
 2453SOL    HW2 9037   0.449   8.610   2.695 -0.3514  1.4082 -0.0545
 2454SOL     OW 9038   6.125   1.789   8.432 -0.3397 -0.6519 -0.4021
 2454SOL    HW1 9039   6.153   1.713   8.381 -0.9284 -0.3378 -1.2097
 2454SOL    HW2 9040   6.176   1.862   8.396 -0.4560 -0.4962 -0.2506
 2455SOL     OW 9041   1.491   5.731   8.366  0.1693 -0.1773 -0.0287
 2455SOL    HW1 9042   1.499   5.704   8.275 -0.6238  0.5380 -0.3194
 2455SOL    HW2 9043   1.559   5.797   8.377 -1.0812  1.2697 -0.7104
 2456SOL     OW 9044   3.002   2.338   8.810  0.0324  0.0798  0.0199
 2456SOL    HW1 9045   2.928   2.376   8.857 -0.6187 -1.3310  0.1808
 2456SOL    HW2 9046   3.064   2.313   8.879 -1.1240 -2.4104  0.2099
 2457SOL     OW 9047   4.126   8.303   5.884  0.0674  0.0656  0.2245
 2457SOL    HW1 9048   4.086   8.376   5.837 -0.8623 -1.0915 -0.7960
 2457SOL    HW2 9049   4.053   8.248   5.912  0.7453 -0.3757  1.1785
 2458SOL     OW 9050   9.185   8.390   3.162  0.2097 -0.2609  0.3090
 2458SOL    HW1 9051   9.158   8.463   3.218  1.1278 -0.5569  1.1449
 2458SOL    HW2 9052   9.160   8.418   3.073  2.0651  1.8151  0.3873
 2459SOL     OW 9053   2.441   1.242   1.806 -0.6785 -0.2427  0.4984
 2459SOL    HW1 9054   2.453   1.164   1.752 -0.0252  0.3114 -0.1643
 2459SOL    HW2 9055   2.466   1.315   1.749 -1.7758  0.4982  0.9427
 2460SOL     OW 9056   6.629   0.340   2.587 -0.1226 -0.3187  0.0052
 2460SOL    HW1 9057   6.656   0.410   2.528  1.1871 -1.6109 -0.9685
 2460SOL    HW2 9058   6.689   0.268   2.567  0.3294 -0.7963  2.9005
 2461SOL     OW 9059   1.011   1.886   2.421 -0.7264 -0.6325 -0.6605
 2461SOL    HW1 9060   1.075   1.919   2.359 -1.1211  0.6925 -0.3894
 2461SOL    HW2 9061   1.053   1.810   2.462 -0.4535 -1.5009 -2.4990
 2462SOL     OW 9062   4.870   9.010   9.183  0.3162 -0.0205  0.0605
 2462SOL    HW1 9063   4.941   9.014   9.119  1.6038 -0.3540  1.4255
 2462SOL    HW2 9064   4.835   9.099   9.186 -0.3813 -0.2198 -1.7797
 2463SOL     OW 9065   2.404   0.851   4.253  0.3081  0.0719  0.9697
 2463SOL    HW1 9066   2.474   0.786   4.253  1.0073  0.8075  0.0127
 2463SOL    HW2 9067   2.376   0.857   4.344  1.2391 -0.4917  1.2925
 2464SOL     OW 9068   8.638   0.902   6.727  0.3447  0.0015 -0.0392
 2464SOL    HW1 9069   8.676   0.981   6.687  0.2858  0.3866  0.6520
 2464SOL    HW2 9070   8.611   0.931   6.815  1.1443 -1.0174  0.5460
 2465SOL     OW 9071   6.294   4.432   3.278  0.7964  0.2260  0.1490
 2465SOL    HW1 9072   6.315   4.455   3.369  2.0272  0.5434 -0.2047
 2465SOL    HW2 9073   6.205   4.465   3.265 -0.6339 -2.6782  2.2186
 2466SOL     OW 9074   3.414   1.553   3.108  0.1963 -0.0815  0.4339
 2466SOL    HW1 9075   3.426   1.643   3.138 -0.1495  0.0512  0.1784
 2466SOL    HW2 9076   3.435   1.499   3.184 -0.6427  0.2511  0.9014
 2467SOL     OW 9077   1.305   4.959   8.388  0.8261  0.1848  0.2775
 2467SOL    HW1 9078   1.321   5.007   8.306  0.9481 -0.8457 -0.3161
 2467SOL    HW2 9079   1.308   5.026   8.456  3.6783  0.6525 -0.2300
 2468SOL     OW 9080   2.515   0.149   2.196  0.1659  0.2935  0.2552
 2468SOL    HW1 9081   2.463   0.183   2.268 -0.6964  0.1355 -0.2902
 2468SOL    HW2 9082   2.544   0.063   2.226  0.0844  0.3649  0.5432
 2469SOL     OW 9083   9.082   5.581   0.749 -0.0751  0.3699 -0.1795
 2469SOL    HW1 9084   9.086   5.494   0.789  0.3864  0.5400  0.1570
 2469SOL    HW2 9085   9.011   5.625   0.795  1.2642  0.9860  1.3296
 2470SOL     OW 9086   4.009   3.482   6.726  0.0582 -0.2039  0.0088
 2470SOL    HW1 9087   4.025   3.489   6.820 -0.8327 -0.4726  0.1842
 2470SOL    HW2 9088   4.096   3.466   6.688  0.3399 -0.7075  0.8489
 2471SOL     OW 9089   7.136   8.101   6.179  0.3854 -0.6350 -0.0543
 2471SOL    HW1 9090   7.056   8.144   6.210  0.8283 -0.1000  0.3524
 2471SOL    HW2 9091   7.105   8.037   6.115 -0.3084  0.1074 -0.4806
 2472SOL     OW 9092   2.929   8.794   2.718 -0.1352  0.1078  0.4613
 2472SOL    HW1 9093   2.893   8.754   2.639 -1.4801  0.7991  0.7132
 2472SOL    HW2 9094   2.983   8.867   2.686  0.4809 -0.4895  0.1217
 2473SOL     OW 9095   8.418   5.598   0.782 -0.2692 -0.2079 -0.0534
 2473SOL    HW1 9096   8.348   5.634   0.837  0.0206 -0.9230  0.7981
 2473SOL    HW2 9097   8.411   5.504   0.792  0.7482 -0.2939 -0.0394
 2474SOL     OW 9098   6.363   1.207   1.166  0.0374  0.1851  0.2031
 2474SOL    HW1 9099   6.407   1.215   1.081  0.5428  0.9135  0.5257
 2474SOL    HW2 9100   6.434   1.183   1.227  0.0970  1.8629  0.8235
 2475SOL     OW 9101   8.827   6.808   5.085  0.7239 -0.1462 -0.2722
 2475SOL    HW1 9102   8.886   6.843   5.018  1.1208  1.1214  0.7199
 2475SOL    HW2 9103   8.877   6.739   5.128  1.1429  0.2778 -0.0732
 2476SOL     OW 9104   4.179   0.192   8.315  0.0912  0.1476  0.0159
 2476SOL    HW1 9105   4.099   0.143   8.294 -0.5873  0.4573  1.8138
 2476SOL    HW2 9106   4.162   0.280   8.283  0.4674 -0.2329 -1.2821
 2477SOL     OW 9107   1.135   8.947   1.616 -0.2476  0.0287 -0.7664
 2477SOL    HW1 9108   1.102   8.971   1.703  0.1534 -1.1057 -0.2791
 2477SOL    HW2 9109   1.167   9.028   1.579  0.5090  0.3654  0.5725
 2478SOL     OW 9110   6.563   1.512   1.330  0.2989  0.2560  0.1865
 2478SOL    HW1 9111   6.533   1.537   1.418  1.4557  0.5019  0.5183
 2478SOL    HW2 9112   6.530   1.582   1.273 -0.3762  0.1455  0.4306
 2479SOL     OW 9113   2.391   1.048   7.374  0.1354 -0.5368  0.1243
 2479SOL    HW1 9114   2.337   1.125   7.358  0.3728 -0.4708 -0.3579
 2479SOL    HW2 9115   2.447   1.073   7.448 -0.6849 -0.7083  0.8126
 2480SOL     OW 9116   3.831   8.030   7.177  0.3799 -0.0600 -0.2316
 2480SOL    HW1 9117   3.846   8.067   7.089  0.4876 -1.2602 -0.7249
 2480SOL    HW2 9118   3.883   7.950   7.178  0.8040  0.2228  1.1368
 2481SOL     OW 9119   3.305   4.203   3.305  0.2979 -0.5023 -0.1019
 2481SOL    HW1 9120   3.385   4.246   3.274 -0.3435 -0.6999 -2.1085
 2481SOL    HW2 9121   3.239   4.272   3.303 -0.9662 -1.7054 -4.2623
 2482SOL     OW 9122   4.284   0.644   6.652 -0.3878  0.5822  0.0283
 2482SOL    HW1 9123   4.248   0.615   6.736 -0.2153 -1.0924 -0.4586
 2482SOL    HW2 9124   4.377   0.625   6.658 -0.4115  0.2596 -0.6262
 2483SOL     OW 9125   7.736   5.359   5.846  0.0294  0.3428 -0.3480
 2483SOL    HW1 9126   7.787   5.437   5.868 -0.8573  1.1132 -0.9607
 2483SOL    HW2 9127   7.719   5.317   5.930 -0.7402  1.6138  0.1605
 2484SOL     OW 9128   4.656   2.827   1.658  0.1274 -0.3058  0.6638
 2484SOL    HW1 9129   4.681   2.886   1.587  0.0662 -1.0716 -0.0089
 2484SOL    HW2 9130   4.567   2.800   1.636  0.1567 -0.6496  0.9658
 2485SOL     OW 9131   2.184   4.452   8.082  0.2201 -0.5407 -0.2141
 2485SOL    HW1 9132   2.108   4.437   8.140  1.1612 -1.6205  0.7680
 2485SOL    HW2 9133   2.165   4.401   8.004 -0.8743  0.5987 -0.7090
 2486SOL     OW 9134   2.754   5.041   8.131 -0.1541 -0.3555 -0.2042
 2486SOL    HW1 9135   2.829   5.097   8.149 -1.7773  1.1830  1.9910
 2486SOL    HW2 9136   2.713   5.081   8.053  0.2703 -0.1218 -0.3094
 2487SOL     OW 9137   4.196   7.871   6.529  0.1929 -0.0415  0.2935
 2487SOL    HW1 9138   4.288   7.850   6.546  0.0721 -0.3973  0.5050
 2487SOL    HW2 9139   4.197   7.913   6.443  0.7803  1.6709  1.1140
 2488SOL     OW 9140   4.067   0.824   0.666  0.1089  0.4685  0.1032
 2488SOL    HW1 9141   4.118   0.898   0.632  0.0644  0.3328 -0.2536
 2488SOL    HW2 9142   4.122   0.747   0.649  0.4906  0.4921  1.1395
 2489SOL     OW 9143   0.974   0.352   4.697 -0.6235  0.3679 -0.4194
 2489SOL    HW1 9144   0.992   0.279   4.637  0.6869 -0.0860  0.5091
 2489SOL    HW2 9145   1.000   0.430   4.648  1.5108 -0.0895 -0.0519
 2490SOL     OW 9146   3.690   0.133   8.174 -0.1282 -0.0905 -0.4084
 2490SOL    HW1 9147   3.675   0.052   8.125 -0.4314 -1.0763  1.2833
 2490SOL    HW2 9148   3.667   0.203   8.113 -1.0367 -1.3107 -1.4755
 2491SOL     OW 9149   7.292   7.103   1.573  0.0838 -0.2110 -0.0914
 2491SOL    HW1 9150   7.303   7.075   1.482 -1.5368 -0.6613 -0.1656
 2491SOL    HW2 9151   7.207   7.147   1.575  0.7025  0.9633  0.9284
 2492SOL     OW 9152   4.439   4.677   3.140  0.2980 -0.1160  0.2592
 2492SOL    HW1 9153   4.475   4.764   3.154 -0.5392  0.1527  0.8040
 2492SOL    HW2 9154   4.470   4.626   3.214  0.7744 -0.2812 -0.0510
 2493SOL     OW 9155   1.363   6.425   0.765 -0.1187 -0.1062 -0.6852
 2493SOL    HW1 9156   1.364   6.514   0.730 -0.2086  0.8040  1.5474
 2493SOL    HW2 9157   1.374   6.436   0.859  1.2376 -2.5557 -0.5191
 2494SOL     OW 9158   1.703   3.500   6.527 -0.5502 -0.0978  0.0890
 2494SOL    HW1 9159   1.787   3.477   6.567  0.0385 -1.1281 -1.7071
 2494SOL    HW2 9160   1.644   3.429   6.552 -0.4580 -0.2087 -0.0091
 2495SOL     OW 9161   7.841   9.186   1.784  0.0085  0.4283 -0.2398
 2495SOL    HW1 9162   7.805   9.128   1.851 -0.4357 -0.8404 -1.5549
 2495SOL    HW2 9163   7.799   9.270   1.800 -0.5213 -0.0079  0.7216
 2496SOL     OW 9164   1.802   5.639   0.511  0.4297 -0.1743 -0.3993
 2496SOL    HW1 9165   1.849   5.721   0.528  0.5286 -0.2094 -0.4984
 2496SOL    HW2 9166   1.842   5.576   0.570 -1.1871  0.3740  1.3017
 2497SOL     OW 9167   6.928   2.400   1.940  0.1340  0.4548 -0.6115
 2497SOL    HW1 9168   7.003   2.363   1.986  0.3080  2.4712  0.8357
 2497SOL    HW2 9169   6.945   2.495   1.939 -1.1815  0.6986 -2.4649
 2498SOL     OW 9170   5.327   7.510   5.288 -0.2917 -0.3478 -0.2035
 2498SOL    HW1 9171   5.403   7.470   5.331 -0.2958  0.3735  0.5027
 2498SOL    HW2 9172   5.350   7.603   5.282 -1.4341  0.0052  0.7178
 2499SOL     OW 9173   4.914   8.272   5.848 -0.0727 -0.3090  0.2598
 2499SOL    HW1 9174   4.822   8.284   5.827 -0.1106 -0.8968  0.1042
 2499SOL    HW2 9175   4.930   8.335   5.919 -0.3843  0.3860 -0.2743
 2500SOL     OW 9176   0.640   3.038   1.960  0.2814 -0.4276  0.0509
 2500SOL    HW1 9177   0.672   2.960   1.915  1.1719 -0.5829  0.9297
 2500SOL    HW2 9178   0.719   3.092   1.972 -0.3398  0.6283 -0.6057
 2501SOL     OW 9179   1.900   8.363   5.733  0.3299  0.0840 -0.2044
 2501SOL    HW1 9180   1.937   8.435   5.682 -0.0931  0.7753  0.4646
 2501SOL    HW2 9181   1.945   8.368   5.818  0.5075 -0.6172 -0.2520
 2502SOL     OW 9182   6.780   9.066   2.409 -0.1539  0.1983 -0.0357
 2502SOL    HW1 9183   6.851   9.123   2.379 -0.9970  0.9062 -0.7203
 2502SOL    HW2 9184   6.810   9.033   2.493  2.1694 -1.7067 -1.5788
 2503SOL     OW 9185   8.322   3.757   2.740 -0.2990  0.1200  0.1263
 2503SOL    HW1 9186   8.309   3.765   2.646  2.6645 -2.6003 -0.6183
 2503SOL    HW2 9187   8.284   3.672   2.762  1.2798 -0.4256  0.8501
 2504SOL     OW 9188   4.706   2.726   6.964 -0.2643  0.2858 -0.1985
 2504SOL    HW1 9189   4.761   2.801   6.939  0.9360  0.2149  2.0739
 2504SOL    HW2 9190   4.765   2.651   6.959 -0.3516  0.0948  1.4976
 2505SOL     OW 9191   4.366   0.738   3.524  0.0108  0.0841 -0.2433
 2505SOL    HW1 9192   4.273   0.718   3.535  0.3152 -0.1273  2.4010
 2505SOL    HW2 9193   4.410   0.654   3.534  0.5934  0.4599  0.4240
 2506SOL     OW 9194   8.151   8.467   2.722  0.1280 -0.1880 -0.6471
 2506SOL    HW1 9195   8.246   8.462   2.720  0.0927 -0.8118 -0.6813
 2506SOL    HW2 9196   8.126   8.488   2.632  0.1416 -1.5376 -0.9690
 2507SOL     OW 9197   3.208   3.720   7.601  0.3743  0.6528  0.6778
 2507SOL    HW1 9198   3.182   3.723   7.693  0.0623  2.8798  0.5360
 2507SOL    HW2 9199   3.201   3.811   7.570  0.2674 -0.0782 -1.5982
 2508SOL     OW 9200   2.787   1.270   7.672 -0.3052  1.1509  0.3136
 2508SOL    HW1 9201   2.781   1.317   7.755 -0.1464  2.1633 -0.2409
 2508SOL    HW2 9202   2.877   1.284   7.642  0.5481 -1.6870  1.4014
 2509SOL     OW 9203   5.110   0.793   0.355  0.1745 -0.8116 -0.2473
 2509SOL    HW1 9204   5.112   0.699   0.337  0.2392 -0.8897  0.1743
 2509SOL    HW2 9205   5.175   0.806   0.423 -0.6558 -0.6308  0.5204
 2510SOL     OW 9206   1.527   4.895   6.984 -0.5717  0.0378  0.3492
 2510SOL    HW1 9207   1.478   4.938   6.913 -1.1840 -0.3676  0.5221
 2510SOL    HW2 9208   1.468   4.899   7.059 -0.2218 -0.2063  0.6368
 2511SOL     OW 9209   8.041   6.073   4.829  0.4084 -0.4193  0.4777
 2511SOL    HW1 9210   8.045   6.047   4.921  2.4994 -0.5963  0.3547
 2511SOL    HW2 9211   8.031   6.168   4.832 -0.5318 -0.5274  0.8872
 2512SOL     OW 9212   3.150   9.224   7.271 -0.4795 -0.0132 -0.3466
 2512SOL    HW1 9213   3.178   9.230   7.180  0.1487  0.0499 -0.1538
 2512SOL    HW2 9214   3.151   9.130   7.290 -3.2260 -0.2528 -1.1958
 2513SOL     OW 9215   7.043   3.668   1.235  0.4255 -0.6828  0.3645
 2513SOL    HW1 9216   6.988   3.593   1.258 -0.3816  0.1885  1.3591
 2513SOL    HW2 9217   6.982   3.730   1.195  1.0240 -0.4118 -0.1380
 2514SOL     OW 9218   0.440   1.351   5.519  0.4858  0.1118  0.0182
 2514SOL    HW1 9219   0.530   1.379   5.536  0.7045 -0.0406 -0.8490
 2514SOL    HW2 9220   0.419   1.293   5.593  0.0765  2.3965  1.7309
 2515SOL     OW 9221   5.265   8.737   6.493  0.2869  0.0364 -0.1291
 2515SOL    HW1 9222   5.176   8.726   6.461  0.3703 -0.9120 -0.0317
 2515SOL    HW2 9223   5.319   8.681   6.437  0.8573  0.7844 -0.3392
 2516SOL     OW 9224   9.097   6.413   3.907  0.1790 -0.4247 -0.5590
 2516SOL    HW1 9225   9.189   6.387   3.901  0.0062 -1.2171  0.1056
 2516SOL    HW2 9226   9.088   6.484   3.843  1.3911  0.0712 -0.2030
 2517SOL     OW 9227   2.971   4.207   6.526  0.2738 -0.4573  0.2222
 2517SOL    HW1 9228   2.897   4.218   6.466  1.7478 -1.3917 -1.8191
 2517SOL    HW2 9229   2.956   4.122   6.567 -0.1837 -0.3001  0.3839
 2518SOL     OW 9230   1.078   1.101   8.943 -0.7688 -0.2406 -0.1155
 2518SOL    HW1 9231   1.035   1.066   9.021 -1.6312 -0.2973 -0.6066
 2518SOL    HW2 9232   1.150   1.041   8.925 -1.1347 -0.7486  0.1002
 2519SOL     OW 9233   2.557   9.128   1.589 -0.2234  0.0001 -0.5226
 2519SOL    HW1 9234   2.531   9.091   1.505 -2.7610  0.9507 -0.2134
 2519SOL    HW2 9235   2.518   9.216   1.589  2.3169  1.1785  0.3974
 2520SOL     OW 9236   1.608   7.410   7.849 -0.0760 -0.8002 -0.4726
 2520SOL    HW1 9237   1.703   7.400   7.837 -0.1710 -1.5905 -0.5384
 2520SOL    HW2 9238   1.600   7.469   7.924  0.4826  0.7150 -1.5823
 2521SOL     OW 9239   7.911   1.760   6.565  0.0429 -0.2122  0.5385
 2521SOL    HW1 9240   7.986   1.806   6.527  0.4836 -2.3219 -1.2073
 2521SOL    HW2 9241   7.946   1.678   6.597 -1.1398 -0.2827  1.6909
 2522SOL     OW 9242   7.344   8.872   8.761 -0.0042 -0.2467 -0.0556
 2522SOL    HW1 9243   7.280   8.833   8.702  0.1772 -1.5095  0.5782
 2522SOL    HW2 9244   7.426   8.828   8.741  0.3884  0.4304  0.0503
 2523SOL     OW 9245   2.636   2.628   8.662 -0.3161 -1.1180 -0.0637
 2523SOL    HW1 9246   2.561   2.631   8.603 -0.2654 -2.3381 -0.2058
 2523SOL    HW2 9247   2.602   2.657   8.747  0.0669  2.6781 -1.1044
 2524SOL     OW 9248   7.453   8.072   9.292 -0.0737  0.2200 -0.1691
 2524SOL    HW1 9249   7.457   7.980   9.317 -1.1619  0.7582  2.0708
 2524SOL    HW2 9250   7.363   8.098   9.308  0.3360  1.8008 -0.3251
 2525SOL     OW 9251   8.532   2.929   8.821 -0.2169  0.0438  0.5427
 2525SOL    HW1 9252   8.625   2.949   8.827 -0.1023 -0.6191  1.0279
 2525SOL    HW2 9253   8.528   2.833   8.825 -0.8142 -0.0049 -0.9015
 2526SOL     OW 9254   3.471   2.388   6.621 -0.1239 -0.1584  0.7430
 2526SOL    HW1 9255   3.394   2.442   6.638  1.0491  1.4476  0.9876
 2526SOL    HW2 9256   3.468   2.320   6.689  0.2661  1.6315  2.5742
 2527SOL     OW 9257   7.787   2.620   0.038  0.4069  0.8525 -0.1011
 2527SOL    HW1 9258   7.794   2.715   0.030 -1.5221  1.3169  3.0864
 2527SOL    HW2 9259   7.692   2.602   0.037  0.7621 -1.2114 -2.1832
 2528SOL     OW 9260   4.237   8.816   3.450  0.1993  0.3182 -0.5607
 2528SOL    HW1 9261   4.257   8.855   3.535  0.3192 -0.9811  0.0192
 2528SOL    HW2 9262   4.320   8.820   3.402  0.6284 -0.7049  0.0928
 2529SOL     OW 9263   5.923   2.639   7.340  0.3299 -0.2229  0.0556
 2529SOL    HW1 9264   5.879   2.585   7.405  0.5946  0.6915  1.0113
 2529SOL    HW2 9265   6.011   2.651   7.374  0.6065 -0.0838 -0.6851
 2530SOL     OW 9266   7.516   6.444   4.641 -0.1819 -0.7969  0.5326
 2530SOL    HW1 9267   7.576   6.480   4.708 -0.6240 -0.5786  0.8166
 2530SOL    HW2 9268   7.557   6.467   4.558  0.0837 -0.5652  0.7263
 2531SOL     OW 9269   3.569   4.389   1.057  0.3121 -0.1464  0.3756
 2531SOL    HW1 9270   3.614   4.353   0.981 -0.1266  0.0082  0.0428
 2531SOL    HW2 9271   3.638   4.400   1.122  0.6602 -0.4413  0.0629
 2532SOL     OW 9272   5.029   2.748   1.656  0.2563 -0.1693 -0.0197
 2532SOL    HW1 9273   5.009   2.718   1.568  1.1345 -0.8017 -0.0145
 2532SOL    HW2 9274   5.115   2.789   1.648 -0.3501  1.1665  0.2375
 2533SOL     OW 9275   2.583   3.782   3.211  0.3217  0.2057 -0.6694
 2533SOL    HW1 9276   2.504   3.821   3.172 -0.7772 -1.0341  0.2839
 2533SOL    HW2 9277   2.601   3.705   3.157  1.0886  0.6578 -1.0781
 2534SOL     OW 9278   5.726   4.017   6.023 -0.0951  0.5430  0.0868
 2534SOL    HW1 9279   5.743   3.930   6.059  0.3423  0.3397 -0.6047
 2534SOL    HW2 9280   5.654   4.051   6.076 -2.7828 -1.7228 -1.9263
 2535SOL     OW 9281   7.514   2.646   3.964 -0.0113 -0.4177 -0.5336
 2535SOL    HW1 9282   7.468   2.660   3.881 -1.4673 -0.1719  0.2981
 2535SOL    HW2 9283   7.567   2.568   3.949  0.6341  0.2992 -2.0685
 2536SOL     OW 9284   1.669   1.276   8.041 -0.1658  0.1003  0.2965
 2536SOL    HW1 9285   1.666   1.298   7.948  1.0871  0.3206  0.3004
 2536SOL    HW2 9286   1.614   1.342   8.083 -0.7437 -0.0055 -0.2933
 2537SOL     OW 9287   6.619   0.516   0.894 -0.4238  0.6274  0.2587
 2537SOL    HW1 9288   6.530   0.479   0.899 -0.7907  1.4196 -0.3778
 2537SOL    HW2 9289   6.607   0.601   0.852  0.8775 -0.0192 -1.4608
 2538SOL     OW 9290   3.974   5.441   9.261  0.3361 -0.0619  0.0242
 2538SOL    HW1 9291   4.048   5.444   9.321  0.5571  0.3797 -0.2647
 2538SOL    HW2 9292   3.920   5.516   9.285 -0.5415 -0.9489  0.8871
 2539SOL     OW 9293   2.609   8.119   4.686  0.5956  0.5235 -0.1149
 2539SOL    HW1 9294   2.544   8.049   4.697  0.5408  0.4478 -0.9100
 2539SOL    HW2 9295   2.560   8.200   4.702  0.2568  0.4785 -0.8795
 2540SOL     OW 9296   5.335   8.110   4.710 -0.2896 -0.3682  0.2563
 2540SOL    HW1 9297   5.267   8.057   4.752 -0.6778 -0.6185 -0.6874
 2540SOL    HW2 9298   5.318   8.102   4.617  0.4484  0.3653  0.0540
 2541SOL     OW 9299   7.446   3.091   8.433 -0.7624 -0.0657  0.1297
 2541SOL    HW1 9300   7.445   3.181   8.400 -1.7049 -0.4611 -0.9484
 2541SOL    HW2 9301   7.488   3.041   8.364  2.1062 -0.0945  1.7863
 2542SOL     OW 9302   2.283   2.944   5.390 -0.5455  0.3457  0.3101
 2542SOL    HW1 9303   2.301   2.896   5.471  1.0107 -0.6252 -0.5781
 2542SOL    HW2 9304   2.369   2.967   5.356 -1.0895 -0.5828 -1.8341
 2543SOL     OW 9305   6.081   8.598   1.235  0.1196  0.1121 -0.4310
 2543SOL    HW1 9306   6.000   8.567   1.275 -0.6648  1.8770 -0.6057
 2543SOL    HW2 9307   6.087   8.690   1.259  0.9895  0.5505 -2.1790
 2544SOL     OW 9308   9.272   3.022   2.938 -0.4270  0.3005  0.1969
 2544SOL    HW1 9309   9.272   3.072   2.856 -0.3002 -0.4581 -0.2730
 2544SOL    HW2 9310   9.231   3.080   3.002 -0.9391  0.7241 -0.5117
 2545SOL     OW 9311   5.991   2.900   0.332  0.1884 -0.5745  0.1479
 2545SOL    HW1 9312   5.902   2.931   0.348  0.7440  1.5040 -0.6824
 2545SOL    HW2 9313   6.027   2.885   0.419 -0.7223 -0.7713  0.5032
 2546SOL     OW 9314   8.178   6.810   1.323  0.6549  0.2902  0.5350
 2546SOL    HW1 9315   8.232   6.736   1.296  1.2817  1.3979 -1.4049
 2546SOL    HW2 9316   8.232   6.887   1.305 -1.1346  1.3648 -0.4030
 2547SOL     OW 9317   5.028   9.016   4.002 -0.4250  0.1657  0.7600
 2547SOL    HW1 9318   5.064   9.065   3.928 -2.8125 -0.4192 -0.8685
 2547SOL    HW2 9319   5.061   8.927   3.991 -0.9843  0.0195  0.2332
 2548SOL     OW 9320   5.583   5.759   3.827 -0.2537  0.3008 -0.1052
 2548SOL    HW1 9321   5.506   5.743   3.881 -0.4462  0.1192 -0.4337
 2548SOL    HW2 9322   5.653   5.779   3.890  0.2834 -2.9002  0.4136
 2549SOL     OW 9323   4.299   5.725   2.579  0.4050 -0.2368  0.4878
 2549SOL    HW1 9324   4.338   5.757   2.497 -0.3675 -2.0761 -0.6312
 2549SOL    HW2 9325   4.209   5.756   2.577  0.7820  0.9356  1.3411
 2550SOL     OW 9326   1.852   2.081   1.760 -0.0355  0.0592  0.6562
 2550SOL    HW1 9327   1.843   2.047   1.671 -3.1158 -0.2507  1.0447
 2550SOL    HW2 9328   1.790   2.154   1.765  0.6606  0.5716  2.3262
 2551SOL     OW 9329   8.528   6.905   8.967 -0.0082  0.3208 -1.1172
 2551SOL    HW1 9330   8.478   6.873   8.891  0.3537  0.8132 -1.5620
 2551SOL    HW2 9331   8.609   6.853   8.966  0.0311  0.3826 -1.1100
 2552SOL     OW 9332   4.944   2.755   1.145  0.0767  0.1219  0.0529
 2552SOL    HW1 9333   4.894   2.701   1.206 -0.1716 -0.4008 -0.6076
 2552SOL    HW2 9334   5.013   2.698   1.113  1.7634  1.1504  1.7475
 2553SOL     OW 9335   2.046   6.770   4.623 -0.0136 -0.0961 -0.0422
 2553SOL    HW1 9336   1.952   6.788   4.625  0.6107  3.6093  0.2888
 2553SOL    HW2 9337   2.065   6.751   4.531 -0.8177  0.9162 -0.4332
 2554SOL     OW 9338   0.498   0.092   1.860 -0.1521 -0.0448  0.1796
 2554SOL    HW1 9339   0.476   0.110   1.951  1.0002  0.4847  0.3550
 2554SOL    HW2 9340   0.515   0.178   1.822  0.7490 -0.3754 -0.1764
 2555SOL     OW 9341   1.456   5.300   0.061  0.5775 -0.1625  0.2407
 2555SOL    HW1 9342   1.464   5.386   0.020 -0.8144  0.4202  1.1504
 2555SOL    HW2 9343   1.437   5.241  -0.011  1.7496  0.2571 -0.4203
 2556SOL     OW 9344   7.959   3.425   8.178 -0.3199 -0.3911  0.0609
 2556SOL    HW1 9345   7.951   3.451   8.270 -1.1075  0.4862 -0.2503
 2556SOL    HW2 9346   7.869   3.419   8.147 -0.0653 -1.0463 -0.5637
 2557SOL     OW 9347   6.355   4.048   2.585  0.2698  0.2570  0.0920
 2557SOL    HW1 9348   6.393   4.075   2.501 -0.4957 -1.6605 -0.9204
 2557SOL    HW2 9349   6.278   3.996   2.560  0.0878 -0.4187  1.9842
 2558SOL     OW 9350   8.998   2.949   1.797  0.9884  0.0257  0.3240
 2558SOL    HW1 9351   9.044   2.869   1.772  1.4688 -0.7972  3.5747
 2558SOL    HW2 9352   8.909   2.920   1.816  0.6888  0.5861 -0.2339
 2559SOL     OW 9353   2.879   5.807   8.631  0.0535  0.5095 -0.2167
 2559SOL    HW1 9354   2.877   5.777   8.722  0.6718  1.0555 -0.0189
 2559SOL    HW2 9355   2.938   5.882   8.632  1.7063 -0.7378 -1.4459
 2560SOL     OW 9356   0.552   6.256   9.259  0.3844  0.3842  0.8354
 2560SOL    HW1 9357   0.568   6.214   9.343 -1.9472 -0.8555  0.6948
 2560SOL    HW2 9358   0.622   6.223   9.202  1.7210  0.9026  2.1256
 2561SOL     OW 9359   0.813   3.799   8.790 -0.0309 -0.5961 -1.0702
 2561SOL    HW1 9360   0.878   3.846   8.738  0.6912  0.3935  0.6629
 2561SOL    HW2 9361   0.846   3.709   8.794  0.1703 -0.5603 -1.8738
 2562SOL     OW 9362   3.638   7.165   1.583 -0.4270 -0.4939 -0.7925
 2562SOL    HW1 9363   3.588   7.244   1.564  3.4573  2.3113  0.0226
 2562SOL    HW2 9364   3.643   7.162   1.678 -0.8909 -1.9907 -0.7989
 2563SOL     OW 9365   0.406   8.057   1.710  0.4686 -0.2306 -0.1948
 2563SOL    HW1 9366   0.454   8.016   1.782  0.3192 -0.0512  0.0082
 2563SOL    HW2 9367   0.316   8.067   1.743  0.4118 -0.1012 -0.3855
 2564SOL     OW 9368   3.619   4.535   9.058  0.3309 -0.4833  0.4507
 2564SOL    HW1 9369   3.658   4.544   8.971  1.1687 -1.5004  0.7132
 2564SOL    HW2 9370   3.675   4.587   9.115 -0.3719  0.3998  0.3448
 2565SOL     OW 9371   6.894   1.128   0.067  0.5182 -0.8608  0.1952
 2565SOL    HW1 9372   6.973   1.079   0.089  0.6143 -0.6062  0.4272
 2565SOL    HW2 9373   6.896   1.135  -0.028 -0.0123 -2.1611  0.0852
 2566SOL     OW 9374   1.771   2.973   1.735 -0.1135  0.3817  0.8145
 2566SOL    HW1 9375   1.735   2.947   1.650 -1.2895 -1.1492  1.7484
 2566SOL    HW2 9376   1.859   2.935   1.737  0.2341  1.1413 -0.0594
 2567SOL     OW 9377   7.785   1.776   2.464 -0.2053 -0.3574  0.3408
 2567SOL    HW1 9378   7.867   1.747   2.505  0.1936 -0.9615 -0.8526
 2567SOL    HW2 9379   7.779   1.724   2.383 -0.8519  0.9722 -0.4870
 2568SOL     OW 9380   6.868   2.928   8.068  0.0903 -0.5125 -0.2643
 2568SOL    HW1 9381   6.783   2.885   8.065  0.6367 -1.5132 -1.7692
 2568SOL    HW2 9382   6.899   2.914   8.158 -2.1671  1.5914  0.9139
 2569SOL     OW 9383   8.861   0.785   8.524 -0.4557 -0.2389 -0.6065
 2569SOL    HW1 9384   8.767   0.792   8.539 -0.0499  0.9259  1.6077
 2569SOL    HW2 9385   8.881   0.692   8.540 -1.5268 -0.9534 -3.1964
 2570SOL     OW 9386   1.414   5.322   6.340  0.4772  0.3742  0.0019
 2570SOL    HW1 9387   1.474   5.313   6.415  0.7829  0.7137 -0.1982
 2570SOL    HW2 9388   1.353   5.391   6.366  0.3639  0.2444  0.0820
 2571SOL     OW 9389   4.487   3.871   6.155 -0.3800  0.1582  0.1807
 2571SOL    HW1 9390   4.502   3.858   6.061  0.1278  2.1427 -0.0312
 2571SOL    HW2 9391   4.415   3.934   6.159 -0.6909 -0.2526  1.1359
 2572SOL     OW 9392   0.459   7.190   9.265  0.3475  0.4911  0.1168
 2572SOL    HW1 9393   0.551   7.218   9.271  0.1375  1.6274 -1.5242
 2572SOL    HW2 9394   0.415   7.237   9.337  0.6846  1.5771 -0.3683
 2573SOL     OW 9395   4.652   4.406   4.050  0.2259 -0.2313  0.7568
 2573SOL    HW1 9396   4.723   4.353   4.014 -0.6550 -0.1452 -1.1774
 2573SOL    HW2 9397   4.605   4.347   4.109  0.4600 -1.0036  0.1770
 2574SOL     OW 9398   4.305   2.679   5.765  0.4173  0.4709 -0.1366
 2574SOL    HW1 9399   4.337   2.612   5.705  1.0830  1.4081 -0.8374
 2574SOL    HW2 9400   4.377   2.693   5.827  0.0904  0.1768  0.3115
 2575SOL     OW 9401   0.358   1.949   6.305  0.2568 -0.4597 -0.3623
 2575SOL    HW1 9402   0.308   1.868   6.320 -0.6975  0.6745  3.0261
 2575SOL    HW2 9403   0.310   2.016   6.354  1.9554  1.8522 -1.7769
 2576SOL     OW 9404   3.512   4.144   2.169  0.4434 -0.9201  0.3774
 2576SOL    HW1 9405   3.566   4.121   2.093  0.1971  0.2059 -0.1491
 2576SOL    HW2 9406   3.431   4.095   2.156  0.1733 -0.2810 -0.3951
 2577SOL     OW 9407   0.400   6.358   8.757  0.6364  0.5312 -0.4332
 2577SOL    HW1 9408   0.403   6.376   8.851  1.7015 -0.4560 -0.2718
 2577SOL    HW2 9409   0.344   6.280   8.750  1.1127  0.1982 -0.5490
 2578SOL     OW 9410   0.411   2.418   7.188  0.8230  0.0590 -0.6178
 2578SOL    HW1 9411   0.394   2.431   7.095  1.5098  2.3319 -0.4476
 2578SOL    HW2 9412   0.367   2.491   7.231 -0.1913 -1.4387  0.9372
 2579SOL     OW 9413   1.805   3.288   1.731 -0.0973 -0.4902  0.3587
 2579SOL    HW1 9414   1.737   3.223   1.712  0.6120 -1.1490  0.0171
 2579SOL    HW2 9415   1.857   3.291   1.650  0.5006 -0.2680  0.7512
 2580SOL     OW 9416   7.989   8.985   8.764 -0.5265 -0.1237  0.1142
 2580SOL    HW1 9417   7.896   8.964   8.759 -0.8242  1.6352 -2.5613
 2580SOL    HW2 9418   7.996   9.036   8.845 -2.2673  1.3489 -0.6131
 2581SOL     OW 9419   5.137   8.541   4.578  0.0127 -0.1615 -0.0484
 2581SOL    HW1 9420   5.054   8.579   4.549  0.3611  0.9878  0.4403
 2581SOL    HW2 9421   5.116   8.498   4.661 -0.6969 -2.3151 -1.3153
 2582SOL     OW 9422   5.417   5.909   3.300 -0.4617  0.0242 -0.4074
 2582SOL    HW1 9423   5.399   5.870   3.214 -1.4239  0.8865 -0.6075
 2582SOL    HW2 9424   5.420   5.834   3.360 -2.3435 -0.3823 -0.7769
 2583SOL     OW 9425   7.875   8.611   1.284  0.1635  0.1195  0.0854
 2583SOL    HW1 9426   7.831   8.630   1.367 -0.5029  0.7698 -0.4074
 2583SOL    HW2 9427   7.816   8.549   1.240  1.2771 -1.4452  0.7609
 2584SOL     OW 9428   7.060   8.609   2.928 -0.0550  0.5385  0.3477
 2584SOL    HW1 9429   7.005   8.685   2.945 -0.9427  0.0027 -0.1339
 2584SOL    HW2 9430   7.065   8.603   2.833  1.4271  1.0061  0.3743
 2585SOL     OW 9431   0.710   3.255   7.405  0.4774 -0.4536  0.4486
 2585SOL    HW1 9432   0.633   3.269   7.460  0.1055 -1.0549  0.0843
 2585SOL    HW2 9433   0.717   3.160   7.397  1.5865 -0.4127  0.9409
 2586SOL     OW 9434   4.272   9.099   4.959 -0.0567 -0.3296 -0.6121
 2586SOL    HW1 9435   4.218   9.131   5.030 -0.5661 -0.4225 -0.9539
 2586SOL    HW2 9436   4.233   9.136   4.880 -0.3857 -1.4221 -0.9749
 2587SOL     OW 9437   5.147   1.774   8.835  0.4358 -0.2318  0.4447
 2587SOL    HW1 9438   5.171   1.846   8.892 -0.5917  0.3853  0.1074
 2587SOL    HW2 9439   5.053   1.763   8.847  0.1572  0.0758 -1.3068
 2588SOL     OW 9440   3.650   3.022   6.794 -0.0080  0.6402  0.0681
 2588SOL    HW1 9441   3.655   3.084   6.722 -0.1169  1.3476  0.6702
 2588SOL    HW2 9442   3.650   2.936   6.752 -1.5429  1.0798 -0.8678
 2589SOL     OW 9443   1.180   2.105   4.199 -0.7980  0.1124 -0.1646
 2589SOL    HW1 9444   1.216   2.058   4.124  1.5759  1.3144  0.1666
 2589SOL    HW2 9445   1.130   2.177   4.160 -1.0497 -0.2989 -0.6068
 2590SOL     OW 9446   3.337   6.240   6.300 -0.2911 -0.5068 -0.0480
 2590SOL    HW1 9447   3.399   6.282   6.241 -0.2181 -0.4383  0.0767
 2590SOL    HW2 9448   3.377   6.247   6.387  0.6614 -2.5768 -0.2790
 2591SOL     OW 9449   8.127   2.020   3.270 -0.1187  0.8920  0.0837
 2591SOL    HW1 9450   8.166   2.098   3.309 -1.1324  0.9585  0.9867
 2591SOL    HW2 9451   8.055   2.054   3.216 -0.3615  0.6059  0.2263
 2592SOL     OW 9452   5.387   7.861   2.339  0.1606 -0.9594 -0.0590
 2592SOL    HW1 9453   5.308   7.810   2.320  0.1313 -1.0155  0.2133
 2592SOL    HW2 9454   5.409   7.902   2.255 -0.0294 -1.1204 -0.1904
 2593SOL     OW 9455   7.151   6.204   1.409  0.8242 -0.3675  0.0857
 2593SOL    HW1 9456   7.194   6.280   1.448  2.4032 -1.3668  0.3313
 2593SOL    HW2 9457   7.089   6.175   1.475  0.7408  0.2571  0.2897
 2594SOL     OW 9458   6.569   0.354   7.804  0.5067 -0.0935  0.1746
 2594SOL    HW1 9459   6.498   0.313   7.754  0.3126  0.8931 -0.3723
 2594SOL    HW2 9460   6.531   0.370   7.890  0.0422  0.4638 -0.1275
 2595SOL     OW 9461   7.140   6.415   2.577 -0.1006 -0.3671 -0.0684
 2595SOL    HW1 9462   7.049   6.407   2.605 -0.9169 -0.9426 -2.7757
 2595SOL    HW2 9463   7.165   6.326   2.552  0.8561 -0.0102 -0.3929
 2596SOL     OW 9464   7.532   5.356   2.177 -0.2387 -0.0272  0.4101
 2596SOL    HW1 9465   7.469   5.370   2.247 -0.7426  2.0164 -0.4080
 2596SOL    HW2 9466   7.480   5.326   2.103 -0.0847  0.5328  0.0755
 2597SOL     OW 9467   0.154   5.625   4.368 -0.0717 -0.0933  0.4731
 2597SOL    HW1 9468   0.212   5.549   4.360  1.4233  0.9982  0.6708
 2597SOL    HW2 9469   0.167   5.656   4.457 -0.6184  0.4217  0.3755
 2598SOL     OW 9470   1.865   9.002   8.594  0.0356 -0.6167 -0.3404
 2598SOL    HW1 9471   1.842   9.094   8.600  0.9037 -0.4195 -0.0428
 2598SOL    HW2 9472   1.831   8.964   8.675  1.2406 -0.2170  0.3612
 2599SOL     OW 9473   7.151   5.650   1.009  0.1884 -0.1379 -0.1604
 2599SOL    HW1 9474   7.210   5.588   1.051  0.6992 -0.2064 -0.9843
 2599SOL    HW2 9475   7.204   5.694   0.943 -0.7692 -0.4485 -1.1382
 2600SOL     OW 9476   2.262   5.048   1.903 -0.0810  0.0225  0.6755
 2600SOL    HW1 9477   2.312   5.100   1.965  0.4690  0.6309 -0.2624
 2600SOL    HW2 9478   2.273   5.094   1.819 -1.8260 -0.0750  0.3639
 2601SOL     OW 9479   4.813   7.819   0.214 -0.3256 -0.4207 -0.3436
 2601SOL    HW1 9480   4.832   7.743   0.159 -1.7630 -0.9458 -0.1394
 2601SOL    HW2 9481   4.796   7.782   0.301 -0.7736  0.1544 -0.1830
 2602SOL     OW 9482   0.615   7.722   5.402 -0.0440 -0.4214 -0.3081
 2602SOL    HW1 9483   0.657   7.673   5.332 -0.1275 -2.4329  1.0021
 2602SOL    HW2 9484   0.681   7.785   5.431 -0.7958  2.1167 -3.7054
 2603SOL     OW 9485   2.017   1.368   0.895  0.2202 -0.2013 -0.3352
 2603SOL    HW1 9486   2.048   1.432   0.960  0.1575 -0.0839 -0.4218
 2603SOL    HW2 9487   1.973   1.301   0.947  0.8783 -0.5239 -0.1800
 2604SOL     OW 9488   2.227   5.974   1.442 -0.0108  0.0814  0.3943
 2604SOL    HW1 9489   2.162   5.926   1.391  0.3469  0.8513 -0.8261
 2604SOL    HW2 9490   2.311   5.937   1.415  0.1971  0.6557  0.2387
 2605SOL     OW 9491   3.184   5.795   3.059  0.1306  0.2665 -0.2872
 2605SOL    HW1 9492   3.105   5.827   3.016 -0.6310  0.4682  1.2293
 2605SOL    HW2 9493   3.202   5.860   3.127  1.0091 -0.3150  0.0411
 2606SOL     OW 9494   4.256   8.680   9.074  0.0551 -0.3156 -0.2317
 2606SOL    HW1 9495   4.221   8.611   9.131  1.0284  0.2129  1.0239
 2606SOL    HW2 9496   4.316   8.729   9.130  0.9202  0.3075 -1.6828
 2607SOL     OW 9497   1.983   8.857   3.412 -0.2041 -0.5432 -0.2636
 2607SOL    HW1 9498   2.027   8.925   3.464 -1.4305  0.0344  0.0409
 2607SOL    HW2 9499   2.042   8.782   3.416  1.0201  0.3903 -0.3277
 2608SOL     OW 9500   7.535   0.836   3.468 -0.2141 -0.1700 -0.0720
 2608SOL    HW1 9501   7.541   0.905   3.534  0.5928 -0.7949  0.5240
 2608SOL    HW2 9502   7.517   0.882   3.386  0.7360  0.7892  0.2446
 2609SOL     OW 9503   2.802   1.014   3.919 -0.5905  0.1184  0.0829
 2609SOL    HW1 9504   2.749   0.950   3.872  0.7528 -0.3874 -0.7971
 2609SOL    HW2 9505   2.750   1.094   3.918 -1.6062 -0.5351 -0.1877
 2610SOL     OW 9506   2.214   4.037   0.204 -0.3536  0.3522 -0.2032
 2610SOL    HW1 9507   2.277   4.109   0.217 -0.8253  0.6879  0.2694
 2610SOL    HW2 9508   2.129   4.078   0.218 -0.5659 -0.5833  1.3858
 2611SOL     OW 9509   8.828   3.556   4.049  0.2327  0.1984 -0.8713
 2611SOL    HW1 9510   8.763   3.573   4.118 -0.1661  1.1322 -1.4631
 2611SOL    HW2 9511   8.835   3.461   4.046 -1.1731  0.0828 -0.8504
 2612SOL     OW 9512   5.998   3.807   9.069 -0.2020 -0.1664 -0.1766
 2612SOL    HW1 9513   5.984   3.716   9.044 -1.0153 -0.1628  0.2414
 2612SOL    HW2 9514   5.965   3.858   8.995 -1.5266 -0.1806  0.3850
 2613SOL     OW 9515   2.916   7.598   4.091  0.1726 -0.3055 -0.0992
 2613SOL    HW1 9516   2.877   7.675   4.131  0.4669  0.6145 -1.5472
 2613SOL    HW2 9517   2.855   7.574   4.021  1.8580  0.7721 -1.9663
 2614SOL     OW 9518   8.544   4.801   6.547 -0.5158 -0.1089  0.7497
 2614SOL    HW1 9519   8.527   4.721   6.596 -1.6155 -1.6999 -2.0982
 2614SOL    HW2 9520   8.618   4.780   6.490 -1.4969  0.5469 -0.7950
 2615SOL     OW 9521   1.775   3.255   8.238 -0.5549  0.0483  0.1908
 2615SOL    HW1 9522   1.691   3.234   8.278 -0.2700 -0.0001  0.7637
 2615SOL    HW2 9523   1.840   3.230   8.303 -0.0951  0.1336 -0.2292
 2616SOL     OW 9524   4.759   1.700   5.902 -0.3371  0.3286 -0.3674
 2616SOL    HW1 9525   4.795   1.637   5.964  1.8144 -0.2981 -2.1640
 2616SOL    HW2 9526   4.678   1.660   5.871  0.1544 -0.7822 -0.2374
 2617SOL     OW 9527   0.431   1.237   6.690 -0.6278  0.1033  0.3186
 2617SOL    HW1 9528   0.432   1.245   6.786  0.2616  2.2547  0.1507
 2617SOL    HW2 9529   0.430   1.327   6.658  0.2201 -0.5742 -1.7089
 2618SOL     OW 9530   6.133   8.395   1.876  0.3833 -0.3436 -0.4503
 2618SOL    HW1 9531   6.099   8.433   1.795 -1.1709 -0.8992 -0.0741
 2618SOL    HW2 9532   6.105   8.455   1.945  1.7785  0.1739 -0.3054
 2619SOL     OW 9533   4.699   8.259   1.401 -0.1193 -0.8141  0.2258
 2619SOL    HW1 9534   4.641   8.324   1.363  0.8038  0.2998  0.6762
 2619SOL    HW2 9535   4.761   8.310   1.454  1.8859 -1.8598 -1.0391
 2620SOL     OW 9536   0.510   3.897   5.552 -0.0758 -0.0291 -0.3859
 2620SOL    HW1 9537   0.462   3.897   5.635  1.3436 -0.9826  0.4570
 2620SOL    HW2 9538   0.517   3.990   5.529 -0.3044  0.2630  0.6624
 2621SOL     OW 9539   9.205   5.152   3.385  0.1950  0.0914  0.0704
 2621SOL    HW1 9540   9.295   5.168   3.358  0.3191 -0.8195 -0.0881
 2621SOL    HW2 9541   9.153   5.212   3.333  0.4951 -1.1259 -1.6972
 2622SOL     OW 9542   1.053   6.266   8.740  0.2502  0.6578  0.0887
 2622SOL    HW1 9543   1.076   6.355   8.767 -1.5167  1.3723 -0.7472
 2622SOL    HW2 9544   0.959   6.259   8.756  0.7218 -1.7913  2.1461
 2623SOL     OW 9545   2.878   4.981   4.828 -0.5234 -0.2046 -0.7789
 2623SOL    HW1 9546   2.951   4.961   4.770  0.7915  2.4897 -0.1445
 2623SOL    HW2 9547   2.902   4.941   4.912 -0.8331 -1.1986 -1.1569
 2624SOL     OW 9548   4.518   1.917   4.601 -0.4292  0.0132  0.3441
 2624SOL    HW1 9549   4.596   1.865   4.582 -0.1741  0.3518  0.4579
 2624SOL    HW2 9550   4.533   2.000   4.555 -0.7392  0.0618  0.3320
 2625SOL     OW 9551   8.721   7.345   5.999 -0.3356  0.2199  0.1853
 2625SOL    HW1 9552   8.656   7.388   5.942 -1.2179 -3.4566 -1.7090
 2625SOL    HW2 9553   8.669   7.303   6.067  0.2270 -0.6378  0.0967
 2626SOL     OW 9554   6.672   4.817   0.555  0.6346 -0.3880 -0.0244
 2626SOL    HW1 9555   6.598   4.761   0.578 -1.8489  1.8285 -2.2953
 2626SOL    HW2 9556   6.650   4.852   0.469  2.2976  3.7093  1.0994
 2627SOL     OW 9557   2.738   6.912   9.100  0.2302  0.2310  0.1915
 2627SOL    HW1 9558   2.718   6.887   9.190 -0.9758  0.2519 -0.0718
 2627SOL    HW2 9559   2.704   6.841   9.046  1.8329 -0.2730 -0.2058
 2628SOL     OW 9560   3.918   4.299   3.721  0.0040 -0.1003  0.1364
 2628SOL    HW1 9561   3.987   4.299   3.655 -0.5602 -0.2077 -0.4520
 2628SOL    HW2 9562   3.871   4.381   3.707  0.7724  0.5718  1.3431
 2629SOL     OW 9563   6.673   9.083   9.238  0.3570 -0.2156  0.2415
 2629SOL    HW1 9564   6.741   9.023   9.208 -1.4727 -1.1198 -2.1973
 2629SOL    HW2 9565   6.653   9.137   9.161 -0.3511  1.3059  1.4712
 2630SOL     OW 9566   6.923   1.006   7.306 -0.0218 -0.0974 -0.0920
 2630SOL    HW1 9567   6.830   0.989   7.291 -0.6092  0.3452  2.7481
 2630SOL    HW2 9568   6.934   1.100   7.289 -0.8054  0.5291  2.7111
 2631SOL     OW 9569   6.469   7.005   5.122 -0.5151  0.2631  0.0782
 2631SOL    HW1 9570   6.423   6.970   5.046 -0.0757  1.9587 -1.0092
 2631SOL    HW2 9571   6.561   7.009   5.095 -0.2785  0.3736  0.8880
 2632SOL     OW 9572   0.242   8.319   0.616 -0.0056  0.2128 -0.4503
 2632SOL    HW1 9573   0.312   8.383   0.627 -0.4172  0.3961  1.2605
 2632SOL    HW2 9574   0.169   8.353   0.668 -0.2822 -1.5385  0.3835
 2633SOL     OW 9575   3.662   0.773   7.014  0.0709 -0.3793 -0.1844
 2633SOL    HW1 9576   3.748   0.815   7.010 -0.0694  0.2492  2.2570
 2633SOL    HW2 9577   3.679   0.689   7.057 -0.5196 -0.1933  0.4344
 2634SOL     OW 9578   4.804   7.916   6.291 -0.0367  0.6151  0.4623
 2634SOL    HW1 9579   4.849   7.911   6.375  1.6337 -0.1843 -0.4329
 2634SOL    HW2 9580   4.725   7.862   6.302  0.6999 -0.3270  1.2124
 2635SOL     OW 9581   0.398   8.625   6.419 -0.2747 -0.1366 -0.3356
 2635SOL    HW1 9582   0.319   8.624   6.365  0.0083 -0.5239 -0.7477
 2635SOL    HW2 9583   0.470   8.622   6.355  0.0997  1.8278 -0.0446
 2636SOL     OW 9584   2.597   5.292   4.832 -0.5283 -0.4408  0.0656
 2636SOL    HW1 9585   2.663   5.336   4.884 -0.2194 -0.4172 -0.3457
 2636SOL    HW2 9586   2.595   5.202   4.865  0.6335 -0.7892 -0.7989
 2637SOL     OW 9587   1.142   0.410   1.444  0.0668  0.2005  0.2577
 2637SOL    HW1 9588   1.154   0.440   1.534 -0.0228  1.7898 -0.2524
 2637SOL    HW2 9589   1.187   0.474   1.390 -2.0345  0.6861 -0.9974
 2638SOL     OW 9590   7.403   2.949   4.613 -0.1506 -0.1232 -0.2140
 2638SOL    HW1 9591   7.415   2.867   4.565 -0.1281 -0.5511  0.5123
 2638SOL    HW2 9592   7.452   2.937   4.694 -0.5861  0.4030  0.1323
 2639SOL     OW 9593   2.670   1.783   5.103  0.1837  0.5818  0.4297
 2639SOL    HW1 9594   2.631   1.839   5.170  0.1468  0.4389  0.5273
 2639SOL    HW2 9595   2.706   1.844   5.039  1.4763  0.7493  1.2979
 2640SOL     OW 9596   8.672   1.830   7.233 -0.0498  0.0162  0.4764
 2640SOL    HW1 9597   8.739   1.871   7.287  0.3352  0.4028 -0.2836
 2640SOL    HW2 9598   8.590   1.869   7.263  0.0799 -0.3213  1.2829
 2641SOL     OW 9599   7.795   2.881   1.693 -0.2327  0.3229  0.6184
 2641SOL    HW1 9600   7.831   2.806   1.741 -1.2028 -1.8598 -1.9350
 2641SOL    HW2 9601   7.842   2.880   1.609 -0.7826  2.1562  0.2724
 2642SOL     OW 9602   5.658   8.888   4.231 -0.1495  0.0267 -0.0628
 2642SOL    HW1 9603   5.635   8.830   4.158  1.8527  1.3085 -1.7650
 2642SOL    HW2 9604   5.742   8.855   4.263 -0.7192 -0.1536  1.2855
 2643SOL     OW 9605   4.542   6.956   4.531 -0.0943  0.7373  0.2225
 2643SOL    HW1 9606   4.471   6.897   4.508  0.6664 -0.0544 -0.1541
 2643SOL    HW2 9607   4.545   6.954   4.627 -0.1340  0.2380  0.2155
 2644SOL     OW 9608   7.788   4.775   9.051 -0.1935  0.2811 -0.7171
 2644SOL    HW1 9609   7.803   4.869   9.060 -0.9797  0.2634  0.9875
 2644SOL    HW2 9610   7.695   4.764   9.071 -0.0041 -0.9140 -0.4834
 2645SOL     OW 9611   3.397   5.577   5.300 -0.3918  0.7165  0.0976
 2645SOL    HW1 9612   3.428   5.516   5.368 -0.3315  0.5462 -0.0828
 2645SOL    HW2 9613   3.448   5.554   5.222 -2.3466 -0.8719 -0.7548
 2646SOL     OW 9614   4.779   6.508   4.045  0.3190  0.0062  0.4212
 2646SOL    HW1 9615   4.805   6.494   4.136  2.7197 -2.3932 -0.5422
 2646SOL    HW2 9616   4.846   6.566   4.010  0.1845 -0.2004 -0.1782
 2647SOL     OW 9617   4.532   6.095   2.009 -0.1124  0.1266 -0.4463
 2647SOL    HW1 9618   4.600   6.163   2.010  0.2285 -0.2133 -0.4169
 2647SOL    HW2 9619   4.580   6.013   2.023 -0.5439 -0.1020 -0.2931
 2648SOL     OW 9620   5.331   0.021   1.919  0.8606  0.0240  0.1962
 2648SOL    HW1 9621   5.400  -0.028   1.963  1.2111  0.8799  0.6071
 2648SOL    HW2 9622   5.286   0.069   1.989  1.3655  1.3174 -0.3552
 2649SOL     OW 9623   5.579   0.064   4.471  0.0484 -0.0802  0.2328
 2649SOL    HW1 9624   5.671   0.079   4.451 -0.1284 -0.3033 -0.8279
 2649SOL    HW2 9625   5.565   0.104   4.556  1.4573 -1.3039  1.0498
 2650SOL     OW 9626   5.867   6.162   8.830 -0.0774 -0.0049  0.5456
 2650SOL    HW1 9627   5.822   6.129   8.753  0.8214 -0.5495  0.2444
 2650SOL    HW2 9628   5.911   6.085   8.867 -0.0673  0.3569  1.2993
 2651SOL     OW 9629   0.999   8.486   7.633 -0.0996  0.0763  1.0540
 2651SOL    HW1 9630   0.954   8.436   7.701  0.0717  0.1663  1.2359
 2651SOL    HW2 9631   0.961   8.574   7.639 -1.1021 -0.2853  0.0735
 2652SOL     OW 9632   2.061   7.552   7.504  0.0327  0.0865  0.3414
 2652SOL    HW1 9633   1.987   7.605   7.473  0.3348  0.1859 -0.2079
 2652SOL    HW2 9634   2.130   7.566   7.440 -0.6443 -2.8145 -1.1412
 2653SOL     OW 9635   8.581   8.175   1.020  0.7555  0.0068  0.0105
 2653SOL    HW1 9636   8.600   8.129   1.101  1.0508 -0.3242 -0.2469
 2653SOL    HW2 9637   8.547   8.260   1.048  0.4259 -0.2823  0.4778
 2654SOL     OW 9638   5.003   3.827   2.041  0.5455 -0.4189  0.1061
 2654SOL    HW1 9639   5.067   3.865   2.101  1.4975 -1.6839 -0.0864
 2654SOL    HW2 9640   4.965   3.754   2.090  0.7203 -0.9274 -0.5128
 2655SOL     OW 9641   4.468   2.756   7.098 -0.0593  0.6109 -0.4456
 2655SOL    HW1 9642   4.558   2.754   7.065 -0.1281 -0.1783 -0.5951
 2655SOL    HW2 9643   4.415   2.722   7.025 -0.3389 -0.0794  0.0701
 2656SOL     OW 9644   1.965   4.094   7.437 -0.3702  0.3607  0.0681
 2656SOL    HW1 9645   1.946   4.079   7.344 -0.8433  0.3883  0.1607
 2656SOL    HW2 9646   1.891   4.055   7.483  0.6998 -1.1802  0.5066
 2657SOL     OW 9647   4.798   9.153   3.983 -0.1258 -0.1313 -0.7390
 2657SOL    HW1 9648   4.808   9.238   4.026  0.8234 -0.3779 -0.4452
 2657SOL    HW2 9649   4.877   9.105   4.008 -0.0049 -0.6084 -1.9990
 2658SOL     OW 9650   0.257   4.457   8.385  0.1137  0.0007  0.5509
 2658SOL    HW1 9651   0.340   4.421   8.355  0.6441  1.5263  0.1723
 2658SOL    HW2 9652   0.279   4.504   8.465 -0.4867 -0.0763  0.7611
 2659SOL     OW 9653   8.769   0.279   5.245 -0.5994  0.0662  0.0980
 2659SOL    HW1 9654   8.700   0.215   5.230 -0.7001  0.4523 -1.1977
 2659SOL    HW2 9655   8.745   0.353   5.188  1.0351  0.0852 -0.5702
 2660SOL     OW 9656   0.835   6.983   9.051  0.4021  0.3259 -0.4318
 2660SOL    HW1 9657   0.760   7.034   9.021 -0.3009  0.3648  1.3405
 2660SOL    HW2 9658   0.797   6.901   9.083  1.0859  0.4140  0.6214
 2661SOL     OW 9659   1.957   1.078   1.479  0.4761 -0.5046  0.4513
 2661SOL    HW1 9660   2.018   1.141   1.516 -0.5774  0.6687  0.1989
 2661SOL    HW2 9661   1.961   1.093   1.384 -1.4536  0.7367  0.5515
 2662SOL     OW 9662   3.095   5.127   6.794  0.3210 -0.2384  0.3592
 2662SOL    HW1 9663   3.052   5.183   6.728  0.8211  0.5015  0.6528
 2662SOL    HW2 9664   3.101   5.041   6.752  1.9454  0.5778 -1.1365
 2663SOL     OW 9665   1.589   1.842   6.575 -0.8528  0.0444  0.3897
 2663SOL    HW1 9666   1.620   1.755   6.602 -0.6207 -0.0474 -0.1609
 2663SOL    HW2 9667   1.669   1.894   6.567 -0.8895 -0.0238 -0.4489
 2664SOL     OW 9668   8.082   5.254   0.348 -0.4190  0.1236 -0.1396
 2664SOL    HW1 9669   8.020   5.181   0.337 -0.2882 -0.0820  0.5172
 2664SOL    HW2 9670   8.131   5.233   0.427  1.3777 -0.3496 -1.3606
 2665SOL     OW 9671   3.555   8.394   6.852 -0.5343  0.4410  0.2489
 2665SOL    HW1 9672   3.616   8.439   6.910 -1.2969  0.7015  0.8490
 2665SOL    HW2 9673   3.512   8.329   6.907 -0.7466  0.2058 -0.1933
 2666SOL     OW 9674   7.689   2.564   5.058 -0.1623 -0.2216 -0.7120
 2666SOL    HW1 9675   7.670   2.472   5.037 -0.3955 -0.3710  0.1440
 2666SOL    HW2 9676   7.617   2.613   5.018 -1.5049 -0.6484  1.1194
 2667SOL     OW 9677   8.907   6.573   2.053  0.1044  0.4946  0.2561
 2667SOL    HW1 9678   8.870   6.661   2.066 -0.9821  0.0352  0.3838
 2667SOL    HW2 9679   8.830   6.516   2.050  0.8745 -0.6398  1.7095
 2668SOL     OW 9680   6.817   8.436   0.802  0.3053 -0.1811  1.2357
 2668SOL    HW1 9681   6.793   8.468   0.889 -0.3631  0.9524  0.6458
 2668SOL    HW2 9682   6.738   8.393   0.769 -0.0653  1.0963  0.4204
 2669SOL     OW 9683   6.241   2.850   0.197  0.5414  0.4383 -0.3158
 2669SOL    HW1 9684   6.266   2.778   0.255  0.6920  0.5446 -0.2459
 2669SOL    HW2 9685   6.164   2.889   0.239  0.2058  0.0580 -0.5760
 2670SOL     OW 9686   3.570   7.905   4.243  0.3168  0.3335 -0.2703
 2670SOL    HW1 9687   3.554   7.892   4.150 -1.1770  3.6480 -0.5384
 2670SOL    HW2 9688   3.486   7.886   4.285  0.9243 -0.9313  0.3887
 2671SOL     OW 9689   1.719   3.287   2.754  0.1194  0.0572 -0.1869
 2671SOL    HW1 9690   1.712   3.202   2.710  0.4388  1.1556 -2.4200
 2671SOL    HW2 9691   1.700   3.268   2.846  1.3495 -2.6269 -0.4435
 2672SOL     OW 9692   3.028   7.287   4.516 -0.1688  0.1603  0.3398
 2672SOL    HW1 9693   3.010   7.381   4.513  1.1039  0.4465  1.2501
 2672SOL    HW2 9694   3.046   7.263   4.425  1.5805  1.2207  0.3914
 2673SOL     OW 9695   9.164   2.514   7.344 -0.0382  0.0262  0.0820
 2673SOL    HW1 9696   9.124   2.585   7.294  1.1756  1.3006  0.9171
 2673SOL    HW2 9697   9.128   2.434   7.304  1.6735  0.9548 -3.5417
 2674SOL     OW 9698   2.471   8.126   0.211 -0.1537 -0.1253 -0.1285
 2674SOL    HW1 9699   2.559   8.157   0.190 -0.0840 -0.9179 -1.0364
 2674SOL    HW2 9700   2.415   8.169   0.147 -0.4414  0.4272  0.4915
 2675SOL     OW 9701   1.446   7.892   7.148  0.0403  0.1237 -0.0993
 2675SOL    HW1 9702   1.381   7.961   7.166  0.3648  0.9084 -1.8403
 2675SOL    HW2 9703   1.403   7.812   7.177 -1.5113  0.7042 -0.7088
 2676SOL     OW 9704   4.788   0.940   4.055  0.3507 -0.2247 -0.4612
 2676SOL    HW1 9705   4.774   1.033   4.033 -0.5684 -0.1227  0.4977
 2676SOL    HW2 9706   4.824   0.942   4.144  0.5603 -0.7809 -0.5354
 2677SOL     OW 9707   8.842   1.406   4.834 -0.1420 -0.5133 -0.3269
 2677SOL    HW1 9708   8.907   1.336   4.840  0.3730 -0.1844 -1.7749
 2677SOL    HW2 9709   8.892   1.483   4.805 -0.9114  0.1331  0.0352
 2678SOL     OW 9710   2.289   3.504   7.731 -0.0633 -0.2135 -0.6240
 2678SOL    HW1 9711   2.259   3.541   7.647 -1.0874 -1.0712 -0.6376
 2678SOL    HW2 9712   2.256   3.415   7.731  0.9636 -0.6020  0.1800
 2679SOL     OW 9713   6.702   4.981   2.089  0.8279  0.3524  0.0808
 2679SOL    HW1 9714   6.749   4.976   2.006  0.1624 -3.6925 -0.1496
 2679SOL    HW2 9715   6.770   4.972   2.156  1.0487  0.7516 -0.0891
 2680SOL     OW 9716   6.654   6.837   0.159 -0.4442  0.5003 -0.2983
 2680SOL    HW1 9717   6.585   6.836   0.226 -1.3763  0.1929 -1.2402
 2680SOL    HW2 9718   6.700   6.920   0.172  0.7700 -0.5190  2.0987
 2681SOL     OW 9719   4.351   6.254   1.082  0.4929 -0.1151  0.5959
 2681SOL    HW1 9720   4.421   6.230   1.142  0.9926 -1.2260 -0.4162
 2681SOL    HW2 9721   4.395   6.297   1.009 -0.0696  0.8530  0.8128
 2682SOL     OW 9722   3.523   0.944   7.157  0.3291  0.9348 -0.0926
 2682SOL    HW1 9723   3.574   0.894   7.093 -2.6140 -0.3793 -1.4963
 2682SOL    HW2 9724   3.507   1.028   7.114  1.0390  1.2682  0.2653
 2683SOL     OW 9725   0.332   2.567   3.979 -0.5180 -0.3222  0.4280
 2683SOL    HW1 9726   0.262   2.563   3.914  0.9389 -0.2784 -1.1637
 2683SOL    HW2 9727   0.301   2.630   4.043 -0.1855  2.8829 -2.4274
 2684SOL     OW 9728   7.965   1.612   3.584 -0.1517 -0.4148  0.5966
 2684SOL    HW1 9729   7.871   1.594   3.592 -0.2000 -0.6755 -0.3881
 2684SOL    HW2 9730   7.969   1.697   3.541  0.0822  1.1496  3.5885
 2685SOL     OW 9731   8.297   3.076   0.803 -0.5990 -0.0221 -0.0820
 2685SOL    HW1 9732   8.299   3.050   0.711  1.4329 -1.7303  0.3911
 2685SOL    HW2 9733   8.390   3.079   0.829 -1.1563  0.1167  1.9828
 2686SOL     OW 9734   5.006   4.666   3.071  0.0590 -0.5543 -0.2720
 2686SOL    HW1 9735   5.079   4.655   3.009  0.6761  0.1034  0.3244
 2686SOL    HW2 9736   4.990   4.760   3.072 -1.2889 -0.7722 -0.9349
 2687SOL     OW 9737   1.928   3.844   1.978  0.1513 -0.1320 -0.8797
 2687SOL    HW1 9738   1.974   3.915   2.022 -0.6290 -0.6226  0.7745
 2687SOL    HW2 9739   1.990   3.771   1.977 -0.3751 -0.6453  0.9322
 2688SOL     OW 9740   2.839   2.629   2.429  0.0629 -0.0035 -0.2398
 2688SOL    HW1 9741   2.895   2.706   2.427 -0.0581  0.0697 -0.9624
 2688SOL    HW2 9742   2.873   2.577   2.502 -0.0799  0.8913  0.4752
 2689SOL     OW 9743   7.701   4.376   1.191 -0.0428 -0.4461 -0.1209
 2689SOL    HW1 9744   7.666   4.418   1.112 -0.9846  0.4219  0.7620
 2689SOL    HW2 9745   7.773   4.321   1.158  0.3316  0.8010 -1.4494
 2690SOL     OW 9746   9.051   6.664   0.055  0.1047  0.5272 -0.4808
 2690SOL    HW1 9747   9.135   6.620   0.071  0.9880  1.9513 -1.1096
 2690SOL    HW2 9748   9.071   6.730  -0.011 -0.7460  3.2302  1.8449
 2691SOL     OW 9749   1.196   6.306   2.563 -0.2950 -0.0878 -0.4739
 2691SOL    HW1 9750   1.154   6.279   2.481 -0.7782  0.6333 -0.4717
 2691SOL    HW2 9751   1.289   6.303   2.545 -0.4309  1.2755 -1.4367
 2692SOL     OW 9752   4.487   1.253   9.216 -0.2901 -0.6130 -0.0959
 2692SOL    HW1 9753   4.544   1.250   9.292  0.1332 -1.0192 -0.4250
 2692SOL    HW2 9754   4.469   1.346   9.202 -2.2385 -0.6515  1.8759
 2693SOL     OW 9755   4.108   4.369   7.555  0.0360  0.0558  0.3905
 2693SOL    HW1 9756   4.154   4.442   7.597  0.9260  0.4415 -1.2021
 2693SOL    HW2 9757   4.160   4.292   7.578  0.4447  0.2474  0.1181
 2694SOL     OW 9758   6.619   5.581   7.889 -0.0769  0.5418 -0.4124
 2694SOL    HW1 9759   6.679   5.507   7.897 -1.2839 -0.3337  0.6802
 2694SOL    HW2 9760   6.613   5.596   7.794  0.6863 -0.3165 -0.6127
 2695SOL     OW 9761   8.527   6.195   3.339 -0.1023  0.7669 -0.1164
 2695SOL    HW1 9762   8.462   6.172   3.272 -0.2031  0.2987  0.1387
 2695SOL    HW2 9763   8.476   6.235   3.409 -0.4595 -1.7973  1.1425
 2696SOL     OW 9764   3.954   7.285   6.305 -0.1198  0.3148 -0.3761
 2696SOL    HW1 9765   3.956   7.347   6.233  2.0636  1.3611  0.5281
 2696SOL    HW2 9766   4.043   7.248   6.308 -0.3853 -0.2625  1.2614
 2697SOL     OW 9767   1.380   5.238   5.917 -0.4941  0.4378 -0.0959
 2697SOL    HW1 9768   1.307   5.280   5.871 -0.1888 -1.3569 -2.3319
 2697SOL    HW2 9769   1.411   5.172   5.855  2.6781  0.8030  1.0524
 2698SOL     OW 9770   3.144   4.987   1.183  0.1451 -0.3037 -1.1395
 2698SOL    HW1 9771   3.131   5.058   1.246 -0.0949  1.3024 -2.9484
 2698SOL    HW2 9772   3.057   4.971   1.148  0.6784  0.6121 -2.9292
 2699SOL     OW 9773   1.797   6.980   5.386  0.1569  0.0522  0.1543
 2699SOL    HW1 9774   1.888   7.006   5.401 -0.3359  0.7587  2.0169
 2699SOL    HW2 9775   1.800   6.885   5.383  0.9710  0.0741  0.0552
 2700SOL     OW 9776   0.500   7.756   7.103  0.4471  0.4110  0.0110
 2700SOL    HW1 9777   0.557   7.832   7.117 -0.2010  1.1656 -1.3071
 2700SOL    HW2 9778   0.551   7.681   7.135  0.7981  1.4787  1.9839
 2701SOL     OW 9779   5.359   8.773   2.736  0.0433  0.7170  0.6820
 2701SOL    HW1 9780   5.440   8.722   2.728  0.0950  0.8945  0.0484
 2701SOL    HW2 9781   5.377   8.855   2.689 -0.6408  0.5912  0.1849
 2702SOL     OW 9782   2.262   8.749   9.217  0.1124  0.4981  0.3592
 2702SOL    HW1 9783   2.310   8.806   9.156 -0.0124 -0.2531 -0.4446
 2702SOL    HW2 9784   2.181   8.798   9.235 -0.2868  0.2981 -0.8339
 2703SOL     OW 9785   1.775   2.051   1.505 -0.3460  0.5010  0.1433
 2703SOL    HW1 9786   1.690   2.095   1.508 -0.1512  0.8407  0.7217
 2703SOL    HW2 9787   1.763   1.981   1.441 -0.3420  2.0440 -1.5930
 2704SOL     OW 9788   5.282   6.864   1.207 -0.2200 -0.4537 -0.4157
 2704SOL    HW1 9789   5.300   6.821   1.124 -2.4150 -1.7197 -0.2753
 2704SOL    HW2 9790   5.196   6.906   1.194 -1.3269 -2.0138  1.7068
 2705SOL     OW 9791   7.276   4.111   4.209  0.2414  0.0370 -0.0362
 2705SOL    HW1 9792   7.371   4.116   4.213  0.1998  0.5670  0.3214
 2705SOL    HW2 9793   7.252   4.162   4.131  0.2816 -0.5182 -0.4150
 2706SOL     OW 9794   8.809   1.122   6.641 -0.0927 -0.3045  0.5106
 2706SOL    HW1 9795   8.891   1.080   6.667 -0.2278 -1.1675 -0.4147
 2706SOL    HW2 9796   8.833   1.174   6.564 -0.4383 -0.6855  0.1423
 2707SOL     OW 9797   4.032   4.452   2.919  0.5291  0.6961  0.0997
 2707SOL    HW1 9798   4.018   4.500   2.837  0.4276  0.8285  0.1931
 2707SOL    HW2 9799   4.127   4.438   2.922  0.3084 -1.3868 -1.1966
 2708SOL     OW 9800   0.343   4.972   6.985 -0.1624  0.6269 -0.1778
 2708SOL    HW1 9801   0.433   4.988   6.958 -0.2842 -0.3295 -1.1719
 2708SOL    HW2 9802   0.325   4.882   6.959 -1.1634  0.5541  0.6948
 2709SOL     OW 9803   1.530   8.063   1.114 -0.3215 -0.8836 -0.2091
 2709SOL    HW1 9804   1.525   8.013   1.032 -0.4533 -0.0242 -0.7263
 2709SOL    HW2 9805   1.480   8.010   1.177  1.0662 -2.3150 -0.2777
 2710SOL     OW 9806   2.790   2.359   4.782 -0.1604 -0.0567  0.1483
 2710SOL    HW1 9807   2.787   2.388   4.691  1.8951 -0.1475  0.0287
 2710SOL    HW2 9808   2.708   2.391   4.820 -0.4995  1.0049 -1.4320
 2711SOL     OW 9809   7.354   6.544   0.373 -0.1881  0.6689 -0.1593
 2711SOL    HW1 9810   7.398   6.504   0.449  1.3920  1.9961 -0.3427
 2711SOL    HW2 9811   7.411   6.523   0.299 -0.9084  0.7137 -0.7279
 2712SOL     OW 9812   0.897   3.295   5.260 -0.2453 -0.2445  0.2707
 2712SOL    HW1 9813   0.824   3.294   5.321 -0.0473  0.0858  0.5138
 2712SOL    HW2 9814   0.873   3.232   5.192 -0.9913  0.2423  0.0791
 2713SOL     OW 9815   4.586   3.619   8.888 -0.2923  0.4362  0.9357
 2713SOL    HW1 9816   4.623   3.539   8.851 -1.3013  0.8403 -0.9691
 2713SOL    HW2 9817   4.633   3.630   8.971  1.2895 -1.0171  0.2686
 2714SOL     OW 9818   3.895   4.121   0.356  0.2940 -0.2612 -0.1661
 2714SOL    HW1 9819   3.957   4.069   0.305  0.8104 -0.5639  0.7642
 2714SOL    HW2 9820   3.809   4.091   0.326  0.5943 -0.4756 -0.8196
 2715SOL     OW 9821   3.176   5.545   5.094  0.1163 -0.7220  0.4695
 2715SOL    HW1 9822   3.254   5.546   5.150 -0.0286 -0.8308  0.6762
 2715SOL    HW2 9823   3.131   5.627   5.113  0.5978 -0.2867 -0.2467
 2716SOL     OW 9824   9.209   0.072   2.031  0.1392  0.4078 -0.0602
 2716SOL    HW1 9825   9.224  -0.011   1.987  1.0922  0.2805  0.4939
 2716SOL    HW2 9826   9.146   0.118   1.975  1.2103  0.1869 -1.4674
 2717SOL     OW 9827   2.170   0.993   0.988  0.1718  0.3764  0.1606
 2717SOL    HW1 9828   2.256   0.999   0.946 -0.1629  0.2074 -0.5600
 2717SOL    HW2 9829   2.164   1.071   1.043  0.2156  1.1351 -0.8897
 2718SOL     OW 9830   5.099   6.521   5.529  0.1927  0.8087 -0.2524
 2718SOL    HW1 9831   5.012   6.491   5.501 -0.1898  0.6084  1.0700
 2718SOL    HW2 9832   5.160   6.467   5.479 -0.4793 -0.8314  0.6570
 2719SOL     OW 9833   3.928   7.285   5.998  0.3669  0.0545  0.5933
 2719SOL    HW1 9834   3.994   7.233   5.952 -1.0995 -2.1676  0.9263
 2719SOL    HW2 9835   3.850   7.278   5.944 -0.0517  1.3395  1.0232
 2720SOL     OW 9836   3.817   8.790   6.557 -0.3375  0.1806  0.3505
 2720SOL    HW1 9837   3.823   8.721   6.624  0.6165  0.4512  0.5605
 2720SOL    HW2 9838   3.747   8.761   6.499  1.4242 -2.0358 -0.7487
 2721SOL     OW 9839   1.523   0.404   0.361  0.1962  0.3095 -0.1930
 2721SOL    HW1 9840   1.469   0.326   0.351  2.9409 -1.4936 -1.6448
 2721SOL    HW2 9841   1.492   0.463   0.292 -0.0725 -0.6438 -0.9030
 2722SOL     OW 9842   6.125   2.114   0.844 -0.1146 -0.0042 -0.3974
 2722SOL    HW1 9843   6.058   2.147   0.905  0.0681  0.1758 -0.2914
 2722SOL    HW2 9844   6.100   2.024   0.827 -0.8436  0.3089 -0.9912
 2723SOL     OW 9845   9.222   3.068   1.288 -0.2647  0.2081 -0.1223
 2723SOL    HW1 9846   9.139   3.036   1.324  0.5630  0.4131  2.0402
 2723SOL    HW2 9847   9.286   3.052   1.357  1.1581  1.7890 -1.0309
 2724SOL     OW 9848   4.207   5.019   0.633 -0.2777 -0.3270  0.1231
 2724SOL    HW1 9849   4.251   5.033   0.550 -2.2943 -1.0675 -1.0944
 2724SOL    HW2 9850   4.151   5.096   0.645  0.2819 -0.0386  1.0010
 2725SOL     OW 9851   5.985   6.451   8.072 -0.1321 -0.5622 -0.5458
 2725SOL    HW1 9852   5.964   6.479   8.160 -1.4462  2.3752 -1.7351
 2725SOL    HW2 9853   6.070   6.491   8.054  2.3567 -4.8411  0.9142
 2726SOL     OW 9854   9.097   5.302   5.063  0.3030  0.3231 -0.6796
 2726SOL    HW1 9855   9.110   5.397   5.062 -1.5656  0.6405  1.3380
 2726SOL    HW2 9856   9.185   5.267   5.077  1.3611  1.6070 -3.5586
 2727SOL     OW 9857   3.053   2.015   0.725 -0.6445 -0.3718  0.4232
 2727SOL    HW1 9858   2.992   2.067   0.674  0.5015  0.4569 -0.1325
 2727SOL    HW2 9859   3.000   1.978   0.796 -1.8000  0.2323 -0.1166
 2728SOL     OW 9860   7.169   8.197   4.648 -0.1140 -0.5289 -0.5108
 2728SOL    HW1 9861   7.156   8.109   4.684 -1.4656 -0.4455 -0.7649
 2728SOL    HW2 9862   7.082   8.236   4.648  0.4462  0.7510 -0.5745
 2729SOL     OW 9863   6.949   0.844   2.274  0.1372  0.1750  0.6308
 2729SOL    HW1 9864   6.996   0.907   2.329  0.8944 -0.9362  1.2613
 2729SOL    HW2 9865   6.870   0.824   2.323  0.3028 -0.0082  0.8238
 2730SOL     OW 9866   4.036   2.564   5.875  0.5940  0.0984  0.1268
 2730SOL    HW1 9867   4.009   2.554   5.783 -0.5928 -1.0364  0.5917
 2730SOL    HW2 9868   3.954   2.574   5.923  1.1720 -0.1857  1.1859
 2731SOL     OW 9869   6.968   5.044   6.980  0.6096  0.1316 -0.5486
 2731SOL    HW1 9870   7.029   5.027   6.907  0.2569 -1.6206 -0.4630
 2731SOL    HW2 9871   6.898   4.981   6.967  0.1215  0.3832  0.8463
 2732SOL     OW 9872   6.116   3.049   4.341 -0.9438 -0.4900 -0.2941
 2732SOL    HW1 9873   6.069   3.132   4.342 -1.3869 -0.7403  0.8781
 2732SOL    HW2 9874   6.204   3.071   4.310 -1.4520  0.1970 -1.2502
 2733SOL     OW 9875   2.540   8.697   1.785  0.4510 -0.3452  0.2100
 2733SOL    HW1 9876   2.505   8.761   1.722 -1.7149  0.3356  2.0534
 2733SOL    HW2 9877   2.464   8.647   1.813  2.0120 -3.3283 -0.6567
 2734SOL     OW 9878   9.043   7.493   3.367  0.2557  0.1303  0.6496
 2734SOL    HW1 9879   9.024   7.400   3.355 -0.3166 -0.0640  2.7651
 2734SOL    HW2 9880   9.132   7.504   3.335  0.1543 -1.0401 -0.0625
 2735SOL     OW 9881   5.777   5.358   4.392  0.6204 -0.1036  0.0766
 2735SOL    HW1 9882   5.823   5.424   4.444 -0.6497  0.2138  0.8008
 2735SOL    HW2 9883   5.786   5.277   4.442 -0.3087  0.1315  0.6348
 2736SOL     OW 9884   6.640   2.711   8.973 -0.6326  0.3784 -0.5047
 2736SOL    HW1 9885   6.689   2.683   9.051  0.7956  1.0925 -1.1163
 2736SOL    HW2 9886   6.635   2.806   8.981  0.2279  0.5316 -1.6644
 2737SOL     OW 9887   8.793   2.836   6.742  0.4877 -0.1946  0.1128
 2737SOL    HW1 9888   8.822   2.906   6.801  1.1330 -1.4338  1.2790
 2737SOL    HW2 9889   8.840   2.758   6.771  0.6493 -0.8853 -1.9120
 2738SOL     OW 9890   2.507   5.580   5.776  0.4617 -0.1989  0.6481
 2738SOL    HW1 9891   2.484   5.503   5.724 -0.9545  1.1977 -0.8343
 2738SOL    HW2 9892   2.465   5.565   5.861 -0.5145 -0.6874  0.0938
 2739SOL     OW 9893   1.834   3.867   4.106 -0.1578  0.1006 -0.2329
 2739SOL    HW1 9894   1.918   3.859   4.151 -0.3868  0.6854  0.2968
 2739SOL    HW2 9895   1.854   3.842   4.015  0.1747 -1.6636  0.3000
 2740SOL     OW 9896   1.393   4.640   3.144  0.0327 -0.2437  0.4032
 2740SOL    HW1 9897   1.310   4.661   3.186  0.3161 -0.5752  1.1428
 2740SOL    HW2 9898   1.412   4.716   3.089 -0.9029 -0.2939  0.0083
 2741SOL     OW 9899   7.871   6.776   5.706 -0.1146 -0.7539  0.5539
 2741SOL    HW1 9900   7.780   6.763   5.678  1.0194 -1.8218 -2.9385
 2741SOL    HW2 9901   7.881   6.871   5.709 -1.3174 -0.6201  0.8826
 2742SOL     OW 9902   1.360   3.712   7.564  0.2323 -0.7833  0.4979
 2742SOL    HW1 9903   1.383   3.668   7.646  0.1652 -3.0562 -0.6652
 2742SOL    HW2 9904   1.321   3.794   7.592  2.4624 -0.3917  2.7009
 2743SOL     OW 9905   5.508   2.842   8.125  0.0910  0.0974 -0.2621
 2743SOL    HW1 9906   5.539   2.893   8.200 -0.8443  0.7263 -0.2936
 2743SOL    HW2 9907   5.572   2.858   8.056  0.7190 -0.1320  0.2673
 2744SOL     OW 9908   6.185   1.475   8.279 -0.2565 -0.0885  0.3241
 2744SOL    HW1 9909   6.122   1.536   8.241 -0.4024 -0.6306 -0.3044
 2744SOL    HW2 9910   6.269   1.519   8.271 -0.4410  0.2840  0.4205
 2745SOL     OW 9911   6.550   2.791   5.203  0.1047  0.1531  0.0420
 2745SOL    HW1 9912   6.524   2.719   5.145 -0.2192  1.4199 -1.3919
 2745SOL    HW2 9913   6.467   2.829   5.232  0.2846  0.3020  0.3679
 2746SOL     OW 9914   8.028   3.113   1.591  0.7258  0.6416 -0.0173
 2746SOL    HW1 9915   7.985   3.152   1.514  0.1601 -0.5512 -0.3363
 2746SOL    HW2 9916   8.003   3.170   1.664 -0.9877  0.2796 -0.2894
 2747SOL     OW 9917   7.481   0.273   1.194  0.6847  0.3474  0.5739
 2747SOL    HW1 9918   7.562   0.242   1.154 -0.4986 -0.2511 -1.4758
 2747SOL    HW2 9919   7.448   0.198   1.244  0.3196 -0.1315 -0.3659
 2748SOL     OW 9920   7.451   3.545   8.871 -0.1946 -0.2972  0.0889
 2748SOL    HW1 9921   7.487   3.462   8.903  1.1876  0.0731 -0.4866
 2748SOL    HW2 9922   7.395   3.519   8.798 -0.0019 -0.7497  0.0984
 2749SOL     OW 9923   3.746   0.841   5.807  0.1853 -0.5231 -0.4528
 2749SOL    HW1 9924   3.801   0.906   5.763  0.5950 -1.6276 -1.6094
 2749SOL    HW2 9925   3.766   0.851   5.900  0.7473  0.5425 -0.6788
 2750SOL     OW 9926   9.127   1.765   5.337 -0.0182  0.1415  0.0743
 2750SOL    HW1 9927   9.089   1.848   5.308 -0.4946  0.2025  0.8686
 2750SOL    HW2 9928   9.162   1.784   5.424 -1.0715 -0.7559  0.7026
 2751SOL     OW 9929   2.432   4.566   2.860  0.3102 -0.1344  0.3506
 2751SOL    HW1 9930   2.452   4.626   2.932  2.3206 -1.0202  0.5589
 2751SOL    HW2 9931   2.413   4.623   2.786  2.1318  0.7868  0.5720
 2752SOL     OW 9932   4.858   0.343   1.823  0.2435  0.2450  0.0760
 2752SOL    HW1 9933   4.809   0.411   1.777  0.4324  1.2004  1.2628
 2752SOL    HW2 9934   4.859   0.269   1.762 -0.9876  0.8878 -0.7465
 2753SOL     OW 9935   8.436   5.275   5.836 -0.4451 -0.0984  0.7321
 2753SOL    HW1 9936   8.402   5.363   5.854  0.6472  0.3156  0.8156
 2753SOL    HW2 9937   8.434   5.267   5.741  1.5532  0.8946  0.5763
 2754SOL     OW 9938   8.171   8.095   1.144 -0.6313  0.2579  0.0526
 2754SOL    HW1 9939   8.184   8.161   1.076 -1.2639  0.4078  0.0700
 2754SOL    HW2 9940   8.076   8.085   1.150 -0.5339 -1.0224 -0.3157
 2755SOL     OW 9941   4.416   6.107   0.276 -0.1326 -0.3836  0.0846
 2755SOL    HW1 9942   4.358   6.161   0.223  1.4116  0.7381 -0.5222
 2755SOL    HW2 9943   4.367   6.027   0.292 -1.6730  0.3740 -0.7470
 2756SOL     OW 9944   8.172   1.959   2.868 -0.3197 -0.4176 -0.4820
 2756SOL    HW1 9945   8.199   1.893   2.804 -1.5144 -1.1235 -0.2670
 2756SOL    HW2 9946   8.162   1.910   2.949 -1.1341  0.0421 -0.3019
 2757SOL     OW 9947   1.072   9.086   2.148 -0.7440  0.8247 -0.1484
 2757SOL    HW1 9948   1.071   9.009   2.205 -0.1239  0.7603 -0.2240
 2757SOL    HW2 9949   1.011   9.147   2.189 -0.4367  0.7096  0.4871
 2758SOL     OW 9950   1.502   0.465   9.190 -1.0370  0.0959  0.2084
 2758SOL    HW1 9951   1.454   0.412   9.126 -2.2049 -0.2220  1.3191
 2758SOL    HW2 9952   1.592   0.466   9.157 -1.3341 -1.2052 -0.7140
 2759SOL     OW 9953   8.755   2.346   5.916 -0.2640  0.4893  0.1092
 2759SOL    HW1 9954   8.794   2.275   5.967  0.8219  2.4439  2.1193
 2759SOL    HW2 9955   8.830   2.402   5.895 -1.2384  1.4944 -0.6612
 2760SOL     OW 9956   6.265   6.987   6.979 -0.5391  0.0191  0.4337
 2760SOL    HW1 9957   6.304   6.903   6.957 -0.9335  0.3452 -1.5712
 2760SOL    HW2 9958   6.284   7.043   6.903 -1.0559  1.4707  1.3554
 2761SOL     OW 9959   8.681   7.897   8.138  0.1946  0.5268  0.0079
 2761SOL    HW1 9960   8.700   7.899   8.232 -0.6869 -1.6087  0.2435
 2761SOL    HW2 9961   8.767   7.888   8.097  0.3476 -1.6158  0.7587
 2762SOL     OW 9962   0.202   5.707   2.485  0.5695  0.2298 -0.3112
 2762SOL    HW1 9963   0.217   5.778   2.547  0.8461  0.3624 -0.5285
 2762SOL    HW2 9964   0.114   5.676   2.504  0.6813  0.2172  0.2051
 2763SOL     OW 9965   0.022   9.039   6.674 -0.6593 -0.3237  0.3065
 2763SOL    HW1 9966  -0.028   8.970   6.717 -0.6786 -0.9974 -0.7527
 2763SOL    HW2 9967   0.106   9.039   6.719 -0.6682 -1.0356  0.3393
 2764SOL     OW 9968   0.173   4.760   0.331 -0.0809  0.0615 -0.2781
 2764SOL    HW1 9969   0.220   4.684   0.367  0.3924 -0.0442 -1.0988
 2764SOL    HW2 9970   0.216   4.836   0.371 -0.6871 -0.1044  0.7008
 2765SOL     OW 9971   4.079   8.334   2.645  0.0573  0.2874 -0.4476
 2765SOL    HW1 9972   4.101   8.255   2.596 -1.0637  0.1812 -0.7975
 2765SOL    HW2 9973   4.001   8.310   2.696 -0.9710  1.4985 -1.4190
 2766SOL     OW 9974   7.178   4.817   5.157  0.2235 -0.1753 -0.1178
 2766SOL    HW1 9975   7.123   4.770   5.094 -0.6445  1.5243 -0.6829
 2766SOL    HW2 9976   7.264   4.776   5.151 -0.0849 -0.5903 -1.7923
 2767SOL     OW 9977   1.953   0.647   1.544  0.4892 -0.2768  0.5210
 2767SOL    HW1 9978   2.017   0.601   1.599  1.1701 -0.6233 -0.5458
 2767SOL    HW2 9979   2.006   0.708   1.492  0.1104 -1.3970 -1.2276
 2768SOL     OW 9980   3.378   3.156   4.077  0.2702 -0.1291  0.4246
 2768SOL    HW1 9981   3.412   3.104   4.004  0.4376  0.5893 -0.0179
 2768SOL    HW2 9982   3.293   3.188   4.046  0.7514  0.9425  0.1720
 2769SOL     OW 9983   7.401   1.186   7.962  0.1715 -0.5335  0.2525
 2769SOL    HW1 9984   7.351   1.246   8.017 -1.1278 -1.7093  0.4067
 2769SOL    HW2 9985   7.338   1.117   7.939  1.9679 -2.5470  1.1976
 2770SOL     OW 9986   5.193   4.389   6.597 -0.4495  0.1681 -0.3661
 2770SOL    HW1 9987   5.236   4.317   6.643  0.9346  0.3865 -1.2912
 2770SOL    HW2 9988   5.196   4.462   6.659  0.9160  0.3022 -0.5595
 2771SOL     OW 9989   0.597   3.685   4.243 -0.0052  0.9995  0.2127
 2771SOL    HW1 9990   0.591   3.764   4.297 -0.2251  0.5019  0.9154
 2771SOL    HW2 9991   0.517   3.686   4.190 -1.4975 -0.3223  2.3716
 2772SOL     OW 9992   2.471   5.771   2.599 -0.8752 -0.1754 -0.0901
 2772SOL    HW1 9993   2.538   5.816   2.651 -1.4385  0.2751  0.2510
 2772SOL    HW2 9994   2.406   5.839   2.580 -1.2473 -0.6160 -0.3990
 2773SOL     OW 9995   0.100   4.985   4.263  0.2366  0.4405 -0.2499
 2773SOL    HW1 9996   0.101   4.890   4.276  1.8619  0.1243 -2.2882
 2773SOL    HW2 9997   0.039   4.999   4.190 -0.5461  1.0528  0.5080
 2774SOL     OW 9998   1.826   8.978   6.406 -0.2941 -1.0032 -0.4219
 2774SOL    HW1 9999   1.788   8.918   6.342  0.7715 -0.7812 -1.2771
 2774SOL    HW210000   1.794   9.065   6.380  0.8313 -0.8099 -1.1762
 2775SOL     OW10001   2.824   1.105   3.269  0.2376  0.5373 -0.3072
 2775SOL    HW110002   2.879   1.118   3.346 -0.2523 -0.2564  0.1908
 2775SOL    HW210003   2.850   1.019   3.235 -0.2522  0.4358 -0.4288
 2776SOL     OW10004   8.325   0.675   1.341 -0.6988 -0.0047 -0.3031
 2776SOL    HW110005   8.361   0.674   1.252 -1.1274  0.7124 -0.4808
 2776SOL    HW210006   8.266   0.750   1.343 -0.3923  0.2161  0.7067
 2777SOL     OW10007   0.659   4.500   1.123  0.1942  0.2209 -0.2210
 2777SOL    HW110008   0.603   4.452   1.063  0.4283  0.2883 -0.4985
 2777SOL    HW210009   0.748   4.469   1.102  0.2811  0.2928  0.0445
 2778SOL     OW10010   4.767   4.976   1.896 -0.2262 -0.1095  0.1962
 2778SOL    HW110011   4.771   5.071   1.907  0.2383 -0.3043  1.9237
 2778SOL    HW210012   4.688   4.961   1.844  1.0623  1.3674 -2.2691
 2779SOL     OW10013   8.103   5.201   7.880  0.2093 -0.0586  0.3796
 2779SOL    HW110014   8.013   5.185   7.852  0.6408 -2.1025  0.0490
 2779SOL    HW210015   8.095   5.253   7.960 -1.2201  0.5484 -0.1456
 2780SOL     OW10016   4.425   3.385   4.792 -0.4285  0.1620  0.3439
 2780SOL    HW110017   4.451   3.431   4.712 -0.2266  3.1612  2.0504
 2780SOL    HW210018   4.352   3.437   4.826 -1.9253 -2.2963  1.0314
 2781SOL     OW10019   1.490   1.832   5.749  0.2442 -0.5018 -0.2707
 2781SOL    HW110020   1.399   1.811   5.770 -0.2446  1.2570 -0.5547
 2781SOL    HW210021   1.537   1.818   5.831 -1.2659  4.0927  1.5687
 2782SOL     OW10022   6.845   7.917   1.163 -0.7308  0.1155 -0.9219
 2782SOL    HW110023   6.933   7.950   1.181 -0.7892 -0.3033  0.1695
 2782SOL    HW210024   6.838   7.838   1.216 -1.7143  0.0729 -1.1104
 2783SOL     OW10025   1.279   1.309   9.030 -0.0445  0.0259 -0.1644
 2783SOL    HW110026   1.320   1.235   9.076 -0.5789  1.2508  2.3617
 2783SOL    HW210027   1.195   1.276   9.000 -0.7842 -0.0643  1.9819
 2784SOL     OW10028   0.323   3.473   6.512 -1.1596  0.6041 -0.0874
 2784SOL    HW110029   0.351   3.442   6.599 -0.8556 -1.4975 -0.8921
 2784SOL    HW210030   0.230   3.493   6.522 -1.6922 -1.8287  0.1999
 2785SOL     OW10031   2.864   8.295   1.461 -0.2252  0.4921  0.5023
 2785SOL    HW110032   2.811   8.289   1.382 -0.1934  0.8404  0.4517
 2785SOL    HW210033   2.931   8.360   1.440  0.8724 -0.7052  0.1891
 2786SOL     OW10034   1.560   3.013   6.215 -0.0778  0.0829  0.6108
 2786SOL    HW110035   1.474   2.973   6.206  0.6933 -1.3405 -0.7477
 2786SOL    HW210036   1.588   3.031   6.125  1.2394  0.0802  1.0018
 2787SOL     OW10037   4.210   2.994   5.782  0.8717 -0.4405 -0.4993
 2787SOL    HW110038   4.298   3.025   5.757  1.4375  0.5204  2.4892
 2787SOL    HW210039   4.173   3.067   5.831 -0.3981 -2.0203  0.9213
 2788SOL     OW10040   7.504   5.824   9.174  0.5585  0.5017 -0.2238
 2788SOL    HW110041   7.502   5.866   9.260  1.7545  0.7273 -0.2962
 2788SOL    HW210042   7.484   5.732   9.192 -2.4545  1.1197 -0.1045
 2789SOL     OW10043   1.540   3.661   1.815 -0.0385 -0.4757  0.1579
 2789SOL    HW110044   1.566   3.571   1.834 -0.2055 -0.3846  0.8420
 2789SOL    HW210045   1.597   3.715   1.870 -0.0357 -0.1700 -0.1419
 2790SOL     OW10046   6.353   8.148   2.563  0.1273  0.9219 -0.1574
 2790SOL    HW110047   6.362   8.205   2.487  0.3292  0.2768 -0.6210
 2790SOL    HW210048   6.312   8.068   2.529 -0.6530  0.9932  0.5826
 2791SOL     OW10049   4.315   5.002   3.829  0.7218 -0.2724 -0.0598
 2791SOL    HW110050   4.408   5.023   3.831  0.5216  0.6940 -0.6966
 2791SOL    HW210051   4.312   4.907   3.819  1.6412 -0.0224 -2.9760
 2792SOL     OW10052   1.263   7.708   3.569 -0.2916  0.3737  0.0822
 2792SOL    HW110053   1.237   7.745   3.653 -0.3148 -0.3040  0.3816
 2792SOL    HW210054   1.335   7.762   3.540  0.8366 -0.4063  1.3594
 2793SOL     OW10055   7.827   5.941   4.461  0.3034  0.0962 -0.1574
 2793SOL    HW110056   7.813   5.864   4.516  1.6773  0.1333  0.2764
 2793SOL    HW210057   7.781   5.922   4.380 -2.6787  0.5006  1.3796
 2794SOL     OW10058   4.115   0.408   5.347 -0.0172  0.3329  0.3154
 2794SOL    HW110059   4.087   0.318   5.364 -1.8142  1.1044  1.5059
 2794SOL    HW210060   4.095   0.422   5.254 -0.9219 -0.0749  0.4422
 2795SOL     OW10061   6.265   1.970   3.088 -0.3360 -0.0966  0.0254
 2795SOL    HW110062   6.183   1.958   3.136 -1.6891 -0.4134 -2.3208
 2795SOL    HW210063   6.279   1.888   3.042  0.9287  0.2294 -0.2102
 2796SOL     OW10064   1.661   1.458   2.970  0.1302  0.0169 -0.0145
 2796SOL    HW110065   1.690   1.369   2.948  1.7757  0.7721 -0.9844
 2796SOL    HW210066   1.572   1.464   2.935 -0.6170 -1.7760  1.5028
 2797SOL     OW10067   5.400   6.706   3.067 -0.0139  0.3296 -0.1354
 2797SOL    HW110068   5.313   6.669   3.061  0.8261 -1.6852 -0.2811
 2797SOL    HW210069   5.425   6.696   3.159  0.5354 -0.2757 -0.3383
 2798SOL     OW10070   7.995   1.121   5.683  0.2427 -0.3099  0.3717
 2798SOL    HW110071   7.965   1.082   5.601 -1.7019 -1.2119  1.4727
 2798SOL    HW210072   7.918   1.165   5.718  0.8236 -0.6167  2.0939
 2799SOL     OW10073   2.595   1.969   0.710 -0.1514 -0.4546 -0.2100
 2799SOL    HW110074   2.556   2.027   0.646  1.4461  0.0976 -0.7111
 2799SOL    HW210075   2.657   1.916   0.660  0.1570 -0.9237  0.6522
 2800SOL     OW10076   7.937   7.552   1.099 -0.1516 -0.8405  0.0686
 2800SOL    HW110077   7.880   7.505   1.160 -0.1070 -0.1320  0.6680
 2800SOL    HW210078   7.977   7.621   1.153 -1.5552  1.0110 -1.2029
 2801SOL     OW10079   7.706   4.044   6.947  0.2944  0.0810  0.6303
 2801SOL    HW110080   7.642   4.059   6.878  0.8741  2.7286  0.6241
 2801SOL    HW210081   7.655   4.043   7.028 -0.0008  0.1648  0.4439
 2802SOL     OW10082   8.413   2.999   4.769 -0.4857 -0.1718 -0.0125
 2802SOL    HW110083   8.327   3.035   4.749  1.0707  2.5196 -2.3987
 2802SOL    HW210084   8.406   2.906   4.751 -2.5960  0.2234 -1.3614
 2803SOL     OW10085   2.639   6.933   1.086 -0.3331  0.2933 -0.5260
 2803SOL    HW110086   2.724   6.938   1.130 -0.2949 -0.1948 -0.5434
 2803SOL    HW210087   2.584   6.994   1.134  0.1800  1.0307 -0.8611
 2804SOL     OW10088   6.926   1.051   8.972 -0.4021 -0.0322  0.1214
 2804SOL    HW110089   7.003   1.038   8.916 -0.3952  1.1334 -0.1421
 2804SOL    HW210090   6.882   1.128   8.935  0.0302  1.2376  2.1833
 2805SOL     OW10091   3.541   3.888   8.322  0.6637  0.0161  0.2121
 2805SOL    HW110092   3.449   3.908   8.338 -0.0383 -2.6394 -0.2760
 2805SOL    HW210093   3.559   3.924   8.235  0.6343  2.2030  1.0922
 2806SOL     OW10094   6.024   1.989   1.849  0.0144 -0.2016  0.5138
 2806SOL    HW110095   5.994   2.031   1.929  1.2212  0.1652  0.7894
 2806SOL    HW210096   6.010   2.054   1.780 -3.8111 -1.5849 -0.1219
 2807SOL     OW10097   5.676   2.815   0.696 -0.3451 -0.2145  0.4900
 2807SOL    HW110098   5.669   2.865   0.778  0.1973  1.7631 -0.6217
 2807SOL    HW210099   5.707   2.879   0.632 -0.7739 -1.7283 -1.2744
 2808SOL     OW10100   4.943   3.590   9.207 -0.0947  0.3840 -0.3086
 2808SOL    HW110101   5.031   3.572   9.241 -0.4420  0.6959  0.7670
 2808SOL    HW210102   4.956   3.603   9.113  0.8287 -0.7958 -0.3527
 2809SOL     OW10103   4.430   4.787   5.308 -0.7859 -0.5478  0.8321
 2809SOL    HW110104   4.489   4.863   5.301  0.6786 -1.7453 -0.4421
 2809SOL    HW210105   4.370   4.797   5.234 -0.1288 -0.9807  0.2252
 2810SOL     OW10106   1.452   5.207   7.465 -0.2438  0.0773  0.1082
 2810SOL    HW110107   1.534   5.251   7.486 -0.4903 -0.1966  1.6417
 2810SOL    HW210108   1.416   5.258   7.392  0.9215  0.6304 -0.0913
 2811SOL     OW10109   4.159   1.967   4.828  0.2079  0.1973  0.0057
 2811SOL    HW110110   4.125   1.877   4.830 -0.0982  0.2615 -1.7102
 2811SOL    HW210111   4.191   1.979   4.739 -1.1018  2.2842 -0.2319
 2812SOL     OW10112   4.450   1.994   5.814 -0.1236  0.5605  0.3988
 2812SOL    HW110113   4.448   1.969   5.906  0.7348  1.1504  0.5778
 2812SOL    HW210114   4.539   1.971   5.785 -0.6462 -0.3748 -0.4919
 2813SOL     OW10115   1.824   1.539   0.326 -0.0287  0.0329 -0.7825
 2813SOL    HW110116   1.790   1.537   0.236 -2.1651 -0.4685  0.0181
 2813SOL    HW210117   1.753   1.505   0.380  1.4247 -0.1746  1.0620
 2814SOL     OW10118   2.079   6.608   5.207 -0.0903 -0.2433 -0.2469
 2814SOL    HW110119   2.125   6.575   5.284  0.8773 -0.1957 -0.7943
 2814SOL    HW210120   2.136   6.678   5.174 -1.8384  1.6483  0.5994
 2815SOL     OW10121   4.317   2.682   7.939  0.1525 -0.0556  0.3205
 2815SOL    HW110122   4.259   2.755   7.960  0.6554  0.3195  0.4436
 2815SOL    HW210123   4.391   2.692   8.000  1.0949  0.4109 -0.8660
 2816SOL     OW10124   2.892   0.553   8.090  0.4380  0.8933 -0.8601
 2816SOL    HW110125   2.882   0.628   8.032  0.0442 -1.0415 -3.3514
 2816SOL    HW210126   2.975   0.514   8.064 -0.0327 -0.3386 -0.5142
 2817SOL     OW10127   7.210   3.917   3.048 -0.2482  0.2467  0.1014
 2817SOL    HW110128   7.218   3.822   3.038 -1.8757  0.0106  0.7866
 2817SOL    HW210129   7.300   3.950   3.044  0.4426 -1.4597  1.1715
 2818SOL     OW10130   2.908   3.837   1.491  0.0753  0.1603 -0.0079
 2818SOL    HW110131   2.982   3.845   1.551 -0.4553 -0.0547  0.6852
 2818SOL    HW210132   2.893   3.927   1.459  0.2784  0.2959  0.2817
 2819SOL     OW10133   5.564   9.044   0.494 -0.4088  0.3520 -0.0992
 2819SOL    HW110134   5.555   8.961   0.448 -2.6040  0.7076 -0.4042
 2819SOL    HW210135   5.650   9.077   0.469  0.7208 -2.1074  0.5078
 2820SOL     OW10136   1.930   0.723   7.911  0.0779 -0.2611  0.4023
 2820SOL    HW110137   1.909   0.756   7.998 -0.2058  0.3537  0.1046
 2820SOL    HW210138   1.865   0.764   7.853  0.4568 -0.4156 -0.1377
 2821SOL     OW10139   3.851   7.860   3.192 -0.6532 -0.4962 -0.3555
 2821SOL    HW110140   3.885   7.944   3.161 -1.0274  0.2094  1.0959
 2821SOL    HW210141   3.756   7.870   3.191 -0.7708 -1.5703 -1.9602
 2822SOL     OW10142   7.220   0.544   1.270  0.0518  0.3482 -0.0099
 2822SOL    HW110143   7.309   0.543   1.236  0.3759 -0.9872  0.8139
 2822SOL    HW210144   7.223   0.488   1.348 -1.3448  0.8614  0.4527
 2823SOL     OW10145   9.254   5.351   8.252 -0.4185 -0.0746 -0.4357
 2823SOL    HW110146   9.229   5.286   8.186 -0.5804 -1.7642  1.2223
 2823SOL    HW210147   9.185   5.345   8.318 -1.1300  2.7548 -0.8658
 2824SOL     OW10148   6.467   1.263   4.971  0.0978  0.0034  0.1139
 2824SOL    HW110149   6.404   1.212   5.022 -1.1819  1.4837  0.0473
 2824SOL    HW210150   6.438   1.255   4.881 -0.1629  0.9083  0.1106
 2825SOL     OW10151   3.577   4.141   3.724  0.4483  0.1313 -0.3108
 2825SOL    HW110152   3.591   4.235   3.714  0.8055  0.1433  0.3324
 2825SOL    HW210153   3.591   4.106   3.636  3.9594  0.2096  0.1564
 2826SOL     OW10154   8.695   8.029   1.963 -0.3873 -0.7512  0.5271
 2826SOL    HW110155   8.690   7.954   2.022  0.5725 -1.0642  0.2128
 2826SOL    HW210156   8.746   8.094   2.011  0.3606 -0.9917  0.0513
 2827SOL     OW10157   4.965   5.804   8.690 -0.6834  0.4054  0.3713
 2827SOL    HW110158   4.949   5.723   8.644  1.0886  0.6904 -0.7887
 2827SOL    HW210159   4.937   5.873   8.630 -0.1798  0.7216  0.4931
 2828SOL     OW10160   0.888   7.604   2.378 -0.3430 -0.3700 -0.3396
 2828SOL    HW110161   0.839   7.569   2.452 -0.3083 -0.3365 -0.3008
 2828SOL    HW210162   0.846   7.688   2.359 -2.1986 -1.6499 -2.1917
 2829SOL     OW10163   1.671   4.458   3.555  0.1123 -0.8072  0.2232
 2829SOL    HW110164   1.656   4.366   3.533  1.1201 -1.0392  0.4712
 2829SOL    HW210165   1.702   4.456   3.645 -2.3176  0.0014  1.1315
 2830SOL     OW10166   0.596   4.625   2.137  0.2010  0.3688  0.2112
 2830SOL    HW110167   0.561   4.706   2.101  1.6357  0.6330 -0.6318
 2830SOL    HW210168   0.560   4.621   2.226 -0.2580  1.6878  0.0943
 2831SOL     OW10169   4.904   3.787   5.384  0.3521  0.2466 -0.1119
 2831SOL    HW110170   4.818   3.818   5.412 -0.2653 -0.5874 -1.0372
 2831SOL    HW210171   4.890   3.694   5.364  1.2580  0.3268 -1.1273
 2832SOL     OW10172   5.504   9.207   5.120 -0.5212  0.0062 -0.3110
 2832SOL    HW110173   5.585   9.221   5.170 -2.0152  1.5047  1.7707
 2832SOL    HW210174   5.474   9.294   5.097 -1.4892 -0.5404 -1.1680
 2833SOL     OW10175   3.199   1.505   6.406  0.1338 -0.0502 -0.3156
 2833SOL    HW110176   3.273   1.483   6.349 -0.5126  0.1176 -1.2399
 2833SOL    HW210177   3.123   1.504   6.348 -0.4085  1.0619  0.3450
 2834SOL     OW10178   8.170   7.043   3.931 -0.1183  0.5090 -0.0423
 2834SOL    HW110179   8.138   7.040   4.021  1.4406 -0.0230  0.5046
 2834SOL    HW210180   8.216   6.959   3.919 -0.1481  0.6537 -1.2696
 2835SOL     OW10181   5.435   4.244   7.044 -0.0993  0.2204  0.2750
 2835SOL    HW110182   5.377   4.320   7.042  0.4071  0.6089  0.0558
 2835SOL    HW210183   5.523   4.282   7.044  0.1943 -0.3626 -1.7272
 2836SOL     OW10184   0.088   6.110   0.486  0.0919 -0.2277 -0.4270
 2836SOL    HW110185   0.059   6.201   0.478  0.2266  0.1019  2.3821
 2836SOL    HW210186   0.151   6.111   0.557  0.1751 -2.5165 -0.4291
 2837SOL     OW10187   3.568   8.540   1.738  0.3124 -0.2562  0.1228
 2837SOL    HW110188   3.637   8.565   1.676  0.2035  0.3045  0.2193
 2837SOL    HW210189   3.488   8.580   1.702 -0.3446 -2.5121 -1.0246
 2838SOL     OW10190   6.952   8.961   8.683 -0.4463  0.4302 -0.6013
 2838SOL    HW110191   6.921   8.895   8.745  1.3689  0.2228  0.1033
 2838SOL    HW210192   7.012   8.913   8.625 -0.1517  1.1726 -0.9160
 2839SOL     OW10193   2.609   5.575   1.459 -0.2809 -0.3337  1.1587
 2839SOL    HW110194   2.648   5.659   1.481 -0.7030  0.2882 -0.3946
 2839SOL    HW210195   2.683   5.516   1.448  0.0751  0.1132  1.1558
 2840SOL     OW10196   3.717   4.261   0.842  0.3315 -0.4046 -0.0837
 2840SOL    HW110197   3.687   4.176   0.875 -1.8012  0.5511  0.5754
 2840SOL    HW210198   3.750   4.243   0.755 -2.4127 -1.5422 -0.9485
 2841SOL     OW10199   1.532   3.632   5.057 -0.0354  0.1935 -0.7542
 2841SOL    HW110200   1.556   3.722   5.080 -2.0504  1.2746 -2.6759
 2841SOL    HW210201   1.442   3.623   5.088  0.5151 -1.5502  0.3832
 2842SOL     OW10202   2.140   5.823   7.394 -0.2237  0.7824 -0.0158
 2842SOL    HW110203   2.192   5.878   7.453 -0.1270  1.2045 -0.4928
 2842SOL    HW210204   2.162   5.854   7.306  0.1496 -0.3024 -0.3064
 2843SOL     OW10205   4.064   1.961   5.646  0.2343  0.1902  0.2823
 2843SOL    HW110206   4.036   1.912   5.723 -0.3360 -0.3276 -0.2543
 2843SOL    HW210207   4.056   1.900   5.574  1.2241  0.5331 -0.1250
 2844SOL     OW10208   0.409   4.078   9.074  0.1278  0.4909  0.1103
 2844SOL    HW110209   0.416   4.133   8.995  0.0408 -1.5581 -1.3647
 2844SOL    HW210210   0.471   4.006   9.058 -0.9703 -0.7203  1.2710
 2845SOL     OW10211   1.707   6.073   3.668  0.9285  0.3261 -0.0122
 2845SOL    HW110212   1.734   6.156   3.628  1.4779  0.3043  0.3083
 2845SOL    HW210213   1.776   6.053   3.731 -0.5036  0.9746  1.8380
 2846SOL     OW10214   6.238   3.364   6.122 -0.6294  0.0526  0.1601
 2846SOL    HW110215   6.271   3.427   6.058  1.5657 -1.1918  0.0147
 2846SOL    HW210216   6.154   3.335   6.085 -0.4397  0.9909 -1.0570
 2847SOL     OW10217   7.544   4.010   8.865 -0.3513  0.0287  0.6504
 2847SOL    HW110218   7.634   4.020   8.896 -0.6046  1.6184  0.9401
 2847SOL    HW210219   7.541   3.922   8.828  1.1954 -0.2135  1.0519
 2848SOL     OW10220   1.344   3.895   6.967 -0.2480  0.1906 -0.6319
 2848SOL    HW110221   1.324   3.982   7.000 -1.0688 -0.1086 -0.3182
 2848SOL    HW210222   1.433   3.878   6.996 -0.0152  1.0037 -0.8605
 2849SOL     OW10223   0.001   8.579   4.985 -0.5979 -0.0411  0.0836
 2849SOL    HW110224   0.051   8.508   4.943  0.5772 -0.3739  1.9699
 2849SOL    HW210225   0.037   8.659   4.947  0.3515 -0.3393  0.3300
 2850SOL     OW10226   4.230   5.908   3.880  0.7440 -0.3025 -0.0441
 2850SOL    HW110227   4.152   5.874   3.924  0.5134  1.9100  1.3124
 2850SOL    HW210228   4.230   5.864   3.794 -1.5256 -0.9442  0.2470
 2851SOL     OW10229   0.253   8.160   3.394  0.3306  0.4612 -0.3687
 2851SOL    HW110230   0.243   8.098   3.467 -0.7114  1.3968  0.3080
 2851SOL    HW210231   0.211   8.117   3.320 -0.1855  0.2679  0.0356
 2852SOL     OW10232   6.394   6.043   7.066  0.6851  0.3157  0.2392
 2852SOL    HW110233   6.477   6.040   7.112  0.5228 -0.0032  0.5184
 2852SOL    HW210234   6.328   6.047   7.135  0.4905  1.1159  0.0099
 2853SOL     OW10235   4.637   7.735   8.691 -0.7167  0.3997  0.1036
 2853SOL    HW110236   4.637   7.764   8.782 -1.8388 -0.4314  0.3705
 2853SOL    HW210237   4.546   7.714   8.672  0.0436 -2.9503 -0.0932
 2854SOL     OW10238   3.515   2.150   1.728  0.1719 -0.3948  0.2641
 2854SOL    HW110239   3.527   2.083   1.661  0.8168 -0.0991  0.0876
 2854SOL    HW210240   3.505   2.100   1.810  1.0048 -0.6978  0.1857
 2855SOL     OW10241   4.457   5.877   7.777  0.1126 -0.4802  0.2212
 2855SOL    HW110242   4.494   5.932   7.847 -0.9532 -0.2813  0.6475
 2855SOL    HW210243   4.441   5.937   7.705  1.8620 -0.8080 -0.4723
 2856SOL     OW10244   8.442   0.752   0.801  0.1392 -0.3863 -0.0374
 2856SOL    HW110245   8.482   0.829   0.760 -0.1218 -0.9797 -1.4380
 2856SOL    HW210246   8.383   0.717   0.734 -0.8322 -0.9765  1.1100
 2857SOL     OW10247   5.245   2.303   2.544 -0.0122 -0.7739 -0.7438
 2857SOL    HW110248   5.297   2.335   2.470 -0.9638  0.7875 -0.7749
 2857SOL    HW210249   5.177   2.249   2.505  0.5595 -1.4133 -0.8533
 2858SOL     OW10250   5.342   6.090   7.715  0.2581  0.4737 -0.2735
 2858SOL    HW110251   5.259   6.101   7.669  0.5982 -1.3200 -1.3696
 2858SOL    HW210252   5.386   6.174   7.704  0.4985 -0.0061 -3.6402
 2859SOL     OW10253   2.647   5.296   6.694 -0.2333 -0.0847  0.0021
 2859SOL    HW110254   2.628   5.318   6.603  2.1177 -0.8954 -0.7195
 2859SOL    HW210255   2.578   5.234   6.719 -0.1299 -0.8777 -1.6417
 2860SOL     OW10256   9.094   4.845   5.498  0.2440  0.1412  0.2699
 2860SOL    HW110257   9.139   4.851   5.582 -0.3628  1.1139  0.5244
 2860SOL    HW210258   9.153   4.792   5.444  0.6365 -0.4759  1.2964
 2861SOL     OW10259   8.679   7.534   6.354  0.0797 -0.6117 -0.4774
 2861SOL    HW110260   8.648   7.450   6.320 -1.0912 -0.5016  0.2899
 2861SOL    HW210261   8.655   7.533   6.447 -1.7205  1.3813 -0.8960
 2862SOL     OW10262   1.783   2.635   0.582 -0.7995  0.1439  0.1444
 2862SOL    HW110263   1.856   2.648   0.521 -1.3140 -1.5088 -0.8562
 2862SOL    HW210264   1.823   2.594   0.659 -0.4159  0.6839  0.2313
 2863SOL     OW10265   2.808   5.077   1.950 -0.1513 -0.2366 -0.3141
 2863SOL    HW110266   2.732   5.131   1.926  0.8732  0.5120 -1.9606
 2863SOL    HW210267   2.830   5.105   2.039 -0.8739  0.6489 -0.4024
 2864SOL     OW10268   4.589   3.630   4.143 -0.2071  0.4317  0.6613
 2864SOL    HW110269   4.497   3.604   4.144 -0.4981  1.3327 -0.6799
 2864SOL    HW210270   4.629   3.582   4.216 -1.4706 -0.9351  0.4714
 2865SOL     OW10271   8.410   2.427   6.459 -0.5682 -0.5825  0.0262
 2865SOL    HW110272   8.436   2.408   6.369 -1.4994  1.0379 -0.6295
 2865SOL    HW210273   8.315   2.411   6.460 -1.0829  2.1925 -0.1102
 2866SOL     OW10274   3.303   6.024   1.418  0.3139  0.1874 -0.0435
 2866SOL    HW110275   3.308   5.991   1.328  0.2197  0.6596 -0.2198
 2866SOL    HW210276   3.365   6.097   1.420 -0.4432  0.8286 -0.0013
 2867SOL     OW10277   1.184   2.309   7.486 -0.0614  0.0080 -0.8261
 2867SOL    HW110278   1.108   2.260   7.518 -0.8024  1.3320 -0.5353
 2867SOL    HW210279   1.257   2.248   7.495 -0.8209 -0.7404  0.3592
 2868SOL     OW10280   2.006   1.690   2.547 -0.8662  0.0548 -0.2224
 2868SOL    HW110281   2.082   1.743   2.573 -1.5729  0.9978 -0.0322
 2868SOL    HW210282   2.007   1.691   2.452 -0.4465 -0.2080 -0.2183
 2869SOL     OW10283   6.256   6.886   7.221 -0.0903  0.6474  0.2710
 2869SOL    HW110284   6.254   6.941   7.142 -1.0335 -0.8103 -0.7522
 2869SOL    HW210285   6.328   6.825   7.206 -0.8127 -0.1881  0.1318
 2870SOL     OW10286   3.855   4.019   5.431  0.1035 -0.2985 -0.1563
 2870SOL    HW110287   3.774   4.041   5.385  0.2551  0.1644 -0.2064
 2870SOL    HW210288   3.917   4.087   5.404  0.4342 -0.5062  0.0799
 2871SOL     OW10289   4.755   7.458   6.964  0.1491  0.4262 -0.4480
 2871SOL    HW110290   4.841   7.493   6.939 -0.1436  1.6298  0.2044
 2871SOL    HW210291   4.761   7.364   6.945  0.6887  0.9389 -2.9164
 2872SOL     OW10292   7.428   7.528   6.504  0.4843  0.5620  0.3305
 2872SOL    HW110293   7.432   7.588   6.429  1.7265  0.2780  0.1634
 2872SOL    HW210294   7.515   7.489   6.508 -0.5532 -1.8603 -0.0711
 2873SOL     OW10295   2.118   8.953   3.169 -0.0763  1.0131 -0.2561
 2873SOL    HW110296   2.199   9.005   3.170  1.5224 -1.3888  1.6272
 2873SOL    HW210297   2.081   8.965   3.257 -0.5357  0.2904 -0.3446
 2874SOL     OW10298   7.913   2.992   8.082  0.1138 -0.1434  0.3658
 2874SOL    HW110299   7.895   3.004   8.175 -1.8062 -1.1081  0.1368
 2874SOL    HW210300   7.865   2.912   8.059 -1.2028  1.2739 -1.9267
 2875SOL     OW10301   3.096   7.885   0.062 -0.6087  0.0491 -0.1327
 2875SOL    HW110302   3.146   7.959   0.096 -2.8605  1.7062 -0.3298
 2875SOL    HW210303   3.161   7.816   0.051  2.0212  2.7092 -2.2191
 2876SOL     OW10304   4.854   8.072   1.153 -0.0155  0.0280 -0.0961
 2876SOL    HW110305   4.867   7.978   1.167  1.9327  0.3431  0.3005
 2876SOL    HW210306   4.826   8.106   1.238  0.1324 -0.0447 -0.0196
 2877SOL     OW10307   4.780   0.965   6.140 -0.8657 -0.4609  0.2855
 2877SOL    HW110308   4.854   0.981   6.081 -1.8661 -1.8676 -1.4096
 2877SOL    HW210309   4.736   1.049   6.148 -0.6711 -0.2356 -0.9436
 2878SOL     OW10310   7.256   5.656   4.376  0.3662 -0.1372  0.2696
 2878SOL    HW110311   7.271   5.660   4.281  0.0926  0.3118  0.2406
 2878SOL    HW210312   7.343   5.655   4.414  0.4796 -0.4408  0.0074
 2879SOL     OW10313   5.185   8.594   2.036 -0.4120  0.0193  0.0402
 2879SOL    HW110314   5.118   8.526   2.024 -0.0169 -0.4302  0.3314
 2879SOL    HW210315   5.136   8.675   2.050 -0.8879 -0.0755 -1.0631
 2880SOL     OW10316   6.469   1.665   8.583  0.2716 -0.5456  0.1675
 2880SOL    HW110317   6.416   1.594   8.545 -1.0809  0.6437 -0.2461
 2880SOL    HW210318   6.508   1.627   8.661  1.9877 -2.6487 -1.6483
 2881SOL     OW10319   2.094   4.900   7.507 -0.5112 -0.6292 -0.4687
 2881SOL    HW110320   2.030   4.892   7.578 -1.3513  0.7174 -1.0513
 2881SOL    HW210321   2.053   4.960   7.444  2.1165  1.9011  0.1032
 2882SOL     OW10322   1.733   4.642   5.768  0.5507  0.1604 -0.6161
 2882SOL    HW110323   1.809   4.671   5.818  0.5399 -0.4819 -0.2145
 2882SOL    HW210324   1.732   4.547   5.778 -0.4158  0.1755 -0.4409
 2883SOL     OW10325   3.398   0.210   8.606 -0.6871  0.1967 -0.1815
 2883SOL    HW110326   3.471   0.241   8.552 -0.0756  0.7240  0.9401
 2883SOL    HW210327   3.336   0.282   8.605 -0.6555  0.2245 -0.1422
 2884SOL     OW10328   4.986   4.070   1.424  0.6284  0.3044 -0.0829
 2884SOL    HW110329   5.066   4.119   1.408 -0.2222  2.1559  1.2077
 2884SOL    HW210330   4.952   4.106   1.506 -1.7957 -0.0853 -0.8863
 2885SOL     OW10331   0.134   2.940   0.098 -0.3888 -0.2647  0.2594
 2885SOL    HW110332   0.049   2.981   0.082  0.1657  0.9522  0.3826
 2885SOL    HW210333   0.153   2.957   0.190  0.9693  1.3691 -0.2898
 2886SOL     OW10334   8.833   6.225   2.834 -0.4991 -0.1806 -0.3429
 2886SOL    HW110335   8.828   6.315   2.801 -1.4066  0.2726  1.0199
 2886SOL    HW210336   8.750   6.210   2.878 -0.1361 -1.5097 -0.0828
 2887SOL     OW10337   8.637   2.705   6.317 -0.1898 -0.0586 -0.6164
 2887SOL    HW110338   8.553   2.725   6.274  0.2089  1.5149 -0.7262
 2887SOL    HW210339   8.701   2.713   6.246 -0.0862 -2.7819 -0.8727
 2888SOL     OW10340   4.199   6.545   7.745  0.4367  0.0745  0.2535
 2888SOL    HW110341   4.279   6.496   7.767  0.4295  0.2387  0.6466
 2888SOL    HW210342   4.224   6.597   7.669  1.3940  1.8497  1.7498
 2889SOL     OW10343   8.447   4.385   1.267 -0.3011  0.3024  0.7407
 2889SOL    HW110344   8.423   4.470   1.303  1.0133 -0.1860  2.8773
 2889SOL    HW210345   8.543   4.382   1.274 -0.3550 -1.5061  1.0745
 2890SOL     OW10346   5.519   0.963   2.385  0.0036 -0.4168  0.4471
 2890SOL    HW110347   5.570   0.927   2.458  0.2731 -1.6228 -0.3285
 2890SOL    HW210348   5.583   0.983   2.318  0.0129  2.7141  1.3028
 2891SOL     OW10349   4.657   4.669   5.312  0.7430  0.2310 -0.1910
 2891SOL    HW110350   4.566   4.683   5.338  1.5041  0.1407  2.6995
 2891SOL    HW210351   4.652   4.635   5.223 -2.2214 -2.2507  0.8385
 2892SOL     OW10352   5.033   4.596   1.775  0.4732  0.4987 -0.2983
 2892SOL    HW110353   4.951   4.613   1.822  1.5321 -3.3407  3.1636
 2892SOL    HW210354   5.012   4.526   1.714  0.5365  1.5405 -1.5556
 2893SOL     OW10355   8.033   3.707   2.909 -0.1088  0.1181 -0.4054
 2893SOL    HW110356   8.030   3.705   2.814 -0.5746  0.8125 -0.4071
 2893SOL    HW210357   7.987   3.787   2.933 -1.5404 -0.9274  0.4683
 2894SOL     OW10358   7.626   2.861   2.287  0.2928  0.1206  0.3312
 2894SOL    HW110359   7.588   2.860   2.375 -2.6521 -1.2538 -0.9034
 2894SOL    HW210360   7.602   2.946   2.251 -0.5983 -0.2695 -0.0074
 2895SOL     OW10361   4.876   0.939   7.076  0.4122 -0.5546  0.4169
 2895SOL    HW110362   4.817   0.946   7.002  1.8245 -1.1381 -0.7869
 2895SOL    HW210363   4.926   1.020   7.075  1.5097 -1.2203 -0.2325
 2896SOL     OW10364   3.796   8.055   5.416  0.5971  0.5863  0.1634
 2896SOL    HW110365   3.812   8.126   5.354 -1.4537 -0.3824 -1.5438
 2896SOL    HW210366   3.861   7.988   5.394  0.4774  0.6313 -0.3369
 2897SOL     OW10367   0.159   0.857   6.118  0.1504 -0.2961  0.1831
 2897SOL    HW110368   0.143   0.907   6.199 -1.1005  0.7679 -0.7119
 2897SOL    HW210369   0.237   0.805   6.138  1.9682  2.6083  0.8958
 2898SOL     OW10370   6.749   6.509   6.457  0.0381 -0.0949  0.0910
 2898SOL    HW110371   6.819   6.521   6.392 -0.0647 -0.9343 -0.1829
 2898SOL    HW210372   6.680   6.464   6.409 -0.1358 -0.5043  0.7166
 2899SOL     OW10373   8.127   5.268   6.424 -0.3064 -0.6630  0.0378
 2899SOL    HW110374   8.187   5.282   6.497 -1.2688 -0.0698  0.7263
 2899SOL    HW210375   8.047   5.235   6.465 -1.0282  0.1593 -0.6828
 2900SOL     OW10376   5.564   0.739   2.836  0.4727 -0.0587 -0.4823
 2900SOL    HW110377   5.518   0.711   2.915  1.6119  0.5524  0.4224
 2900SOL    HW210378   5.657   0.730   2.859  0.8180  0.9247 -1.4616
 2901SOL     OW10379   2.069   1.633   0.434 -0.1470  0.1673  0.0753
 2901SOL    HW110380   1.987   1.593   0.403 -0.0228  0.4592 -0.6317
 2901SOL    HW210381   2.121   1.558   0.464 -0.4238 -0.0776 -0.0437
 2902SOL     OW10382   6.168   1.299   5.715  0.0461  0.0923  0.3399
 2902SOL    HW110383   6.140   1.293   5.807 -0.8492  0.1899  0.0809
 2902SOL    HW210384   6.204   1.387   5.706 -1.0493  0.5440  0.2820
 2903SOL     OW10385   6.863   0.728   8.699 -0.0354  0.3408 -0.0710
 2903SOL    HW110386   6.923   0.794   8.664  0.5467 -0.0895  0.1001
 2903SOL    HW210387   6.899   0.706   8.785  0.2473 -0.7762 -0.4633
 2904SOL     OW10388   7.500   0.668   2.515  0.0069  0.3487 -0.4801
 2904SOL    HW110389   7.551   0.592   2.485 -1.2082 -0.4002 -0.6670
 2904SOL    HW210390   7.545   0.743   2.476  1.5937 -0.2149  0.2291
 2905SOL     OW10391   0.792   4.747   7.559 -0.0280 -0.4564  0.0146
 2905SOL    HW110392   0.847   4.690   7.505 -0.1687  2.1642 -3.0596
 2905SOL    HW210393   0.853   4.807   7.601 -0.2158 -0.2719  0.0249
 2906SOL     OW10394   8.949   6.173   1.328  0.4191 -0.0286  0.6519
 2906SOL    HW110395   9.015   6.113   1.362  0.2087  1.4493  3.8229
 2906SOL    HW210396   8.995   6.257   1.320  0.0344  0.0221 -1.2660
 2907SOL     OW10397   7.200   7.780   3.955 -0.4189 -0.1074 -0.0665
 2907SOL    HW110398   7.179   7.853   3.896  0.6122  0.3346  0.0961
 2907SOL    HW210399   7.143   7.794   4.031 -0.4603  0.3511 -0.1772
 2908SOL     OW10400   9.197   5.707   2.247  0.6951 -0.1284  0.0579
 2908SOL    HW110401   9.236   5.713   2.159  0.4615  0.4898 -0.0030
 2908SOL    HW210402   9.223   5.788   2.290  0.4338 -0.2353  0.4126
 2909SOL     OW10403   8.386   9.069   1.212  0.0010  0.1261 -0.0438
 2909SOL    HW110404   8.460   9.044   1.157  0.7970  1.4393  0.3988
 2909SOL    HW210405   8.357   8.987   1.253 -0.0482 -0.7094 -1.7291
 2910SOL     OW10406   7.978   3.411   0.762  0.4591  0.3850  0.1362
 2910SOL    HW110407   7.989   3.503   0.787  1.8462  0.0539  0.7695
 2910SOL    HW210408   7.995   3.362   0.842 -0.7355 -0.4116 -0.0844
 2911SOL     OW10409   4.835   8.379   4.446  0.2108 -0.5190  0.1639
 2911SOL    HW110410   4.806   8.387   4.355 -0.9647  0.6013  0.6210
 2911SOL    HW210411   4.874   8.464   4.466  0.3616 -0.7261  0.7538
 2912SOL     OW10412   3.639   3.570   1.172  0.4316  0.2050 -0.4654
 2912SOL    HW110413   3.687   3.520   1.107 -1.1860 -0.9980 -0.7702
 2912SOL    HW210414   3.683   3.550   1.255  0.7914 -0.4551 -0.8120
 2913SOL     OW10415   1.118   5.560   4.028 -0.6894 -0.1979 -0.1641
 2913SOL    HW110416   1.057   5.498   3.987  0.0834  0.1248 -1.8517
 2913SOL    HW210417   1.077   5.645   4.014  0.1655  0.0261 -1.3761
 2914SOL     OW10418   6.292   2.646   4.940  0.0309  0.1673 -0.0493
 2914SOL    HW110419   6.295   2.660   4.846  1.1686  1.4496  0.1542
 2914SOL    HW210420   6.229   2.711   4.972  0.2533  0.2735  0.1718
 2915SOL     OW10421   5.145   1.525   4.768  0.3763  0.6099  0.0427
 2915SOL    HW110422   5.073   1.483   4.722  1.2037 -0.0470 -0.6927
 2915SOL    HW210423   5.104   1.581   4.833 -0.8315  1.4337 -1.4100
 2916SOL     OW10424   0.889   7.314   8.247 -0.5046 -0.5188  0.7389
 2916SOL    HW110425   0.969   7.267   8.268  0.2025  1.3412  2.3122
 2916SOL    HW210426   0.819   7.256   8.278  0.1795 -2.1431 -0.6258
 2917SOL     OW10427   1.426   1.139   6.218  0.6655  0.4347  0.1089
 2917SOL    HW110428   1.338   1.173   6.231  0.2278 -0.8318  0.4796
 2917SOL    HW210429   1.438   1.140   6.123  0.5696  1.3900  0.1035
 2918SOL     OW10430   8.523   0.510   5.245  0.3154 -0.2631  0.5682
 2918SOL    HW110431   8.460   0.494   5.175  0.5527 -0.9299  0.5050
 2918SOL    HW210432   8.602   0.539   5.199  1.0828 -2.5092  0.4080
 2919SOL     OW10433   8.994   6.052   2.537  0.1257  0.3150 -0.2742
 2919SOL    HW110434   8.957   6.138   2.518  1.5631  0.5456 -2.1257
 2919SOL    HW210435   9.008   6.011   2.451  1.9515 -0.6874  0.4649
 2920SOL     OW10436   4.055   5.791   5.082  0.5030 -0.3492  0.1562
 2920SOL    HW110437   4.052   5.766   5.174 -1.1159 -0.8507 -0.0157
 2920SOL    HW210438   4.009   5.720   5.036  1.8209 -0.4209 -1.1238
 2921SOL     OW10439   7.661   5.229   6.444 -0.0361 -0.1246 -0.1597
 2921SOL    HW110440   7.705   5.312   6.464  0.9515 -0.8702  0.8608
 2921SOL    HW210441   7.674   5.217   6.350 -0.7423  1.1803 -0.4451
 2922SOL     OW10442   8.167   4.385   4.651  0.5448 -0.6615 -0.5057
 2922SOL    HW110443   8.131   4.419   4.570 -0.5872  0.6224  0.5018
 2922SOL    HW210444   8.262   4.386   4.639  0.5084  1.9593 -0.8829
 2923SOL     OW10445   8.407   4.144   0.511  0.0028  0.5455 -0.0964
 2923SOL    HW110446   8.414   4.237   0.531 -1.5107  0.4141  1.1743
 2923SOL    HW210447   8.497   4.112   0.511  0.6455  2.2881 -2.0268
 2924SOL     OW10448   4.431   3.226   2.485 -0.5053  0.2149  0.3258
 2924SOL    HW110449   4.366   3.289   2.516 -0.5043  1.3230 -1.8154
 2924SOL    HW210450   4.505   3.280   2.456 -0.0448 -0.8453 -0.4953
 2925SOL     OW10451   1.522   6.245   2.781 -0.3257  0.0236 -0.0259
 2925SOL    HW110452   1.601   6.195   2.760  1.1605  2.2064  0.2487
 2925SOL    HW210453   1.465   6.182   2.825  1.3783 -1.4998  0.0453
 2926SOL     OW10454   2.622   0.375   2.104 -0.2545  0.0533 -0.3339
 2926SOL    HW110455   2.597   0.286   2.128  0.9005 -0.3429 -0.5361
 2926SOL    HW210456   2.630   0.373   2.009  0.2391  0.2387 -0.3020
 2927SOL     OW10457   4.762   8.568   0.150 -0.0467 -0.2689 -0.7753
 2927SOL    HW110458   4.720   8.482   0.136  0.2734 -0.5212 -0.1891
 2927SOL    HW210459   4.800   8.590   0.065 -1.0418 -0.2103 -1.2231
 2928SOL     OW10460   0.301   7.951   5.223  0.5581 -0.3116  0.5463
 2928SOL    HW110461   0.271   7.987   5.140  1.3067  1.7721  1.1494
 2928SOL    HW210462   0.348   7.871   5.199 -1.6867 -1.2822 -0.7653
 2929SOL     OW10463   1.529   7.171   8.855 -0.2124  0.2909  0.4315
 2929SOL    HW110464   1.542   7.222   8.775 -0.3390  0.4484  0.5096
 2929SOL    HW210465   1.607   7.187   8.907  0.1978 -0.3864  0.0327
 2930SOL     OW10466   4.004   2.589   6.580 -0.7716 -0.0324  0.1625
 2930SOL    HW110467   4.001   2.647   6.656 -0.8084  0.3821 -0.1528
 2930SOL    HW210468   4.005   2.501   6.617  1.9913  0.1933  0.7259
 2931SOL     OW10469   0.061   5.963   3.555 -0.0976 -0.1091 -0.4773
 2931SOL    HW110470  -0.001   5.943   3.485 -1.1893  1.1247  0.1141
 2931SOL    HW210471   0.011   5.949   3.636  0.4199  0.7909  0.0078
 2932SOL     OW10472   0.836   7.371   2.176  0.4691  0.5804 -0.2432
 2932SOL    HW110473   0.842   7.461   2.209 -0.0005  0.6608 -0.3731
 2932SOL    HW210474   0.917   7.359   2.126  0.5554  0.9168 -0.1854
 2933SOL     OW10475   1.850   8.559   2.298  0.2216 -0.0586  0.2687
 2933SOL    HW110476   1.938   8.590   2.274  0.1492  0.0264  0.1102
 2933SOL    HW210477   1.865   8.489   2.361  0.4404 -0.7588 -0.5499
 2934SOL     OW10478   2.491   1.734   6.670 -0.1102  0.5103  0.1247
 2934SOL    HW110479   2.406   1.691   6.656  0.9932 -1.1450 -1.7361
 2934SOL    HW210480   2.537   1.724   6.587  1.9952  1.2131  1.1737
 2935SOL     OW10481   2.125   0.788   8.676  0.2405  0.1806 -0.0220
 2935SOL    HW110482   2.176   0.868   8.690  1.0143 -0.5136  1.2595
 2935SOL    HW210483   2.191   0.720   8.667 -0.4647 -0.7456  1.7059
 2936SOL     OW10484   6.626   1.601   8.800 -0.2473  0.0965 -0.2761
 2936SOL    HW110485   6.680   1.539   8.751 -0.3040 -1.5895  1.7158
 2936SOL    HW210486   6.685   1.674   8.819  0.4555 -0.3432 -0.7359
 2937SOL     OW10487   0.021   8.243   8.792 -0.1077  0.1871  0.1568
 2937SOL    HW110488   0.113   8.219   8.787 -0.1920  0.2430 -2.0396
 2937SOL    HW210489   0.001   8.281   8.707 -2.2358 -0.0720  0.5035
 2938SOL     OW10490   3.109   8.633   5.377  0.2505  0.9899 -0.3325
 2938SOL    HW110491   3.116   8.548   5.421 -2.4158  1.2822  0.7467
 2938SOL    HW210492   3.067   8.612   5.293 -1.3772  1.3264  0.3708
 2939SOL     OW10493   4.247   9.170   0.696 -0.3342 -0.0414 -0.2919
 2939SOL    HW110494   4.302   9.104   0.738  0.8690  0.6762 -0.6758
 2939SOL    HW210495   4.211   9.221   0.769  0.2334  0.0319 -0.0583
 2940SOL     OW10496   0.988   3.094   4.667 -0.5356 -0.1140  0.1244
 2940SOL    HW110497   0.899   3.064   4.645 -1.2074  1.3941  0.6820
 2940SOL    HW210498   1.027   3.117   4.583 -1.3938  1.0959  0.0381
 2941SOL     OW10499   7.875   8.555   4.490  0.6999 -0.5159  0.6137
 2941SOL    HW110500   7.944   8.532   4.429 -0.7927 -0.6589 -1.0655
 2941SOL    HW210501   7.794   8.529   4.446 -0.6130  2.0700  1.3481
 2942SOL     OW10502   3.632   2.346   0.828  0.1739  0.4542 -0.1660
 2942SOL    HW110503   3.546   2.386   0.814  0.8341  1.8105 -0.4164
 2942SOL    HW210504   3.681   2.365   0.748  0.3654 -1.2272 -0.4564
 2943SOL     OW10505   3.610   5.281   4.312  0.2094  0.0428  0.1574
 2943SOL    HW110506   3.584   5.317   4.396  1.0008  0.6330  0.1540
 2943SOL    HW210507   3.703   5.258   4.323 -0.4643 -2.7997  0.4510
 2944SOL     OW10508   1.443   3.815   0.277 -0.2523 -0.3991  0.7463
 2944SOL    HW110509   1.449   3.887   0.215  0.7024 -1.6928 -0.6856
 2944SOL    HW210510   1.417   3.856   0.359 -0.0359  1.5278 -0.1352
 2945SOL     OW10511   2.441   7.036   6.153  0.4719  0.2974  0.0263
 2945SOL    HW110512   2.401   7.119   6.180  0.5751  0.3872 -0.0941
 2945SOL    HW210513   2.369   6.987   6.114  0.0682 -0.3039  1.5004
 2946SOL     OW10514   0.579   0.923   3.097  0.8030 -0.1122  0.1115
 2946SOL    HW110515   0.611   0.928   3.187  1.5142 -1.7701 -0.0328
 2946SOL    HW210516   0.634   0.984   3.049  0.3094  0.9144  0.8145
 2947SOL     OW10517   7.384   5.022   8.245  0.1461 -0.3934 -0.0796
 2947SOL    HW110518   7.421   4.963   8.312 -0.3661  1.1495  1.6207
 2947SOL    HW210519   7.300   4.983   8.222 -0.9680  0.4687  2.2717
 2948SOL     OW10520   5.785   6.473   3.897  0.4553  0.0520  0.1141
 2948SOL    HW110521   5.722   6.529   3.850 -0.0469 -1.0767 -0.5747
 2948SOL    HW210522   5.870   6.510   3.875  0.1905 -0.1001 -1.2124
 2949SOL     OW10523   1.282   7.772   0.794  0.0271  0.1110  0.3736
 2949SOL    HW110524   1.344   7.740   0.727 -0.6675  0.1626 -0.2994
 2949SOL    HW210525   1.338   7.795   0.868  0.9478  1.2120 -0.6324
 2950SOL     OW10526   8.248   9.077   0.704 -0.4156  0.2341  0.4756
 2950SOL    HW110527   8.227   9.063   0.797 -0.0739  0.1146  0.5358
 2950SOL    HW210528   8.342   9.060   0.698 -0.5613 -0.4043 -0.0273
 2951SOL     OW10529   5.753   1.671   4.405  0.0361  0.1980 -0.1082
 2951SOL    HW110530   5.664   1.667   4.442 -0.0339  0.1143 -0.2893
 2951SOL    HW210531   5.741   1.703   4.316  0.1728 -0.0059 -0.1990
 2952SOL     OW10532   8.980   6.918   2.075 -0.0983 -0.4563 -0.0492
 2952SOL    HW110533   9.007   6.963   2.155  1.1822  1.8497 -1.7093
 2952SOL    HW210534   9.057   6.869   2.047  0.0503  0.2165 -0.8388
 2953SOL     OW10535   6.988   6.457   2.326 -0.0919 -0.1270 -0.2677
 2953SOL    HW110536   6.947   6.438   2.410  1.0934 -0.0585  0.3419
 2953SOL    HW210537   7.012   6.372   2.291  0.3268 -0.0950 -0.0621
 2954SOL     OW10538   0.163   3.129   9.197 -0.1796 -0.1681  0.1970
 2954SOL    HW110539   0.159   3.070   9.273  0.0477  0.9247  1.0792
 2954SOL    HW210540   0.099   3.197   9.217  2.6399  2.2935  1.3182
 2955SOL     OW10541   9.157   8.179   2.905 -0.1647  0.8295 -0.2047
 2955SOL    HW110542   9.089   8.223   2.956  0.4241  0.7623  0.6359
 2955SOL    HW210543   9.226   8.244   2.894  1.0696 -0.1023  1.7419
 2956SOL     OW10544   0.190   3.640   2.412 -0.1000 -0.4351  0.2584
 2956SOL    HW110545   0.273   3.593   2.407  0.0661 -0.2385  1.0935
 2956SOL    HW210546   0.207   3.713   2.472 -1.0409 -0.7439  0.9133
 2957SOL     OW10547   6.458   1.051   8.130 -0.4598 -0.0152 -0.2209
 2957SOL    HW110548   6.541   1.008   8.109 -0.4116  0.6107 -1.3197
 2957SOL    HW210549   6.475   1.144   8.115 -1.0550  0.2231  0.5621
 2958SOL     OW10550   3.551   2.969   6.399 -0.0598 -0.3715  0.0784
 2958SOL    HW110551   3.623   3.031   6.383 -0.7595  0.1346 -1.2372
 2958SOL    HW210552   3.572   2.929   6.483  0.2905  1.8436  1.0865
 2959SOL     OW10553   1.324   1.819   9.165 -0.0749  0.0695 -0.2010
 2959SOL    HW110554   1.411   1.779   9.155  0.5337  1.3788 -0.2174
 2959SOL    HW210555   1.273   1.785   9.091  0.9606  0.6880 -1.2113
 2960SOL     OW10556   5.992   6.075   4.675 -0.4364  0.3982 -0.0923
 2960SOL    HW110557   5.897   6.078   4.688 -0.5319 -0.1473 -0.6676
 2960SOL    HW210558   6.026   6.035   4.755 -0.8112 -0.6217 -0.4293
 2961SOL     OW10559   6.581   4.929   0.297  0.1080  0.0998  0.0108
 2961SOL    HW110560   6.497   4.974   0.283  0.6514  1.3258  0.5897
 2961SOL    HW210561   6.641   4.972   0.236  0.5806 -0.0108  0.3937
 2962SOL     OW10562   0.456   5.950   0.541 -0.0226 -0.2832 -0.4903
 2962SOL    HW110563   0.390   5.885   0.516 -0.2107 -0.3894  0.2681
 2962SOL    HW210564   0.538   5.915   0.507 -0.2178 -0.6066 -0.6321
 2963SOL     OW10565   1.310   0.722   4.592  0.2138 -0.3861  0.2532
 2963SOL    HW110566   1.355   0.797   4.631 -2.6000  0.3480  2.1868
 2963SOL    HW210567   1.320   0.735   4.498 -0.8289  2.8500  0.5222
 2964SOL     OW10568   0.386   8.110   0.729 -0.6305  0.1503  0.2225
 2964SOL    HW110569   0.444   8.166   0.781 -1.7731  1.5080  0.0935
 2964SOL    HW210570   0.352   8.169   0.661 -2.5342 -0.4616  0.6002
 2965SOL     OW10571   4.447   7.606   1.212  0.3146 -0.2625 -0.2201
 2965SOL    HW110572   4.355   7.600   1.188  0.0859 -1.9641  1.0238
 2965SOL    HW210573   4.491   7.638   1.132 -1.3645  0.8597 -0.7189
 2966SOL     OW10574   4.577   7.704   5.155 -0.6084 -0.0412 -0.8556
 2966SOL    HW110575   4.619   7.693   5.070  0.0782  0.1509 -0.5419
 2966SOL    HW210576   4.548   7.795   5.156 -0.3550  0.0387 -0.7668
 2967SOL     OW10577   0.261   3.841   8.048  0.1344 -0.2324 -0.0867
 2967SOL    HW110578   0.237   3.889   8.127  2.6718  1.5888 -0.3785
 2967SOL    HW210579   0.344   3.798   8.070  0.8493  0.2778 -1.7587
 2968SOL     OW10580   7.017   3.888   3.818 -0.1335 -0.1990 -0.4137
 2968SOL    HW110581   7.059   3.838   3.888 -0.1240 -2.4906 -1.9877
 2968SOL    HW210582   6.948   3.830   3.786 -0.8794  1.2840 -1.5192
 2969SOL     OW10583   4.388   8.159   5.833  0.1662 -0.0807 -0.1604
 2969SOL    HW110584   4.328   8.086   5.846  0.5276 -0.2591  0.5771
 2969SOL    HW210585   4.336   8.236   5.856 -0.5642  0.0199 -2.0441
 2970SOL     OW10586   8.865   6.479   3.187 -0.2020  0.2981  0.2292
 2970SOL    HW110587   8.825   6.525   3.114 -0.2028 -0.3043 -0.1559
 2970SOL    HW210588   8.842   6.387   3.173 -0.0570  0.1571  0.8911
 2971SOL     OW10589   6.049   8.393   2.806  0.1120  0.2718 -0.2712
 2971SOL    HW110590   6.048   8.299   2.821  0.9025 -0.1182 -2.4893
 2971SOL    HW210591   5.976   8.426   2.859 -1.9642 -1.9390 -1.6163
 2972SOL     OW10592   7.261   4.371   7.942 -0.5311  0.4108  0.3212
 2972SOL    HW110593   7.341   4.348   7.989 -1.5394 -0.4628  1.6284
 2972SOL    HW210594   7.204   4.412   8.007 -1.8521 -0.6030 -0.1594
 2973SOL     OW10595   9.248   2.095   3.987 -0.4905 -0.4456 -0.7482
 2973SOL    HW110596   9.226   2.168   4.045 -0.3149 -1.2022  0.2794
 2973SOL    HW210597   9.166   2.046   3.979 -1.0565  0.7810 -2.7913
 2974SOL     OW10598   7.126   2.723   2.649  0.4296 -0.5690 -0.2502
 2974SOL    HW110599   7.198   2.781   2.675 -1.2895  0.9892  1.2141
 2974SOL    HW210600   7.156   2.635   2.673  1.6556  0.0998  0.7409
 2975SOL     OW10601   5.230   5.713   2.109  0.1533 -0.3883 -0.0779
 2975SOL    HW110602   5.302   5.756   2.062  0.5970 -0.2698  0.6994
 2975SOL    HW210603   5.273   5.649   2.166 -0.0943  1.6111  2.4680
 2976SOL     OW10604   1.751   7.276   6.393  1.1565 -0.1170  0.1571
 2976SOL    HW110605   1.826   7.321   6.433  0.9012  1.2513 -0.8815
 2976SOL    HW210606   1.772   7.183   6.400  1.2064  0.0721  3.3278
 2977SOL     OW10607   0.696   0.028   5.844 -0.0284  1.0294  0.2716
 2977SOL    HW110608   0.621   0.031   5.904  1.4640  0.6885  2.1797
 2977SOL    HW210609   0.706   0.118   5.814 -0.9435  1.1619  0.3520
 2978SOL     OW10610   0.417   3.246   6.046 -0.3653 -0.1031  0.1654
 2978SOL    HW110611   0.484   3.313   6.056 -1.1459  0.3674  2.6734
 2978SOL    HW210612   0.466   3.167   6.021  0.9396  0.6075  0.4355
 2979SOL     OW10613   5.939   8.662   6.821  0.0617 -0.1082  0.0547
 2979SOL    HW110614   5.876   8.625   6.759 -0.2498  0.4771  0.0234
 2979SOL    HW210615   6.017   8.680   6.768  0.4076 -1.2215  0.1761
 2980SOL     OW10616   7.586   2.117   3.147 -0.3386  0.0866 -0.8793
 2980SOL    HW110617   7.562   2.209   3.137 -3.4972 -0.8463 -2.6527
 2980SOL    HW210618   7.572   2.098   3.239  0.8809  1.4866 -0.3848
 2981SOL     OW10619   5.470   6.001   0.529  0.4585 -0.0071  0.4204
 2981SOL    HW110620   5.516   5.983   0.611  0.9217 -1.0723 -0.0641
 2981SOL    HW210621   5.378   6.006   0.554  0.5249 -1.0410  0.9090
 2982SOL     OW10622   5.678   3.045   3.428 -0.1392  0.2279  0.0144
 2982SOL    HW110623   5.738   3.080   3.494 -1.2978  0.8630  0.7560
 2982SOL    HW210624   5.654   2.959   3.461  0.2829  0.0165 -0.2296
 2983SOL     OW10625   8.046   8.641   2.918 -0.2169 -0.3067  0.0935
 2983SOL    HW110626   8.032   8.580   2.991 -1.6721 -1.2448 -0.9466
 2983SOL    HW210627   8.108   8.595   2.861  0.0072 -0.0797  0.1551
 2984SOL     OW10628   9.145   5.162   2.423  0.2031 -0.5692 -0.1935
 2984SOL    HW110629   9.231   5.128   2.447  0.0514 -0.8063  0.0126
 2984SOL    HW210630   9.164   5.242   2.374  0.5289 -0.2711  0.4012
 2985SOL     OW10631   3.741   1.660   3.615 -0.2957  0.2107  0.0817
 2985SOL    HW110632   3.688   1.716   3.673 -0.4366  1.3409 -1.1130
 2985SOL    HW210633   3.677   1.608   3.566 -0.2213  0.1393  0.0600
 2986SOL     OW10634   0.336   4.425   9.259  0.2428 -0.3590  0.0088
 2986SOL    HW110635   0.265   4.363   9.278  1.2113 -1.5195 -0.1013
 2986SOL    HW210636   0.382   4.387   9.185  1.1542  0.2477  0.2544
 2987SOL     OW10637   4.959   3.842   3.743 -0.1135  0.0255 -0.3966
 2987SOL    HW110638   4.884   3.814   3.690  0.7403 -1.1126 -1.0118
 2987SOL    HW210639   5.036   3.810   3.695  0.7494  0.6642  0.5392
 2988SOL     OW10640   5.659   5.962   1.815 -0.0640  0.7194  0.2275
 2988SOL    HW110641   5.737   5.916   1.784 -0.7976 -0.6722  0.4049
 2988SOL    HW210642   5.614   5.899   1.871 -2.1263  0.9273 -1.1313
 2989SOL     OW10643   4.320   5.430   0.448  0.2210 -0.5528 -0.4272
 2989SOL    HW110644   4.254   5.415   0.516  0.9676 -0.1218  0.4234
 2989SOL    HW210645   4.271   5.462   0.373 -0.5494 -0.3248  0.1620
 2990SOL     OW10646   6.395   6.263   3.378  0.2569  0.1876  0.2391
 2990SOL    HW110647   6.485   6.234   3.396 -0.3540 -1.4407  0.7715
 2990SOL    HW210648   6.345   6.182   3.369 -1.0783  1.0769 -0.5182
 2991SOL     OW10649   8.569   4.660   2.384  0.5761  0.4589  0.5948
 2991SOL    HW110650   8.646   4.605   2.371  1.1739  1.0898  1.3934
 2991SOL    HW210651   8.604   4.747   2.401 -0.3359  0.8968  0.2885
 2992SOL     OW10652   4.551   7.086   1.822 -0.2163 -0.3820 -0.0319
 2992SOL    HW110653   4.610   7.161   1.813 -0.8362  0.3532  1.8653
 2992SOL    HW210654   4.473   7.109   1.772  0.2840 -0.4989 -0.8694
 2993SOL     OW10655   6.621   7.321   5.274  0.0579 -0.1856  0.5232
 2993SOL    HW110656   6.611   7.265   5.351 -0.2561 -2.0427 -0.8410
 2993SOL    HW210657   6.533   7.326   5.237 -0.4055  3.0628  1.8298
 2994SOL     OW10658   2.829   1.762   0.773  0.2824  0.1401 -0.5205
 2994SOL    HW110659   2.908   1.731   0.729  0.4753  1.6191 -1.2553
 2994SOL    HW210660   2.762   1.697   0.750  1.4010 -1.4657  0.6318
 2995SOL     OW10661   8.852   0.387   1.885  0.1837 -0.0764  0.4252
 2995SOL    HW110662   8.762   0.354   1.890  1.1403 -2.5904  2.7556
 2995SOL    HW210663   8.849   0.455   1.818 -3.0705 -1.2932 -0.7841
 2996SOL     OW10664   6.296   4.201   4.938 -0.5018  0.4426 -0.1546
 2996SOL    HW110665   6.294   4.126   4.879  1.0833  1.9757 -2.2104
 2996SOL    HW210666   6.204   4.215   4.961 -1.0769 -0.6329 -1.6873
 2997SOL     OW10667   7.101   3.316   0.710 -0.5997  1.0585  0.7771
 2997SOL    HW110668   7.029   3.256   0.731  0.8050 -1.0106 -0.1748
 2997SOL    HW210669   7.067   3.402   0.733 -3.2029  0.0761  0.8360
 2998SOL     OW10670   4.051   2.474   0.618  0.0650 -0.1706  0.4169
 2998SOL    HW110671   4.042   2.469   0.522 -0.8966  1.1579  0.4235
 2998SOL    HW210672   4.115   2.406   0.639 -0.3295 -1.0461 -1.0850
 2999SOL     OW10673   4.286   2.385   0.934  0.0318  0.0757  0.2336
 2999SOL    HW110674   4.325   2.311   0.981  0.6149  0.7761  0.8746
 2999SOL    HW210675   4.353   2.411   0.871  0.3430  0.8332  0.8556
 3000SOL     OW10676   0.258   4.191   6.743 -0.1207  0.3732 -0.1407
 3000SOL    HW110677   0.177   4.140   6.749 -0.6435  0.8061 -3.0615
 3000SOL    HW210678   0.232   4.273   6.703  1.7504  0.5937 -0.9494
 3001SOL     OW10679   2.977   0.204   5.512 -0.1164  0.3436 -0.6857
 3001SOL    HW110680   3.047   0.268   5.497  0.4432 -0.3301 -0.9639
 3001SOL    HW210681   3.016   0.137   5.568 -0.3278 -0.3822 -1.3928
 3002SOL     OW10682   4.456   6.527   1.183  0.4206  0.0398  0.1015
 3002SOL    HW110683   4.365   6.558   1.175  0.6379  0.5141 -0.5492
 3002SOL    HW210684   4.465   6.505   1.276 -1.0593 -2.2253 -0.2372
 3003SOL     OW10685   2.703   9.242   6.691  0.0735 -0.0229 -0.0763
 3003SOL    HW110686   2.756   9.207   6.763  1.0337  1.7606  0.1119
 3003SOL    HW210687   2.636   9.175   6.675  0.1517 -0.6545  2.1426
 3004SOL     OW10688   6.014   3.675   1.234 -0.0857 -0.1847  0.0166
 3004SOL    HW110689   6.092   3.717   1.270  0.4776 -2.1338  1.1724
 3004SOL    HW210690   6.026   3.582   1.254 -2.3327 -0.6130 -0.5028
 3005SOL     OW10691   5.458   3.122   2.319 -0.0635  0.0884  0.1029
 3005SOL    HW110692   5.370   3.102   2.287 -0.7442 -0.9982  2.5204
 3005SOL    HW210693   5.497   3.037   2.340  1.1585  0.6243  0.0627
 3006SOL     OW10694   9.011   7.962   5.368  0.4027  0.5826 -0.1105
 3006SOL    HW110695   8.984   7.928   5.453  0.3258  1.2790  0.1475
 3006SOL    HW210696   8.978   7.898   5.304  0.7076 -0.0859  0.3925
 3007SOL     OW10697   7.026   3.142   2.333  0.2326  0.1142 -0.5716
 3007SOL    HW110698   7.012   3.083   2.259  2.3949  0.0378 -0.9517
 3007SOL    HW210699   7.021   3.230   2.294  3.1258  0.0554 -1.1993
 3008SOL     OW10700   7.478   5.029   6.807  0.4339 -0.2356  0.2232
 3008SOL    HW110701   7.396   5.069   6.836  0.7540  0.6972 -0.1264
 3008SOL    HW210702   7.486   4.950   6.860  0.4808  0.8898  1.9620
 3009SOL     OW10703   6.149   3.972   1.465  0.1645 -0.3631  0.1997
 3009SOL    HW110704   6.196   3.892   1.486 -2.2465 -1.4705  1.6069
 3009SOL    HW210705   6.207   4.043   1.490  2.3134 -1.6548 -1.0194
 3010SOL     OW10706   6.077   2.304   0.157  0.3164  0.6969  0.0525
 3010SOL    HW110707   5.984   2.285   0.150  0.5644 -0.3865 -0.4930
 3010SOL    HW210708   6.102   2.335   0.069  0.6619  0.0444 -0.0863
 3011SOL     OW10709   1.134   5.064   4.526  0.6774  0.2367 -0.0304
 3011SOL    HW110710   1.131   5.099   4.615 -0.6671  0.8923 -0.3253
 3011SOL    HW210711   1.160   5.139   4.472  0.8581  0.0001 -0.2685
 3012SOL     OW10712   7.857   7.312   1.938 -0.1853 -0.0524  0.0575
 3012SOL    HW110713   7.914   7.259   1.993 -0.1146  0.2029  0.2326
 3012SOL    HW210714   7.910   7.388   1.914  0.6382 -1.3386 -2.4077
 3013SOL     OW10715   4.447   2.462   4.994 -0.3720  0.2328 -0.1198
 3013SOL    HW110716   4.421   2.551   5.019 -0.4018  0.4814 -1.0040
 3013SOL    HW210717   4.464   2.417   5.077  2.6294  1.9614  0.2922
 3014SOL     OW10718   1.396   4.154   7.748 -0.6474 -0.0279  0.0183
 3014SOL    HW110719   1.449   4.225   7.785  0.8926 -0.8596 -0.5397
 3014SOL    HW210720   1.306   4.187   7.753 -0.4300  0.2830  3.5736
 3015SOL     OW10721   8.865   2.085   2.724  0.5355  0.1929  0.3302
 3015SOL    HW110722   8.856   2.179   2.707  2.7070  0.2174 -0.8695
 3015SOL    HW210723   8.784   2.047   2.692  0.9655  1.3072 -2.2469
 3016SOL     OW10724   6.246   0.585   1.867  0.5132 -0.3537 -0.1689
 3016SOL    HW110725   6.283   0.593   1.779  1.1849  0.2369  0.1593
 3016SOL    HW210726   6.253   0.673   1.904 -0.5848 -0.3980  0.1620
 3017SOL     OW10727   0.056   0.080   4.526 -0.1654 -0.2170 -0.6192
 3017SOL    HW110728   0.080   0.165   4.488 -0.4771 -0.4148 -1.2706
 3017SOL    HW210729   0.139   0.043   4.556  0.1330 -0.1697 -1.3585
 3018SOL     OW10730   5.147   6.292   6.317  0.6064 -0.4859 -0.0613
 3018SOL    HW110731   5.210   6.342   6.369  0.7932  1.4770 -2.0908
 3018SOL    HW210732   5.201   6.248   6.250 -0.0173  0.0966 -0.9544
 3019SOL     OW10733   8.353   8.273   7.227 -0.3570  0.5859 -0.5831
 3019SOL    HW110734   8.280   8.273   7.166  0.5190  0.8266 -1.6405
 3019SOL    HW210735   8.396   8.357   7.214  0.1097  0.4453  0.0262
 3020SOL     OW10736   8.312   8.884   3.984  0.0592 -0.3290 -0.3884
 3020SOL    HW110737   8.221   8.911   3.997  0.7455  1.7101  0.3584
 3020SOL    HW210738   8.308   8.788   3.978 -2.0957 -0.2806 -0.1424
 3021SOL     OW10739   1.903   0.012   7.567 -0.2017  0.4360  0.2489
 3021SOL    HW110740   1.842   0.085   7.575  0.4255  0.8648  1.3005
 3021SOL    HW210741   1.851  -0.058   7.527 -1.3027  0.8905  0.8418
 3022SOL     OW10742   4.487   0.247   7.305 -0.2608  0.4664 -0.4090
 3022SOL    HW110743   4.399   0.280   7.289  0.0292  0.4146 -2.2280
 3022SOL    HW210744   4.525   0.236   7.218  0.3264 -2.8836  0.2096
 3023SOL     OW10745   6.692   7.033   1.084 -0.2734  0.1636  0.1202
 3023SOL    HW110746   6.705   6.943   1.053  0.5869  0.6478 -0.9340
 3023SOL    HW210747   6.615   7.064   1.036 -1.3409 -0.4083  1.4018
 3024SOL     OW10748   4.166   3.116   3.621  0.3016 -0.1483  0.1176
 3024SOL    HW110749   4.262   3.121   3.612  0.1601  0.1725 -1.3099
 3024SOL    HW210750   4.134   3.117   3.531 -0.9212 -3.2931  0.4420
 3025SOL     OW10751   8.795   6.651   1.774 -0.2163  0.3876  0.1047
 3025SOL    HW110752   8.816   6.564   1.807 -2.7434  0.2250  1.3615
 3025SOL    HW210753   8.711   6.640   1.730  0.1359  1.9169 -1.0002
 3026SOL     OW10754   2.036   5.680   2.502  0.3588 -0.1900  0.0826
 3026SOL    HW110755   2.062   5.609   2.443  2.1012 -0.4328  1.1148
 3026SOL    HW210756   2.104   5.747   2.490  0.0053  0.3081  0.8323
 3027SOL     OW10757   4.158   7.574   8.613 -0.1346  0.1084  0.3122
 3027SOL    HW110758   4.085   7.513   8.603 -0.9669  0.8721  1.5312
 3027SOL    HW210759   4.232   7.530   8.573 -1.5033 -0.2422 -1.9235
 3028SOL     OW10760   3.964   1.490   3.278  0.0557  0.0223  0.0496
 3028SOL    HW110761   3.990   1.490   3.186 -0.2715 -0.8210 -0.0428
 3028SOL    HW210762   3.986   1.578   3.309  1.4670 -0.1487 -0.4544
 3029SOL     OW10763   0.709   2.983   2.540  0.5879  0.2509 -0.0683
 3029SOL    HW110764   0.742   2.906   2.494  1.1149  0.3276  0.1784
 3029SOL    HW210765   0.778   3.049   2.529 -0.1569  0.9143 -0.8630
 3030SOL     OW10766   1.117   0.681   8.853  0.0828 -0.1826 -0.4550
 3030SOL    HW110767   1.213   0.686   8.862  0.0500 -0.1664 -0.1138
 3030SOL    HW210768   1.087   0.648   8.938 -0.3158  0.9374 -0.1576
 3031SOL     OW10769   7.684   0.128   1.833  0.0661 -0.6038 -0.3177
 3031SOL    HW110770   7.638   0.208   1.859  1.9385  0.8006 -1.2069
 3031SOL    HW210771   7.699   0.138   1.739  1.9647 -1.1234 -0.0952
 3032SOL     OW10772   6.792   7.166   1.756 -0.5549 -0.0456 -0.5610
 3032SOL    HW110773   6.829   7.224   1.689  0.0038  0.3966  0.1232
 3032SOL    HW210774   6.867   7.116   1.788 -0.2924  1.7346  1.7146
 3033SOL     OW10775   1.378   3.271   8.980 -0.1868  0.2908 -0.4139
 3033SOL    HW110776   1.471   3.287   8.998 -0.5024  0.5209  1.0557
 3033SOL    HW210777   1.351   3.209   9.047 -0.9551 -0.2256 -1.1978
 3034SOL     OW10778   6.672   0.833   7.741 -0.2098  0.7449 -0.0262
 3034SOL    HW110779   6.753   0.836   7.689 -0.0439  0.2378  0.2021
 3034SOL    HW210780   6.619   0.904   7.706 -0.0360  0.5049 -0.7926
 3035SOL     OW10781   3.810   2.848   8.347 -0.4931 -0.6018  0.4266
 3035SOL    HW110782   3.758   2.822   8.423  0.4411 -0.8422  0.9976
 3035SOL    HW210783   3.815   2.769   8.293 -1.5908 -0.2846 -0.1359
 3036SOL     OW10784   2.065   7.990   2.171 -0.1995 -0.3659  0.2252
 3036SOL    HW110785   2.049   7.983   2.077 -0.4335  1.0956  0.1523
 3036SOL    HW210786   2.160   7.989   2.180 -0.0818  2.4666 -0.2881
 3037SOL     OW10787   8.338   8.101   4.163 -0.3629  0.3636  0.1623
 3037SOL    HW110788   8.374   8.105   4.075 -0.1390  0.2232  0.2474
 3037SOL    HW210789   8.377   8.023   4.202  0.2393  0.9300  0.6990
 3038SOL     OW10790   8.966   4.918   4.946 -0.0212  0.5870 -0.2224
 3038SOL    HW110791   9.045   4.944   4.993  1.0505 -0.3066 -1.4763
 3038SOL    HW210792   8.895   4.964   4.990  1.1241  0.8924  1.3417
 3039SOL     OW10793   2.501   6.847   3.498 -0.1310  0.3020  0.4026
 3039SOL    HW110794   2.517   6.899   3.577  0.0058 -2.0087  1.9323
 3039SOL    HW210795   2.456   6.769   3.529  1.6960 -1.5948 -1.5177
 3040SOL     OW10796   2.563   1.032   0.414 -0.1203 -0.0285  0.4620
 3040SOL    HW110797   2.468   1.046   0.409 -0.3375 -0.7945  2.1051
 3040SOL    HW210798   2.596   1.109   0.459 -0.4300 -1.3382  3.0459
 3041SOL     OW10799   6.272   7.782   3.103  0.9681  0.0880 -0.0107
 3041SOL    HW110800   6.295   7.699   3.061  1.8122  1.1778 -1.7693
 3041SOL    HW210801   6.259   7.760   3.195  0.1335 -2.1800 -0.6386
 3042SOL     OW10802   4.045   4.346   6.505 -0.2204  0.1892 -0.3535
 3042SOL    HW110803   4.001   4.281   6.449  0.6327 -0.7986  0.0970
 3042SOL    HW210804   4.126   4.303   6.532 -0.4932  0.7583  1.4103
 3043SOL     OW10805   1.486   0.264   3.710  0.0944 -0.8831 -0.2134
 3043SOL    HW110806   1.486   0.190   3.770 -0.0340 -1.1935 -0.5953
 3043SOL    HW210807   1.574   0.301   3.717 -1.0959  1.5690  3.2071
 3044SOL     OW10808   7.812   3.851   1.872  0.2180  0.4621  0.5586
 3044SOL    HW110809   7.851   3.788   1.810  2.3891 -0.6680  2.9837
 3044SOL    HW210810   7.876   3.922   1.876  0.1641  0.4500  1.6145
 3045SOL     OW10811   7.894   6.294   6.791  0.8376  0.1158 -0.3155
 3045SOL    HW110812   7.848   6.219   6.755  1.5180 -0.1912 -0.5472
 3045SOL    HW210813   7.832   6.331   6.855  0.6716 -0.8971  0.1274
 3046SOL     OW10814   2.818   3.090   1.365 -0.4355 -0.9697  0.7499
 3046SOL    HW110815   2.790   3.000   1.346  0.9359 -1.1677 -0.4500
 3046SOL    HW210816   2.907   3.095   1.331  0.5465  0.0249  3.3350
 3047SOL     OW10817   1.999   6.329   0.951 -0.4307  0.1950  0.4508
 3047SOL    HW110818   2.042   6.244   0.947 -0.4268  0.2501 -1.1610
 3047SOL    HW210819   2.068   6.389   0.979  1.0856  0.5544 -3.6843
 3048SOL     OW10820   7.348   6.640   0.824 -0.2079  0.0061 -0.0412
 3048SOL    HW110821   7.286   6.595   0.881 -0.2170  1.5583  1.2235
 3048SOL    HW210822   7.421   6.663   0.881  0.9031 -0.5530 -1.2060
 3049SOL     OW10823   4.795   2.877   0.259  0.0329  0.7325 -0.4469
 3049SOL    HW110824   4.805   2.950   0.198 -0.0111  0.6839 -0.5131
 3049SOL    HW210825   4.884   2.848   0.278  0.0358  0.5874 -0.6842
 3050SOL     OW10826   2.881   2.491   2.678  0.0218 -0.3350  0.3165
 3050SOL    HW110827   2.816   2.549   2.719  0.5109  1.0330 -0.8028
 3050SOL    HW210828   2.959   2.500   2.734  0.6020  1.3235 -0.7184
 3051SOL     OW10829   6.110   1.753   7.102  0.4993  0.2017 -0.0112
 3051SOL    HW110830   6.164   1.830   7.117  1.1086 -0.1809 -0.2411
 3051SOL    HW210831   6.104   1.710   7.188 -1.1013  1.3110  0.4573
 3052SOL     OW10832   3.946   8.395   6.195  1.1413 -0.1240 -0.1495
 3052SOL    HW110833   4.015   8.421   6.134 -0.8921  0.6079 -2.2394
 3052SOL    HW210834   3.930   8.474   6.248  0.1881  0.5314 -1.3840
 3053SOL     OW10835   2.364   7.937   4.684 -0.2823  0.1579 -0.1675
 3053SOL    HW110836   2.336   8.018   4.726  1.8042  0.1884  1.2404
 3053SOL    HW210837   2.316   7.934   4.602 -4.0065  0.4764  1.8590
 3054SOL     OW10838   8.168   4.063   8.405  0.5058  0.1438  0.8642
 3054SOL    HW110839   8.184   4.158   8.399 -0.5654  0.3587  1.2273
 3054SOL    HW210840   8.180   4.031   8.316  0.6017  0.6721  0.6826
 3055SOL     OW10841   7.686   2.986   6.498  0.5375 -0.1185  0.5559
 3055SOL    HW110842   7.613   2.925   6.493  1.4200 -1.2511  1.1619
 3055SOL    HW210843   7.713   2.998   6.407  0.7905 -1.1858  0.4756
 3056SOL     OW10844   4.994   7.196   2.217  0.1230  0.5751  0.0110
 3056SOL    HW110845   4.959   7.254   2.284 -0.8336  2.5035 -2.0546
 3056SOL    HW210846   4.916   7.161   2.173  0.7149  0.4671 -0.9845
 3057SOL     OW10847   1.273   9.012   4.181 -0.1665  0.4528 -0.3495
 3057SOL    HW110848   1.314   8.936   4.141 -0.5901  0.7465 -1.3487
 3057SOL    HW210849   1.305   9.011   4.272 -2.1433 -2.3418  0.3809
 3058SOL     OW10850   5.494   4.709   6.285 -0.1163 -0.0726  0.1630
 3058SOL    HW110851   5.581   4.745   6.269 -0.3571  0.5577  0.2366
 3058SOL    HW210852   5.438   4.752   6.221 -0.5057  0.0884  0.6053
 3059SOL     OW10853   1.845   4.025   0.584 -0.0685 -0.1974  0.2776
 3059SOL    HW110854   1.884   3.941   0.611 -0.8633 -0.3141  1.0771
 3059SOL    HW210855   1.916   4.088   0.593 -0.4017 -0.1619  3.0323
 3060SOL     OW10856   6.130   8.512   5.128  0.4013 -0.4905 -0.6554
 3060SOL    HW110857   6.223   8.523   5.151  0.3999 -0.7946 -0.5060
 3060SOL    HW210858   6.130   8.452   5.054  0.3875  0.3005 -1.3030
 3061SOL     OW10859   2.248   8.018   7.896  0.1687 -0.4709 -0.9345
 3061SOL    HW110860   2.255   7.959   7.821 -2.0038 -0.2868 -1.3107
 3061SOL    HW210861   2.188   7.973   7.956  1.0755 -0.1420  0.2536
 3062SOL     OW10862   3.522   6.100   3.430  0.0547  0.2503  0.0200
 3062SOL    HW110863   3.617   6.103   3.424  0.0182  0.5730 -0.4825
 3062SOL    HW210864   3.503   6.111   3.523  0.4563  1.7518 -0.0559
 3063SOL     OW10865   8.700   6.194   5.313 -0.3136  0.1134  0.1899
 3063SOL    HW110866   8.715   6.285   5.341  0.2371 -0.3113  1.3384
 3063SOL    HW210867   8.695   6.198   5.218  0.5046  1.2377  0.1850
 3064SOL     OW10868   0.671   3.545   8.487  0.5163  0.1547  0.0735
 3064SOL    HW110869   0.766   3.540   8.484  0.5505  0.0365  1.3997
 3064SOL    HW210870   0.642   3.455   8.501  0.1753  0.0985 -0.9190
 3065SOL     OW10871   3.155   1.952   2.353 -0.0204  0.2255  0.0884
 3065SOL    HW110872   3.203   1.869   2.349  0.5424  0.6099 -1.1945
 3065SOL    HW210873   3.096   1.941   2.427  1.1586 -0.7279  0.9025
 3066SOL     OW10874   6.287   4.256   5.822 -0.5799  0.3965 -0.0745
 3066SOL    HW110875   6.197   4.247   5.792  0.1445  2.7775 -3.2216
 3066SOL    HW210876   6.287   4.336   5.874 -0.6190 -0.5989  1.4936
 3067SOL     OW10877   7.133   5.210   8.467  0.4876 -0.4682 -0.2782
 3067SOL    HW110878   7.135   5.232   8.374 -0.4130  0.4290 -0.0931
 3067SOL    HW210879   7.165   5.289   8.511 -1.1290 -0.1253  0.2954
 3068SOL     OW10880   2.321   5.198   2.528 -0.0824  0.6428  0.1474
 3068SOL    HW110881   2.371   5.155   2.597  0.7310  1.0519 -0.1794
 3068SOL    HW210882   2.359   5.163   2.447 -0.2265  1.0756 -0.1043
 3069SOL     OW10883   1.721   3.213   0.188 -0.0805  0.2719  0.0131
 3069SOL    HW110884   1.662   3.232   0.261  0.5037  0.6165  0.3981
 3069SOL    HW210885   1.760   3.128   0.210  1.2081  1.0611  0.8349
 3070SOL     OW10886   0.405   0.734   0.132  0.0342  0.9578  0.0213
 3070SOL    HW110887   0.476   0.670   0.138  0.4588  1.4075 -0.1783
 3070SOL    HW210888   0.413   0.770   0.043 -0.6344  0.7910 -0.1137
 3071SOL     OW10889   5.202   9.168   5.278 -0.7308 -0.0646  0.6359
 3071SOL    HW110890   5.281   9.130   5.239 -1.9588 -0.9379 -1.0835
 3071SOL    HW210891   5.208   9.146   5.371  1.3544  0.4405  0.6472
 3072SOL     OW10892   6.067   5.805   6.042 -0.0278 -0.1866  0.1174
 3072SOL    HW110893   6.132   5.807   6.112  0.7374 -0.2335 -0.5906
 3072SOL    HW210894   5.999   5.866   6.071  1.1629  1.2067  0.0541
 3073SOL     OW10895   1.443   2.462   6.617  0.2151  0.1503  0.1298
 3073SOL    HW110896   1.501   2.532   6.645  1.3519 -0.9342  0.5593
 3073SOL    HW210897   1.476   2.384   6.662 -0.1912 -0.9055 -1.3505
 3074SOL     OW10898   1.897   6.383   7.378 -1.1297  0.1647  0.0917
 3074SOL    HW110899   1.948   6.423   7.448  0.3139 -0.4295 -0.6157
 3074SOL    HW210900   1.898   6.447   7.308 -1.2314  0.0900  0.0225
 3075SOL     OW10901   3.625   0.335   8.033  0.2578  0.4165 -0.1719
 3075SOL    HW110902   3.546   0.368   7.990 -0.5743 -0.6655  0.5162
 3075SOL    HW210903   3.682   0.412   8.038 -1.0324  1.3919 -0.0109
 3076SOL     OW10904   5.770   5.852   5.864  0.5025 -0.5623 -0.4496
 3076SOL    HW110905   5.676   5.859   5.848  0.4169 -0.5427  0.0381
 3076SOL    HW210906   5.777   5.847   5.959  1.0701  0.6238 -0.4090
 3077SOL     OW10907   2.192   6.432   1.173 -0.0490 -0.1249  0.1614
 3077SOL    HW110908   2.215   6.521   1.200  1.5288 -0.5176  0.1448
 3077SOL    HW210909   2.246   6.415   1.096 -2.7062  0.0668 -1.8217
 3078SOL     OW10910   2.310   8.155   5.278  0.0571 -0.1347  0.7397
 3078SOL    HW110911   2.223   8.149   5.239 -0.5573 -0.1969  2.0970
 3078SOL    HW210912   2.363   8.091   5.230 -0.8872 -0.7689  0.5429
 3079SOL     OW10913   6.167   9.117   3.805  0.1581 -0.4778  0.0051
 3079SOL    HW110914   6.227   9.101   3.878  0.1509  0.4886  0.2292
 3079SOL    HW210915   6.178   9.040   3.748  1.7658 -0.2167 -0.0632
 3080SOL     OW10916   7.752   2.077   9.123  0.2276  0.0688 -0.3283
 3080SOL    HW110917   7.755   2.142   9.194 -3.0338 -1.1515  1.0196
 3080SOL    HW210918   7.775   1.994   9.166  1.6869 -0.1208 -1.4581
 3081SOL     OW10919   5.649   2.303   0.844 -0.1591  0.2938  0.1562
 3081SOL    HW110920   5.644   2.257   0.760  1.0168 -1.0767  0.8163
 3081SOL    HW210921   5.698   2.383   0.824 -1.6736  0.9850 -0.8740
 3082SOL     OW10922   4.046   0.283   1.258  0.1806  0.6693  0.0827
 3082SOL    HW110923   4.054   0.278   1.163 -1.7125 -0.8708 -0.0357
 3082SOL    HW210924   4.003   0.367   1.274 -0.5289  0.4285 -0.5126
 3083SOL     OW10925   0.070   0.594   1.892  0.0625  0.3452  0.4978
 3083SOL    HW110926  -0.009   0.574   1.841  0.2869 -0.2032  0.3596
 3083SOL    HW210927   0.082   0.516   1.947  0.1605  0.6845  0.9669
 3084SOL     OW10928   3.776   6.929   6.622  0.2966  0.5017 -0.2328
 3084SOL    HW110929   3.811   6.985   6.553 -0.5389  0.6325 -0.5575
 3084SOL    HW210930   3.699   6.887   6.582  0.8830 -0.8269  0.0252
 3085SOL     OW10931   7.899   5.032   2.201 -0.4673 -0.0511  0.4017
 3085SOL    HW110932   7.831   5.094   2.225 -0.3408  0.4678 -0.5315
 3085SOL    HW210933   7.865   4.947   2.228 -2.0093  0.0579 -1.0940
 3086SOL     OW10934   7.367   7.524   3.549 -0.2123  0.4679 -0.1090
 3086SOL    HW110935   7.304   7.557   3.485 -1.0634 -0.4557  0.2337
 3086SOL    HW210936   7.319   7.521   3.631  0.5490  0.6049  0.3488
 3087SOL     OW10937   1.856   6.709   6.547  0.1544  0.0905 -0.0809
 3087SOL    HW110938   1.868   6.614   6.543  1.2723  0.2840 -3.5136
 3087SOL    HW210939   1.780   6.726   6.491  1.1377  1.3350 -1.0930
 3088SOL     OW10940   2.233   3.452   6.601  0.4326 -0.0038 -0.0833
 3088SOL    HW110941   2.186   3.527   6.565 -1.3874  0.0221  2.2656
 3088SOL    HW210942   2.207   3.379   6.544 -0.9644  0.3784  0.0461
 3089SOL     OW10943   0.601   6.368   8.027  0.1321 -0.0459  0.3878
 3089SOL    HW110944   0.614   6.302   7.960 -1.5127  0.4341 -0.4405
 3089SOL    HW210945   0.510   6.357   8.054 -0.0961  1.6862  0.4195
 3090SOL     OW10946   8.561   9.029   9.255 -0.3657  0.2863  0.0750
 3090SOL    HW110947   8.482   9.070   9.291 -1.0993 -0.1486 -0.9961
 3090SOL    HW210948   8.559   8.940   9.290 -0.0718  0.4270  0.4547
 3091SOL     OW10949   5.178   1.826   8.113  0.0334  0.0234 -0.1122
 3091SOL    HW110950   5.217   1.881   8.045 -1.3264 -2.5921 -3.1002
 3091SOL    HW210951   5.113   1.882   8.156  1.0523  1.7527 -0.7882
 3092SOL     OW10952   2.244   4.692   5.293  0.5483 -0.1456  0.0298
 3092SOL    HW110953   2.212   4.610   5.330 -3.2910  0.7192 -1.1072
 3092SOL    HW210954   2.267   4.671   5.203  0.8729 -0.2699  0.1428
 3093SOL     OW10955   3.889   2.837   2.497  0.5490  0.2917 -0.0647
 3093SOL    HW110956   3.860   2.905   2.558  3.0493  1.4618 -0.1257
 3093SOL    HW210957   3.972   2.806   2.534 -0.1509 -2.1917 -0.4804
 3094SOL     OW10958   7.953   3.754   8.625  0.0042  0.0274  0.3009
 3094SOL    HW110959   7.893   3.825   8.604  1.7022  0.9435 -1.6290
 3094SOL    HW210960   8.029   3.797   8.664  0.5245 -0.8483  0.2650
 3095SOL     OW10961   0.145   6.054   2.514 -0.3363  1.1142  0.5402
 3095SOL    HW110962   0.180   6.111   2.445  0.5499 -1.2177 -1.0177
 3095SOL    HW210963   0.220   6.038   2.572 -0.4430  1.1098  0.6784
 3096SOL     OW10964   4.924   6.558   2.300 -0.1652  0.8392 -0.0428
 3096SOL    HW110965   4.839   6.572   2.257  0.1986  2.8393 -0.1801
 3096SOL    HW210966   4.918   6.471   2.338 -2.7201  1.3833  0.9160
 3097SOL     OW10967   4.062   8.523   0.748  0.2742 -0.4985  0.6304
 3097SOL    HW110968   4.032   8.552   0.834 -0.2112 -2.3509  1.1172
 3097SOL    HW210969   4.103   8.600   0.709 -0.1481  0.5523  2.2276
 3098SOL     OW10970   3.825   3.273   9.132 -0.5280  0.4514 -0.1688
 3098SOL    HW110971   3.851   3.322   9.053  2.0093 -0.2100  0.2092
 3098SOL    HW210972   3.885   3.199   9.134 -1.4272 -0.2411  1.7076
 3099SOL     OW10973   3.936   4.789   1.772 -0.2582 -0.6659  0.0337
 3099SOL    HW110974   3.991   4.711   1.765  1.0968  0.3868 -1.4906
 3099SOL    HW210975   3.987   4.858   1.731 -1.9522  0.7761  0.2782
 3100SOL     OW10976   3.727   0.530   7.125  0.2445  0.5341 -0.3460
 3100SOL    HW110977   3.683   0.504   7.206  1.2581  1.6137  0.5770
 3100SOL    HW210978   3.678   0.486   7.056 -1.6155  0.8574  0.7299
 3101SOL     OW10979   8.051   2.851   0.213  0.5627  0.4480  0.1308
 3101SOL    HW110980   8.007   2.837   0.129 -0.9504  0.6327  0.8766
 3101SOL    HW210981   8.052   2.764   0.254  0.0008  0.6316  0.5377
 3102SOL     OW10982   7.099   4.267   5.992 -0.1153 -0.4568  0.2928
 3102SOL    HW110983   7.156   4.262   5.916  0.2828 -0.4775  0.5923
 3102SOL    HW210984   7.110   4.356   6.025  0.3398 -0.7026  0.8100
 3103SOL     OW10985   3.422   8.065   3.433  0.0796 -0.1610 -0.2011
 3103SOL    HW110986   3.393   8.141   3.483  0.2335  0.0924 -0.4928
 3103SOL    HW210987   3.363   8.061   3.358  1.4783  1.0300 -1.4061
 3104SOL     OW10988   6.386   1.413   2.691  0.3778 -0.0244  0.6259
 3104SOL    HW110989   6.297   1.402   2.726 -0.1725  1.0883 -0.4055
 3104SOL    HW210990   6.428   1.474   2.751 -0.5651  1.8806 -0.6112
 3105SOL     OW10991   5.621   0.350   1.619  0.3311 -0.1704 -0.1247
 3105SOL    HW110992   5.547   0.405   1.594  0.2991 -0.0745  0.1838
 3105SOL    HW210993   5.590   0.299   1.694  0.3651 -0.5975 -0.4002
 3106SOL     OW10994   0.036   8.201   9.058 -0.7257 -0.4768 -0.1429
 3106SOL    HW110995   0.127   8.173   9.075 -0.5651  0.8974  1.3317
 3106SOL    HW210996   0.030   8.204   8.963  1.2042  0.7241 -0.2697
 3107SOL     OW10997   6.310   5.845   0.261  0.1217  0.0567  0.5727
 3107SOL    HW110998   6.247   5.824   0.329 -0.1570 -1.5199 -0.1663
 3107SOL    HW210999   6.382   5.783   0.274  0.2759  0.0398 -0.2794
 3108SOL     OW11000   3.135   4.304   2.914  0.5765  0.1291  0.0859
 3108SOL    HW111001   3.154   4.212   2.933  2.2598  0.3214 -0.5535
 3108SOL    HW211002   3.040   4.309   2.913  0.4167 -0.9718  3.1738
 3109SOL     OW11003   4.476   2.835   9.157  0.1322  0.3779 -0.2245
 3109SOL    HW111004   4.441   2.746   9.165  0.5212  0.1703 -0.7748
 3109SOL    HW211005   4.446   2.880   9.236  0.3189 -0.3773  0.2820
 3110SOL     OW11006   8.350   2.405   2.237 -0.5455  0.5162 -0.5577
 3110SOL    HW111007   8.339   2.482   2.181  1.2002  0.9061 -0.3766
 3110SOL    HW211008   8.311   2.333   2.187  1.9537  0.6443 -2.7631
 3111SOL     OW11009   4.364   5.016   6.630  0.2065 -0.0004 -0.1469
 3111SOL    HW111010   4.284   4.965   6.641  0.1248 -0.1382 -1.2813
 3111SOL    HW211011   4.432   4.961   6.669 -0.3088  0.3024  1.1871
 3112SOL     OW11012   7.497   9.181   8.947 -0.1583 -0.3682  0.1572
 3112SOL    HW111013   7.485   9.158   8.855  1.9696 -1.0131  0.0107
 3112SOL    HW211014   7.574   9.130   8.975 -1.0688 -0.5763  2.4243
 3113SOL     OW11015   6.726   8.940   7.883 -0.0970 -0.1708  0.3344
 3113SOL    HW111016   6.659   8.892   7.834 -1.5898  1.0842  1.1103
 3113SOL    HW211017   6.791   8.873   7.907 -1.2518 -1.4746 -0.1038
 3114SOL     OW11018   3.953   4.462   8.324  0.4391 -0.1736 -0.0747
 3114SOL    HW111019   3.955   4.427   8.414  0.2857 -1.1602 -0.4455
 3114SOL    HW211020   3.885   4.529   8.326 -1.8681 -2.4441 -0.2437
 3115SOL     OW11021   4.816   8.431   1.575  0.0982 -0.5242 -0.4383
 3115SOL    HW111022   4.758   8.503   1.599  1.4911  0.7989 -0.9472
 3115SOL    HW211023   4.902   8.459   1.605  0.4558 -2.5517  0.4587
 3116SOL     OW11024   3.320   2.854   3.964 -0.2095 -0.2273  0.1138
 3116SOL    HW111025   3.333   2.778   3.908  0.7206 -0.3933  0.5488
 3116SOL    HW211026   3.226   2.857   3.978 -0.1577 -1.9034  0.9271
 3117SOL     OW11027   1.853   4.477   6.629 -0.0504  0.1426 -0.4256
 3117SOL    HW111028   1.919   4.449   6.691 -0.1566  1.2972  0.2190
 3117SOL    HW211029   1.892   4.462   6.543  1.7185  2.2934 -0.0551
 3118SOL     OW11030   6.939   7.792   2.425  0.0640 -0.1774  0.5292
 3118SOL    HW111031   6.866   7.844   2.458 -0.0774  0.8150 -1.2813
 3118SOL    HW211032   6.960   7.832   2.340  2.4487 -0.6959  0.8627
 3119SOL     OW11033   2.188   1.458   6.819 -0.0927  0.2517  0.4625
 3119SOL    HW111034   2.258   1.421   6.765 -0.7411  0.4579 -0.5371
 3119SOL    HW211035   2.116   1.472   6.758 -0.3302  1.8698  1.0876
 3120SOL     OW11036   6.852   1.507   8.670 -0.0335 -0.8502 -0.4642
 3120SOL    HW111037   6.891   1.518   8.583 -0.6990 -0.2261 -0.6932
 3120SOL    HW211038   6.878   1.420   8.697  0.5778 -0.8705 -1.0920
 3121SOL     OW11039   1.674   6.356   6.457  0.2385  0.5833 -0.2403
 3121SOL    HW111040   1.582   6.382   6.448 -0.1024 -0.7810 -0.8573
 3121SOL    HW211041   1.695   6.315   6.373  1.0242 -0.2645  0.3592
 3122SOL     OW11042   7.910   5.907   7.970 -0.3820  0.6423  0.2137
 3122SOL    HW111043   7.945   5.978   8.023 -0.1696  0.5321  0.2223
 3122SOL    HW211044   7.980   5.887   7.907  0.3158 -0.8329  1.4188
 3123SOL     OW11045   3.754   0.006   8.780 -0.2936 -0.1506 -0.3000
 3123SOL    HW111046   3.662   0.024   8.797  0.1077 -0.1984  2.0075
 3123SOL    HW211047   3.760  -0.089   8.777 -0.3707 -0.1442 -0.9106
 3124SOL     OW11048   6.703   3.640   6.818 -0.2388 -0.6745 -0.4076
 3124SOL    HW111049   6.678   3.558   6.775  0.8885 -1.1505 -0.1778
 3124SOL    HW211050   6.623   3.669   6.863 -0.1009 -2.7742  1.2995
 3125SOL     OW11051   3.161   3.814   7.905  0.6520  0.4929  0.3285
 3125SOL    HW111052   3.141   3.820   7.998 -0.4004  0.7846  0.0889
 3125SOL    HW211053   3.077   3.825   7.862  1.3400  1.8169 -0.7064
 3126SOL     OW11054   0.878   1.607   5.671  0.2033  0.2216 -0.0919
 3126SOL    HW111055   0.820   1.541   5.633 -0.6573  0.0125  1.5736
 3126SOL    HW211056   0.959   1.560   5.690  0.1525  0.0131 -0.3939
 3127SOL     OW11057   3.893   1.724   0.850 -0.6556  0.4548 -0.2916
 3127SOL    HW111058   3.820   1.758   0.902 -0.9057  1.9379 -1.5792
 3127SOL    HW211059   3.871   1.632   0.836 -1.6541  0.5782  0.3747
 3128SOL     OW11060   2.323   3.871   3.799  0.5026  0.0820 -0.4545
 3128SOL    HW111061   2.321   3.948   3.742 -0.7484  0.3250 -0.0872
 3128SOL    HW211062   2.289   3.902   3.883  2.5451 -0.2198  0.5107
 3129SOL     OW11063   8.410   2.779   8.539 -0.3611  0.1548  0.0996
 3129SOL    HW111064   8.422   2.750   8.448 -0.6965  1.6745 -0.4508
 3129SOL    HW211065   8.488   2.747   8.585  0.7907  1.0838 -1.1723
 3130SOL     OW11066   4.736   2.722   9.238 -0.1622  0.0114 -0.0533
 3130SOL    HW111067   4.705   2.683   9.320 -1.0360 -2.9515 -1.6903
 3130SOL    HW211068   4.662   2.774   9.207 -1.1000 -1.5771 -0.5744
 3131SOL     OW11069   6.387   1.936   8.223  0.6749  0.1972  0.1283
 3131SOL    HW111070   6.424   1.959   8.308  1.7749  0.1139 -0.3245
 3131SOL    HW211071   6.299   1.973   8.224  0.8325  0.5475  1.1409
 3132SOL     OW11072   2.701   4.062   5.289  0.0340 -0.8950 -0.3416
 3132SOL    HW111073   2.663   4.110   5.362  0.2783  0.9322 -1.3812
 3132SOL    HW211074   2.662   3.975   5.294 -2.7916  0.3319 -0.2328
 3133SOL     OW11075   2.605   4.271   6.971 -0.0108 -0.1235  0.2278
 3133SOL    HW111076   2.606   4.213   7.047 -1.8782 -0.5820 -0.0566
 3133SOL    HW211077   2.531   4.331   6.988  0.9584  1.2111 -0.1792
 3134SOL     OW11078   3.990   0.075   4.889 -0.0675  0.9520  0.0858
 3134SOL    HW111079   3.984   0.110   4.978  1.8691  0.6992  0.3220
 3134SOL    HW211080   3.961   0.147   4.833  0.2943  1.6720  0.8182
 3135SOL     OW11081   6.950   8.615   3.722  0.5078  0.7362  0.6421
 3135SOL    HW111082   7.021   8.559   3.692 -0.2545 -0.5313  1.1816
 3135SOL    HW211083   6.939   8.679   3.651  0.3866 -0.7048 -0.6567
 3136SOL     OW11084   6.304   1.869   3.979 -0.1781 -0.3820  0.5667
 3136SOL    HW111085   6.391   1.900   4.004  0.2144 -0.8018 -0.2557
 3136SOL    HW211086   6.245   1.912   4.041  0.7311 -1.0654  1.9578
 3137SOL     OW11087   8.711   4.835   8.575  0.5492  0.2815  0.2678
 3137SOL    HW111088   8.649   4.884   8.521  0.5267  0.6302  0.6027
 3137SOL    HW211089   8.740   4.763   8.520 -0.9068 -0.4535  0.4517
 3138SOL     OW11090   0.020   8.494   2.446  0.1051  0.0788  0.5148
 3138SOL    HW111091   0.010   8.402   2.470  0.4272 -0.0731  0.0781
 3138SOL    HW211092   0.106   8.519   2.480 -0.6738  0.6856  2.0832
 3139SOL     OW11093   0.107   5.637   7.252  0.1332  0.2708 -0.3838
 3139SOL    HW111094   0.179   5.614   7.311 -0.5183  0.6237  0.5580
 3139SOL    HW211095   0.050   5.560   7.252 -0.7161  0.8795  0.7550
 3140SOL     OW11096   4.990   3.462   6.113  0.4670 -0.4863  0.1695
 3140SOL    HW111097   5.026   3.472   6.201  1.1283  0.9409 -0.2445
 3140SOL    HW211098   4.926   3.532   6.105  0.3156 -0.6920 -0.4391
 3141SOL     OW11099   5.047   7.443   2.768  0.6109  0.4592  0.1418
 3141SOL    HW111100   4.979   7.412   2.708  1.5484 -2.1095  0.3403
 3141SOL    HW211101   5.091   7.513   2.719  0.0928 -0.2728 -1.4150
 3142SOL     OW11102   4.890   7.728   2.088  0.6068  0.3126  0.0658
 3142SOL    HW111103   4.938   7.648   2.110 -1.1946 -0.9418 -0.4256
 3142SOL    HW211104   4.919   7.750   1.999  0.9327  0.0640  0.1111
 3143SOL     OW11105   9.046   6.609   3.702 -0.1943 -0.3575 -0.2163
 3143SOL    HW111106   9.120   6.664   3.675  0.2111 -1.4025 -1.2480
 3143SOL    HW211107   8.974   6.670   3.713  0.7049  0.6244  0.3909
 3144SOL     OW11108   6.312   5.681   4.549 -0.4731  0.2455  0.1793
 3144SOL    HW111109   6.362   5.605   4.578  0.1779  1.0542  1.1982
 3144SOL    HW211110   6.335   5.691   4.456 -2.1195 -1.9970 -0.5219
 3145SOL     OW11111   1.676   8.869   0.205 -0.1720 -0.8454 -0.2628
 3145SOL    HW111112   1.746   8.809   0.178  0.3517  0.2500 -1.3568
 3145SOL    HW211113   1.618   8.815   0.258  0.8589 -2.0705 -0.3538
 3146SOL     OW11114   6.937   5.977   4.053  0.0358  0.0043  0.1330
 3146SOL    HW111115   6.924   6.045   4.119  2.3613 -0.3189  0.9409
 3146SOL    HW211116   6.978   5.905   4.100 -1.6327 -1.6834 -0.8968
 3147SOL     OW11117   4.400   0.574   1.917  0.3196  0.0745 -0.3783
 3147SOL    HW111118   4.438   0.582   1.830 -1.0922  0.2821 -0.9928
 3147SOL    HW211119   4.306   0.578   1.903  0.0845  1.0002  1.2374
 3148SOL     OW11120   0.724   1.248   2.534 -0.0747  0.2711 -0.4088
 3148SOL    HW111121   0.701   1.231   2.443  0.3890  2.7107 -1.0057
 3148SOL    HW211122   0.812   1.210   2.544  0.0672  0.4096 -1.1063
 3149SOL     OW11123   2.280   1.912   8.565 -0.3887  0.4644 -0.0009
 3149SOL    HW111124   2.230   1.885   8.488 -1.1607  2.9708 -0.4074
 3149SOL    HW211125   2.232   1.987   8.600  0.8139  0.3146  2.0311
 3150SOL     OW11126   0.722   5.594   4.077 -0.2277  0.2471 -0.2832
 3150SOL    HW111127   0.737   5.669   4.135 -3.5647  0.0146  1.0067
 3150SOL    HW211128   0.662   5.538   4.127  1.1103 -2.6082 -1.7975
 3151SOL     OW11129   9.129   1.559   4.523  0.2529  0.7434 -0.2378
 3151SOL    HW111130   9.060   1.511   4.477  0.7165  0.0617 -0.2187
 3151SOL    HW211131   9.097   1.650   4.524 -1.5828  0.1228  1.5089
 3152SOL     OW11132   5.401   2.201   5.857 -0.3830 -0.0571 -0.8020
 3152SOL    HW111133   5.331   2.250   5.899 -0.6435 -0.5138 -0.6929
 3152SOL    HW211134   5.356   2.148   5.791 -0.1674 -0.4906 -0.6036
 3153SOL     OW11135   9.177   2.608   2.701 -0.0861  0.0788  0.2313
 3153SOL    HW111136   9.205   2.619   2.610  1.2820 -0.8063  0.5360
 3153SOL    HW211137   9.226   2.674   2.749 -1.4094  1.0906  0.2313
 3154SOL     OW11138   7.699   1.790   6.432  0.3156  0.0634 -0.4077
 3154SOL    HW111139   7.771   1.795   6.495 -1.5566  0.2037  1.8184
 3154SOL    HW211140   7.702   1.873   6.385 -0.3861  1.4955  1.9702
 3155SOL     OW11141   0.514   0.403   2.217  0.3756 -0.4287 -0.0229
 3155SOL    HW111142   0.558   0.469   2.270  0.1029 -0.5809  0.3902
 3155SOL    HW211143   0.422   0.430   2.216  0.3829 -0.4066 -0.4479
 3156SOL     OW11144   1.324   0.038   7.757 -0.4632 -0.3404  0.1868
 3156SOL    HW111145   1.323   0.133   7.750  0.6364 -0.4268 -1.4919
 3156SOL    HW211146   1.365   0.020   7.841  1.0573  0.6580 -0.3199
 3157SOL     OW11147   7.006   4.176   6.587  0.5507  0.0907  0.0720
 3157SOL    HW111148   7.025   4.190   6.494  0.5723 -0.6068 -0.0273
 3157SOL    HW211149   6.997   4.264   6.623 -0.0190  0.3623 -0.7141
 3158SOL     OW11150   2.336   3.889   7.695  0.2790  0.3401  0.7042
 3158SOL    HW111151   2.321   3.881   7.600 -2.5994 -1.1846  1.2372
 3158SOL    HW211152   2.274   3.956   7.723  0.4958  0.1483  1.6613
 3159SOL     OW11153   2.188   2.449   0.976  0.3948  0.4171  0.0214
 3159SOL    HW111154   2.125   2.385   1.010  0.6977  0.1044 -0.0063
 3159SOL    HW211155   2.271   2.426   1.017 -0.2694  3.3062  3.2063
 3160SOL     OW11156   0.618   2.461   3.567 -0.1250 -0.0714 -0.5355
 3160SOL    HW111157   0.526   2.434   3.566 -0.1094 -0.1624  0.1717
 3160SOL    HW211158   0.658   2.411   3.495 -0.8496  0.8072 -1.5569
 3161SOL     OW11159   1.670   7.410   5.855  0.3218 -0.5699 -0.2010
 3161SOL    HW111160   1.731   7.343   5.887 -0.8602 -1.0525  1.0675
 3161SOL    HW211161   1.625   7.368   5.782 -0.2765 -1.1139  0.4678
 3162SOL     OW11162   0.214   0.726   0.303  0.0790  0.3129  0.0108
 3162SOL    HW111163   0.168   0.648   0.272 -1.6115  1.4690 -0.4694
 3162SOL    HW211164   0.292   0.731   0.249  2.0215 -2.9655  2.3656
 3163SOL     OW11165   5.445   5.713   3.485 -0.0839 -0.2305  0.5938
 3163SOL    HW111166   5.520   5.706   3.544  0.3910  1.1994  0.1879
 3163SOL    HW211167   5.435   5.626   3.448  2.5343  0.0117 -0.7327
 3164SOL     OW11168   1.530   3.132   7.383 -0.0865  0.1932  0.0338
 3164SOL    HW111169   1.444   3.171   7.366 -0.0039  0.9149  1.2800
 3164SOL    HW211170   1.592   3.205   7.375  0.6299 -0.6107 -2.4731
 3165SOL     OW11171   2.828   1.531   5.797  0.3614 -0.3804  0.0511
 3165SOL    HW111172   2.911   1.577   5.807  0.1591  0.7061 -2.7325
 3165SOL    HW211173   2.800   1.511   5.886  1.7363  2.6450  1.2150
 3166SOL     OW11174   0.815   4.077   3.098  0.7594  0.0859  0.2776
 3166SOL    HW111175   0.909   4.088   3.111  0.6380  0.8978  0.4984
 3166SOL    HW211176   0.806   3.989   3.061  1.4899 -0.4897  1.4281
 3167SOL     OW11177   6.319   8.656   2.020 -0.1634 -0.1897 -0.0609
 3167SOL    HW111178   6.265   8.706   1.958  0.1450 -0.1825 -0.3247
 3167SOL    HW211179   6.259   8.634   2.091 -0.9564 -1.6629 -1.1552
 3168SOL     OW11180   5.034   6.797   7.001  0.7734  0.1992 -0.7091
 3168SOL    HW111181   5.119   6.756   6.981  1.4401  1.3409 -0.2533
 3168SOL    HW211182   5.001   6.827   6.917  0.2499 -1.3116 -1.0608
 3169SOL     OW11183   5.711   1.270   5.435  0.1269 -0.0209  0.0301
 3169SOL    HW111184   5.705   1.223   5.518 -1.2696  1.2114  0.6651
 3169SOL    HW211185   5.645   1.340   5.443 -0.9840 -0.7116 -2.6500
 3170SOL     OW11186   3.381   6.098   8.884  0.1574 -0.2352  0.1602
 3170SOL    HW111187   3.294   6.058   8.889  0.2014 -0.4068 -0.4061
 3170SOL    HW211188   3.419   6.063   8.803  1.0970 -0.8454  0.8612
 3171SOL     OW11189   2.597   9.023   1.119  0.0285 -0.3632  0.0203
 3171SOL    HW111190   2.673   9.007   1.062 -0.8690  0.9505 -1.6031
 3171SOL    HW211191   2.582   8.939   1.163  1.8854 -0.8844 -0.2911
 3172SOL     OW11192   5.184   1.276   9.167  0.4614  0.3234  0.0799
 3172SOL    HW111193   5.266   1.249   9.209  0.8542  0.5913 -0.5100
 3172SOL    HW211194   5.211   1.312   9.083 -0.3709 -0.6399 -0.5979
 3173SOL     OW11195   6.750   0.493   8.935  0.4731 -0.0331 -0.3138
 3173SOL    HW111196   6.725   0.405   8.962  2.1674 -0.5193 -0.2992
 3173SOL    HW211197   6.669   0.531   8.899  0.3585 -2.5004 -2.7816
 3174SOL     OW11198   0.063   6.256   0.113 -0.5184 -0.0910 -0.4144
 3174SOL    HW111199  -0.007   6.209   0.069  0.3673 -1.4100 -0.4233
 3174SOL    HW211200   0.123   6.281   0.043  0.1507 -0.9219 -0.1468
 3175SOL     OW11201   4.406   0.180   2.533  0.1435 -0.2422 -0.0988
 3175SOL    HW111202   4.311   0.190   2.530  0.0346 -0.9336  0.7063
 3175SOL    HW211203   4.440   0.264   2.504 -0.7097  0.7061  1.5531
 3176SOL     OW11204   8.996   1.406   9.109  0.0846 -0.2684 -0.1315
 3176SOL    HW111205   8.959   1.319   9.094  0.0850 -0.2800 -0.0650
 3176SOL    HW211206   9.066   1.414   9.044  0.2647 -0.4249  0.0424
 3177SOL     OW11207   7.718   6.497   3.850  0.5480  0.2219 -0.7052
 3177SOL    HW111208   7.692   6.551   3.925  0.8001 -0.0744 -0.4079
 3177SOL    HW211209   7.693   6.549   3.774  0.1615  0.4595 -0.4155
 3178SOL     OW11210   8.092   7.022   4.589  0.4125 -0.4176  0.2840
 3178SOL    HW111211   8.100   7.049   4.680 -0.3267  0.2166  0.1693
 3178SOL    HW211212   8.123   6.932   4.587  0.5324 -0.3950  1.1390
 3179SOL     OW11213   1.728   5.562   9.272  0.3265 -1.1877 -0.0593
 3179SOL    HW111214   1.786   5.631   9.239 -1.0092  1.0869  2.1543
 3179SOL    HW211215   1.651   5.567   9.216 -0.7889  0.8203  1.5844
 3180SOL     OW11216   8.377   1.867   6.643 -0.3898 -0.6107 -0.2358
 3180SOL    HW111217   8.314   1.801   6.671 -1.4477  0.3229 -0.3565
 3180SOL    HW211218   8.431   1.883   6.720 -0.5349 -1.1508 -0.0200
 3181SOL     OW11219   7.560   2.364   9.089  0.0870  0.6637  0.4385
 3181SOL    HW111220   7.616   2.308   9.143  0.5322  1.5550  0.9108
 3181SOL    HW211221   7.490   2.306   9.059  1.0979 -0.3771  0.0858
 3182SOL     OW11222   4.749   4.993   2.641 -0.4892 -0.1571  0.3393
 3182SOL    HW111223   4.654   4.996   2.654 -0.6199 -1.4768 -0.2635
 3182SOL    HW211224   4.761   4.947   2.558  0.6470  0.9038 -0.0894
 3183SOL     OW11225   7.063   3.731   1.871  0.0949 -0.1355 -0.1017
 3183SOL    HW111226   7.118   3.653   1.858 -0.6698 -0.3412 -2.1894
 3183SOL    HW211227   7.116   3.804   1.841  0.1671 -0.0368  0.2587
 3184SOL     OW11228   2.362   3.545   3.335  0.4007  0.7243 -0.4311
 3184SOL    HW111229   2.396   3.536   3.246  0.4476  0.4659 -0.3902
 3184SOL    HW211230   2.299   3.616   3.330 -0.2577  0.1217 -0.8671
 3185SOL     OW11231   7.413   5.325   9.130 -0.1908  0.2629 -0.2443
 3185SOL    HW111232   7.490   5.275   9.159 -1.8560 -1.5999  1.0594
 3185SOL    HW211233   7.390   5.287   9.045 -1.3538 -1.1595  0.6694
 3186SOL     OW11234   7.495   8.952   2.002  0.3677 -0.0086  0.0640
 3186SOL    HW111235   7.487   8.931   2.096 -1.6601 -0.9865 -0.2977
 3186SOL    HW211236   7.473   9.045   1.996  0.9536  0.1682  0.6163
 3187SOL     OW11237   2.022   9.144   2.347 -0.5068  0.0909 -0.1496
 3187SOL    HW111238   2.079   9.171   2.276  0.4858 -1.0008  0.2180
 3187SOL    HW211239   1.988   9.059   2.320 -3.7198  1.6731 -1.3673
 3188SOL     OW11240   3.968   3.629   5.998  0.6891 -0.2203  0.4377
 3188SOL    HW111241   3.957   3.587   6.083  1.5320  0.6256  0.9866
 3188SOL    HW211242   3.889   3.681   5.985  0.4351 -0.5760  0.5692
 3189SOL     OW11243   4.398   3.195   3.103  0.1849  0.3777  0.8515
 3189SOL    HW111244   4.486   3.172   3.073 -0.5597 -0.9220 -0.4126
 3189SOL    HW211245   4.369   3.119   3.152 -0.2896  0.7386  1.1335
 3190SOL     OW11246   6.381   5.695   5.032  0.8981  0.2752 -0.0055
 3190SOL    HW111247   6.446   5.697   4.963 -0.3664  0.2035 -1.2165
 3190SOL    HW211248   6.327   5.618   5.013 -0.3667  1.0895  0.1991
 3191SOL     OW11249   3.129   3.071   4.975 -0.5670 -0.2559 -0.1120
 3191SOL    HW111250   3.128   2.978   4.951 -0.5183 -0.1293 -0.6106
 3191SOL    HW211251   3.052   3.083   5.030 -0.3253 -0.6916  0.3271
 3192SOL     OW11252   3.123   1.008   2.196 -0.2278  0.3973 -0.2382
 3192SOL    HW111253   3.033   0.990   2.225  0.3080 -0.7634  0.7773
 3192SOL    HW211254   3.149   0.929   2.148  0.4379  0.4917 -0.0430
 3193SOL     OW11255   7.002   3.013   7.845 -0.4082  0.1574  0.5468
 3193SOL    HW111256   6.927   2.986   7.899 -0.5660 -2.3182 -0.7916
 3193SOL    HW211257   7.072   2.953   7.870 -0.5308 -1.1605 -2.0367
 3194SOL     OW11258   0.601   0.416   1.159  0.0362  0.1145 -0.5121
 3194SOL    HW111259   0.572   0.486   1.100  0.6834 -0.2644 -1.2852
 3194SOL    HW211260   0.528   0.405   1.220 -0.2295  1.2051 -0.6215
 3195SOL     OW11261   5.087   3.813   7.069  0.8251 -0.7239 -0.2160
 3195SOL    HW111262   5.129   3.893   7.100 -1.3670  0.6428 -0.6858
 3195SOL    HW211263   5.140   3.786   6.994  1.8018  0.0461  0.1765
 3196SOL     OW11264   7.568   3.382   2.237 -0.0308 -0.0250 -0.2942
 3196SOL    HW111265   7.597   3.442   2.169  1.5435 -1.8430 -1.2760
 3196SOL    HW211266   7.513   3.435   2.295  0.6183  2.1166 -1.6085
 3197SOL     OW11267   8.580   1.928   5.893  0.4380  0.3487 -0.6811
 3197SOL    HW111268   8.557   1.853   5.948  0.4743  0.3145 -0.7122
 3197SOL    HW211269   8.519   1.924   5.820 -0.1766  0.8928 -0.2034
 3198SOL     OW11270   9.103   1.443   4.989  0.0939  0.3259 -0.1174
 3198SOL    HW111271   9.157   1.370   5.018  0.8943  1.0137  0.1733
 3198SOL    HW211272   9.132   1.460   4.899  1.3751  1.5811  0.4989
 3199SOL     OW11273   5.891   0.464   8.912 -0.5071 -0.0510 -0.8326
 3199SOL    HW111274   5.846   0.530   8.965  1.6592  0.5974  0.2148
 3199SOL    HW211275   5.950   0.515   8.856  1.0687 -1.1080 -0.1273
 3200SOL     OW11276   3.147   6.570   6.847 -0.0719 -0.6606  0.6288
 3200SOL    HW111277   3.064   6.615   6.829 -0.6765 -1.1908  2.0172
 3200SOL    HW211278   3.191   6.567   6.762  0.0211  2.6275  0.4617
 3201SOL     OW11279   0.752   0.394   7.723  0.7712 -0.1393  0.1246
 3201SOL    HW111280   0.836   0.359   7.694  0.1507 -0.7436 -0.9527
 3201SOL    HW211281   0.771   0.435   7.807  1.6928 -2.2019  0.9359
 3202SOL     OW11282   3.215   7.323   4.814 -0.4752  0.2774 -0.0599
 3202SOL    HW111283   3.221   7.417   4.801 -0.7564  0.3454  0.3159
 3202SOL    HW211284   3.249   7.285   4.732  0.8139  0.6951  0.2701
 3203SOL     OW11285   8.783   6.192   3.172 -0.1191 -0.5059  0.2308
 3203SOL    HW111286   8.758   6.108   3.133  0.5553 -0.7003  0.2125
 3203SOL    HW211287   8.713   6.211   3.235 -0.9347 -0.4609 -0.6620
 3204SOL     OW11288   4.697   4.493   5.891  0.1068 -0.1413 -0.6856
 3204SOL    HW111289   4.776   4.547   5.903  0.2154 -0.6385  1.0606
 3204SOL    HW211290   4.729   4.403   5.900 -0.4360 -0.4018 -1.3722
 3205SOL     OW11291   2.956   4.491   3.557  0.4761 -0.2561 -0.3215
 3205SOL    HW111292   3.010   4.533   3.625 -0.5721 -1.0056  0.9859
 3205SOL    HW211293   2.866   4.507   3.585  0.0522 -3.0067 -0.0254
 3206SOL     OW11294   5.597   3.388   4.973 -0.0065 -0.1254  0.2497
 3206SOL    HW111295   5.562   3.341   5.049 -2.4499 -0.0175 -0.7649
 3206SOL    HW211296   5.556   3.474   4.977  1.6554  0.6932  0.0645
 3207SOL     OW11297   5.274   5.073   7.018 -0.0223  0.6278  0.4309
 3207SOL    HW111298   5.238   5.003   6.963 -1.4127  1.2365  0.5493
 3207SOL    HW211299   5.274   5.036   7.107 -4.2743  2.0163  1.1161
 3208SOL     OW11300   4.373   2.136   1.038 -0.4551 -0.0431 -0.1100
 3208SOL    HW111301   4.390   2.172   1.125  1.6493  1.2292 -1.0131
 3208SOL    HW211302   4.457   2.098   1.010 -0.4298  1.6920 -2.5635
 3209SOL     OW11303   0.110   7.709   6.842 -0.4038  0.2191  0.0204
 3209SOL    HW111304   0.200   7.734   6.863  0.5650 -0.8494 -2.6360
 3209SOL    HW211305   0.110   7.613   6.848 -1.1133  0.1569 -0.8548
 3210SOL     OW11306   0.080   7.545   8.007  0.4624  0.7962  0.2366
 3210SOL    HW111307   0.050   7.582   7.924  1.3091 -1.4803 -1.1339
 3210SOL    HW211308   0.154   7.489   7.982  1.2280  0.6990  2.6472
 3211SOL     OW11309   7.495   2.917   7.261 -0.6755  0.1998 -0.1137
 3211SOL    HW111310   7.444   2.836   7.248  1.1954 -1.4100  2.1847
 3211SOL    HW211311   7.459   2.955   7.341  0.3806  0.0598  0.4449
 3212SOL     OW11312   4.819   4.048   5.343 -0.4246  0.6196  0.2164
 3212SOL    HW111313   4.817   4.143   5.327 -0.3032  0.3207 -1.6868
 3212SOL    HW211314   4.727   4.022   5.348 -0.4886  0.6379 -0.6671
 3213SOL     OW11315   9.204   6.748   2.077  0.7668  0.2670 -0.1489
 3213SOL    HW111316   9.181   6.679   2.140  0.3524  0.6672  0.1435
 3213SOL    HW211317   9.212   6.702   1.994  1.9294 -0.3653  0.3060
 3214SOL     OW11318   0.284   0.793   7.045 -0.2654  0.4200 -0.0612
 3214SOL    HW111319   0.234   0.763   6.969  1.4572 -0.0731 -1.0407
 3214SOL    HW211320   0.239   0.757   7.121 -1.4822  0.1436 -0.9131
 3215SOL     OW11321   4.608   7.119   1.461  0.4427 -0.2278 -0.4370
 3215SOL    HW111322   4.556   7.043   1.436 -0.1297  1.5978 -5.3283
 3215SOL    HW211323   4.546   7.192   1.461  1.5578  0.7687  1.2429
 3216SOL     OW11324   3.296   1.170   3.154  0.3833 -0.6939  0.2998
 3216SOL    HW111325   3.335   1.249   3.190 -2.7452  0.6744  0.9061
 3216SOL    HW211326   3.354   1.143   3.083  2.3489  1.2079  1.1572
 3217SOL     OW11327   0.044   7.598   2.103 -0.0290  0.1826  0.4575
 3217SOL    HW111328   0.097   7.519   2.098 -0.2818  0.0058  0.5230
 3217SOL    HW211329   0.104   7.667   2.131  0.2880  0.1035 -0.0223
 3218SOL     OW11330   5.056   1.185   8.148  0.2863 -0.3944  0.0741
 3218SOL    HW111331   4.962   1.181   8.161  0.3352 -0.1139  0.5431
 3218SOL    HW211332   5.084   1.261   8.200  0.8200 -0.7109  0.2598
 3219SOL     OW11333   2.700   3.159   7.227 -0.1724  0.2381 -0.1128
 3219SOL    HW111334   2.635   3.096   7.198 -0.9757  0.5914  0.9196
 3219SOL    HW211335   2.726   3.205   7.146 -0.4644 -0.5773 -0.6736
 3220SOL     OW11336   0.925   3.791   2.532  0.1459  0.1220 -0.0888
 3220SOL    HW111337   0.931   3.846   2.610 -0.3035 -0.0030  0.0382
 3220SOL    HW211338   0.900   3.705   2.566  1.8208 -0.4136 -0.1858
 3221SOL     OW11339   2.460   7.186   9.264 -0.6047 -0.4942  0.4155
 3221SOL    HW111340   2.457   7.242   9.342 -0.2486 -0.9630  0.7619
 3221SOL    HW211341   2.396   7.226   9.204 -1.3174 -0.4842  1.1805
 3222SOL     OW11342   1.276   0.197   1.323  0.3296 -0.1022 -0.3541
 3222SOL    HW111343   1.215   0.270   1.337  0.0447 -0.4248  0.0911
 3222SOL    HW211344   1.244   0.155   1.243  0.7528  0.5196 -0.8561
 3223SOL     OW11345   6.990   3.172   2.979  0.4209  0.2511  0.0614
 3223SOL    HW111346   7.001   3.115   2.903 -0.9306  0.8157 -0.5670
 3223SOL    HW211347   7.048   3.246   2.963  0.7123 -0.0027 -0.0494
 3224SOL     OW11348   6.536   2.611   1.330  0.3608 -0.3409 -0.3706
 3224SOL    HW111349   6.502   2.701   1.340  1.1596 -0.1426  0.6568
 3224SOL    HW211350   6.594   2.599   1.405  2.4052 -0.7511 -1.9692
 3225SOL     OW11351   2.525   2.691   2.332  0.8227  0.2810 -0.5936
 3225SOL    HW111352   2.617   2.698   2.357  1.3188  1.0126 -2.5290
 3225SOL    HW211353   2.515   2.753   2.260 -0.7801 -1.0758 -1.5675
 3226SOL     OW11354   6.354   1.856   5.281  0.3850 -0.1069 -0.0741
 3226SOL    HW111355   6.327   1.877   5.370  0.0568 -2.4270  0.4220
 3226SOL    HW211356   6.420   1.787   5.292  1.4189  0.6167 -1.5635
 3227SOL     OW11357   1.428   3.947   6.074  0.3619 -0.4640 -0.3061
 3227SOL    HW111358   1.341   3.966   6.041 -0.0386 -0.9012  0.4721
 3227SOL    HW211359   1.418   3.946   6.170  0.9611 -1.6601 -0.2439
 3228SOL     OW11360   1.078   6.368   6.374 -0.4478  0.2552 -0.1849
 3228SOL    HW111361   1.053   6.440   6.432  0.8316  0.2816  0.3418
 3228SOL    HW211362   1.003   6.308   6.377  0.2250 -0.5160  2.7511
 3229SOL     OW11363   2.027   4.238   2.091  0.0217  0.2525 -0.3306
 3229SOL    HW111364   1.935   4.218   2.077 -0.1836  0.0141  1.2802
 3229SOL    HW211365   2.027   4.318   2.144  0.6973 -0.9901  1.5702
 3230SOL     OW11366   5.828   2.666   5.404  0.2233 -0.4812 -0.4745
 3230SOL    HW111367   5.798   2.602   5.340 -1.9493  0.0143  0.0271
 3230SOL    HW211368   5.787   2.748   5.378  1.7343  0.3904 -0.1835
 3231SOL     OW11369   2.021   6.122   7.524  0.1748  0.0303 -0.1528
 3231SOL    HW111370   2.106   6.135   7.565  0.9995  0.3264 -1.8975
 3231SOL    HW211371   1.958   6.127   7.596  1.6293 -0.1922  1.1514
 3232SOL     OW11372   5.761   0.662   0.611 -0.1017  0.1841  0.1966
 3232SOL    HW111373   5.759   0.652   0.706 -1.4856  0.3742  0.1974
 3232SOL    HW211374   5.773   0.574   0.578  1.9192  0.2889  0.5751
 3233SOL     OW11375   6.941   8.925   5.384 -0.3757 -0.2644  0.2545
 3233SOL    HW111376   6.995   9.004   5.389 -0.2756 -0.3550  0.6856
 3233SOL    HW211377   6.999   8.858   5.348  0.6227 -1.0463  3.1767
 3234SOL     OW11378   8.256   7.359   4.021 -0.2001  0.9075  0.1972
 3234SOL    HW111379   8.199   7.330   3.950 -0.0466 -0.0621  0.4654
 3234SOL    HW211380   8.336   7.389   3.977 -0.2150  0.5787 -0.0561
 3235SOL     OW11381   5.924   4.515   4.780  0.0500  0.0451 -0.0132
 3235SOL    HW111382   5.841   4.526   4.826  0.8507 -1.1252  1.7512
 3235SOL    HW211383   5.984   4.575   4.823  0.5340 -0.2814 -0.2258
 3236SOL     OW11384   1.421   5.338   7.760 -0.2652 -0.6406  0.0729
 3236SOL    HW111385   1.384   5.260   7.720  0.3066 -0.5112 -0.7256
 3236SOL    HW211386   1.515   5.320   7.766 -0.0012  0.3196 -0.9287
 3237SOL     OW11387   6.106   8.384   0.619 -0.5785  0.1730  0.8998
 3237SOL    HW111388   6.150   8.306   0.651  1.6510  0.8983 -0.2467
 3237SOL    HW211389   6.152   8.457   0.661  2.0848  1.1343 -3.2946
 3238SOL     OW11390   4.733   7.435   6.228 -0.3410  0.3488 -0.4508
 3238SOL    HW111391   4.793   7.391   6.168 -0.4238  2.0743 -1.8250
 3238SOL    HW211392   4.659   7.374   6.236  0.4722 -0.6943 -0.6763
 3239SOL     OW11393   7.255   8.258   0.818 -0.9336 -0.8789  0.2496
 3239SOL    HW111394   7.237   8.351   0.831  0.5147 -0.4117 -0.9087
 3239SOL    HW211395   7.171   8.215   0.830 -1.9136  0.7419 -0.7294
 3240SOL     OW11396   2.292   8.007   9.076 -0.4756 -0.1024  0.0179
 3240SOL    HW111397   2.317   7.950   9.002  1.1039  1.2518 -0.5055
 3240SOL    HW211398   2.330   7.965   9.152 -1.1330 -0.8854 -0.0708
 3241SOL     OW11399   1.748   1.184   2.925  0.1456 -0.0012  0.7170
 3241SOL    HW111400   1.836   1.165   2.959  1.0974 -0.0545 -1.7360
 3241SOL    HW211401   1.748   1.149   2.836 -2.2878  0.2343  0.5961
 3242SOL     OW11402   4.130   6.754   8.903 -0.3059  0.3580 -0.1706
 3242SOL    HW111403   4.223   6.732   8.910 -0.4221 -0.2637 -0.5952
 3242SOL    HW211404   4.091   6.681   8.855 -0.8935  0.9350 -0.5868
 3243SOL     OW11405   0.491   5.096   5.616 -0.4955 -0.3838 -0.3371
 3243SOL    HW111406   0.505   5.007   5.585 -0.0077 -0.6038  0.4930
 3243SOL    HW211407   0.530   5.152   5.549 -0.4462 -0.8103 -0.6628
 3244SOL     OW11408   4.301   8.392   3.905 -0.2459  0.0342  0.0839
 3244SOL    HW111409   4.294   8.449   3.828 -0.3366 -0.9670 -0.6568
 3244SOL    HW211410   4.281   8.450   3.979  0.0562  1.0591 -0.6157
 3245SOL     OW11411   3.362   2.284   5.997  0.3696  0.6203 -0.3546
 3245SOL    HW111412   3.344   2.377   6.014  1.2182  0.6991  0.1385
 3245SOL    HW211413   3.429   2.260   6.061  1.0514 -0.0087 -1.2895
 3246SOL     OW11414   6.128   2.211   2.018 -0.5244 -0.0533 -0.6060
 3246SOL    HW111415   6.211   2.167   2.038 -1.2537 -1.4532 -0.6083
 3246SOL    HW211416   6.063   2.165   2.072 -2.0064 -1.8890 -3.8273
 3247SOL     OW11417   3.408   4.211   8.189  0.1297 -0.0583 -0.2369
 3247SOL    HW111418   3.429   4.159   8.112 -1.6637  0.7573 -1.3054
 3247SOL    HW211419   3.316   4.191   8.208  0.1214  0.8742  0.8022
 3248SOL     OW11420   7.291   0.668   6.525  0.2340 -0.0270  0.0494
 3248SOL    HW111421   7.360   0.631   6.469  1.4856  0.3489  1.3030
 3248SOL    HW211422   7.327   0.752   6.553 -1.1087  0.5485  0.0459
 3249SOL     OW11423   0.152   3.276   2.548 -0.2931 -0.4413  0.4069
 3249SOL    HW111424   0.115   3.238   2.628  1.5218  0.5290  1.7531
 3249SOL    HW211425   0.130   3.369   2.552 -2.6698 -0.8849 -1.6882
 3250SOL     OW11426   5.023   7.930   0.466  0.0311  0.5045  0.0274
 3250SOL    HW111427   5.051   8.017   0.435 -1.2410  1.0933  0.4811
 3250SOL    HW211428   5.035   7.873   0.390 -0.0431  1.2877 -0.5896
 3251SOL     OW11429   3.348   2.968   1.497 -0.2633  0.3399  0.3235
 3251SOL    HW111430   3.424   2.922   1.533 -0.6516 -1.4053 -1.0004
 3251SOL    HW211431   3.275   2.907   1.508 -0.9306  0.9031 -0.8658
 3252SOL     OW11432   0.743   7.864   0.759  0.7761 -0.4195  0.7852
 3252SOL    HW111433   0.677   7.863   0.829  2.3929  1.2058  2.4175
 3252SOL    HW211434   0.823   7.833   0.802  1.6189 -0.1054 -0.5431
 3253SOL     OW11435   5.498   0.678   0.527  0.0834 -0.1146  0.6799
 3253SOL    HW111436   5.590   0.653   0.529 -0.1453 -0.8777  2.0699
 3253SOL    HW211437   5.451   0.599   0.552 -0.9382  0.3598  0.2880
 3254SOL     OW11438   8.704   4.528   4.341  0.3359  0.3402  0.2180
 3254SOL    HW111439   8.664   4.464   4.284  0.0476  1.2933 -0.6584
 3254SOL    HW211440   8.771   4.479   4.389 -1.2399 -1.0526  1.0384
 3255SOL     OW11441   1.113   5.523   4.799 -0.3715 -0.5009 -0.2998
 3255SOL    HW111442   1.042   5.463   4.824 -0.2948 -0.2580  0.4886
 3255SOL    HW211443   1.158   5.544   4.881  0.8559 -0.9507 -0.8401
 3256SOL     OW11444   9.122   3.087   0.704  0.5595  0.2420  0.4602
 3256SOL    HW111445   9.054   3.096   0.771 -0.4945  0.7119 -0.6687
 3256SOL    HW211446   9.203   3.073   0.754 -0.4933 -1.3047  1.7920
 3257SOL     OW11447   9.127   0.821   1.785 -0.1110  0.0232 -0.1993
 3257SOL    HW111448   9.167   0.889   1.730 -0.5978  0.7069  0.2881
 3257SOL    HW211449   9.199   0.761   1.804  0.2234  0.1560 -1.0111
 3258SOL     OW11450   0.597   6.367   2.991 -0.3169 -0.2471  0.1186
 3258SOL    HW111451   0.662   6.302   2.966  1.4467  0.6542  2.2578
 3258SOL    HW211452   0.581   6.417   2.911  0.3221 -1.5656 -0.8532
 3259SOL     OW11453   6.595   1.765   2.518 -0.1627  0.4916  0.6081
 3259SOL    HW111454   6.633   1.721   2.594  0.7188 -1.0249 -0.6716
 3259SOL    HW211455   6.507   1.727   2.510  0.6589 -1.2079 -0.5953
 3260SOL     OW11456   9.188   3.019   1.028 -0.1424 -0.1291  0.0779
 3260SOL    HW111457   9.271   3.050   0.991 -1.1483  0.8916 -1.3811
 3260SOL    HW211458   9.201   3.024   1.123  1.3300  0.3885 -0.1376
 3261SOL     OW11459   0.386   0.313   2.979 -0.5859 -0.2310  0.7114
 3261SOL    HW111460   0.365   0.232   3.026 -0.5771 -1.3419 -1.1227
 3261SOL    HW211461   0.471   0.295   2.938  1.1967  2.0534  3.2469
 3262SOL     OW11462   5.922   0.052   1.489  0.0875  0.1198 -0.3405
 3262SOL    HW111463   5.960   0.089   1.409  0.7183  0.0058 -0.0937
 3262SOL    HW211464   5.830   0.076   1.485  0.2103  0.5040 -0.8811
 3263SOL     OW11465   2.114   6.172   0.399  0.5447  0.2696  0.0596
 3263SOL    HW111466   2.058   6.192   0.474  3.0435  1.5786  1.6156
 3263SOL    HW211467   2.146   6.083   0.415  0.2654  0.1577  0.0085
 3264SOL     OW11468   2.818   8.474   2.731 -0.0875 -0.3160 -0.1929
 3264SOL    HW111469   2.802   8.516   2.816  0.8782 -0.5864  0.1302
 3264SOL    HW211470   2.864   8.541   2.680  1.1250 -0.8307  0.1973
 3265SOL     OW11471   6.948   7.731   4.765  0.1782  0.1557  0.3023
 3265SOL    HW111472   6.956   7.677   4.843 -0.1625 -1.7353 -0.9454
 3265SOL    HW211473   6.862   7.772   4.774 -0.0023 -0.3138  0.7535
 3266SOL     OW11474   1.890   7.649   1.026  0.0014 -0.2330 -0.1031
 3266SOL    HW111475   1.908   7.674   1.116  0.1289 -0.8308  0.0393
 3266SOL    HW211476   1.807   7.602   1.030 -0.1690  0.0413 -0.3486
 3267SOL     OW11477   5.685   0.277   0.811  0.2824  0.3491 -0.5566
 3267SOL    HW111478   5.661   0.195   0.853 -0.2262  0.4195 -0.7087
 3267SOL    HW211479   5.773   0.296   0.844  0.8432 -0.8038 -1.3686
 3268SOL     OW11480   6.342   6.639   3.725 -0.1061 -0.1940 -0.1349
 3268SOL    HW111481   6.329   6.583   3.801  1.8918  2.1252  2.0076
 3268SOL    HW211482   6.435   6.661   3.726 -0.4902  1.7217 -1.9212
 3269SOL     OW11483   8.754   1.596   8.158  0.8589  0.1931 -0.3781
 3269SOL    HW111484   8.813   1.671   8.151  0.4733  0.5589  0.2521
 3269SOL    HW211485   8.807   1.527   8.198  0.1684  1.3293  2.6619
 3270SOL     OW11486   3.702   7.489   7.355 -0.1301 -0.4676 -0.4782
 3270SOL    HW111487   3.656   7.473   7.437  1.1714  0.4982  0.4825
 3270SOL    HW211488   3.712   7.584   7.351  0.0280 -0.5167 -1.6419
 3271SOL     OW11489   8.785   4.515   2.303  0.3998 -0.0942 -0.0944
 3271SOL    HW111490   8.818   4.597   2.268  0.6518 -0.0811  0.1743
 3271SOL    HW211491   8.796   4.452   2.232 -0.1200  0.1797 -0.4248
 3272SOL     OW11492   5.889   4.488   4.354 -0.1965 -0.4578 -0.7052
 3272SOL    HW111493   5.910   4.571   4.396 -0.7850 -0.0814 -1.1399
 3272SOL    HW211494   5.933   4.492   4.269  1.5083 -1.4800  0.1216
 3273SOL     OW11495   4.561   8.881   6.361  0.1313 -0.1787 -0.3158
 3273SOL    HW111496   4.532   8.880   6.453 -0.2876  0.1029 -0.4387
 3273SOL    HW211497   4.634   8.942   6.360  0.2644 -0.3340 -0.1315
 3274SOL     OW11498   5.490   4.535   0.608  0.4621 -0.0866 -0.0297
 3274SOL    HW111499   5.583   4.557   0.608  0.2722  0.8430 -2.0667
 3274SOL    HW211500   5.447   4.611   0.646  0.2922  0.8374 -1.9877
 3275SOL     OW11501   5.201   6.964   5.972  0.3373  0.5822  0.1886
 3275SOL    HW111502   5.229   7.055   5.973  2.4212 -0.0375  0.4986
 3275SOL    HW211503   5.111   6.966   5.939  0.6794  2.6476 -0.6409
 3276SOL     OW11504   6.282   3.123   7.448 -0.2221 -0.2710 -0.6391
 3276SOL    HW111505   6.327   3.040   7.465 -0.4170 -0.8036 -2.6115
 3276SOL    HW211506   6.280   3.167   7.533  1.2857 -1.5947  0.1065
 3277SOL     OW11507   1.326   0.938   2.774  0.1310 -0.1866  0.3894
 3277SOL    HW111508   1.319   0.899   2.861 -0.6526 -1.8210 -0.3950
 3277SOL    HW211509   1.390   0.884   2.728 -0.6737 -0.3280 -0.5804
 3278SOL     OW11510   4.633   6.956   6.484  0.4943 -0.4251  0.0267
 3278SOL    HW111511   4.660   6.906   6.561 -0.2317 -0.0888  0.5001
 3278SOL    HW211512   4.683   6.917   6.412  0.9652 -0.9267  0.6161
 3279SOL     OW11513   9.016   5.973   7.201 -0.4878 -0.0892 -0.7227
 3279SOL    HW111514   8.995   5.976   7.108  0.2475 -0.1162 -0.8946
 3279SOL    HW211515   8.934   5.994   7.245 -1.2415 -1.6088 -1.3394
 3280SOL     OW11516   3.335   6.699   0.124 -0.3738 -0.0609 -0.0172
 3280SOL    HW111517   3.388   6.694   0.045 -1.5116  1.6826 -0.9268
 3280SOL    HW211518   3.335   6.793   0.147 -0.0068 -0.5391  2.0787
 3281SOL     OW11519   8.562   0.392   1.925 -0.5237  0.1515  0.6004
 3281SOL    HW111520   8.484   0.346   1.957 -1.2616  1.1300  0.2597
 3281SOL    HW211521   8.527   0.467   1.877  0.6206 -0.0137 -0.5167
 3282SOL     OW11522   7.666   2.671   6.024  0.4578 -0.5127 -0.4624
 3282SOL    HW111523   7.725   2.731   5.978 -0.4772 -0.5970 -1.8017
 3282SOL    HW211524   7.711   2.586   6.020 -0.0514 -0.7126 -2.0631
 3283SOL     OW11525   3.207   1.438   4.789  0.6650  1.0850 -0.0833
 3283SOL    HW111526   3.185   1.378   4.718  1.4087  0.7744 -0.0562
 3283SOL    HW211527   3.292   1.474   4.765  0.9151  0.9920  0.6463
 3284SOL     OW11528   8.734   7.017   2.829  0.1685 -0.3489  0.1400
 3284SOL    HW111529   8.641   7.026   2.851 -0.1460 -0.5427 -1.0576
 3284SOL    HW211530   8.745   7.068   2.749  0.6356 -2.0280 -0.8974
 3285SOL     OW11531   7.344   7.099   3.499  0.4486 -0.4948  0.3324
 3285SOL    HW111532   7.307   7.076   3.584  0.4847 -0.7866  0.2679
 3285SOL    HW211533   7.277   7.153   3.458 -0.1494 -1.4973 -0.0225
 3286SOL     OW11534   1.705   5.315   3.425  0.2176  0.1057 -0.0865
 3286SOL    HW111535   1.687   5.380   3.358  0.5606  0.8477  0.5301
 3286SOL    HW211536   1.770   5.257   3.386  1.1628  1.1144 -0.0546
 3287SOL     OW11537   5.213   6.860   8.459 -0.0140  0.0219 -0.7427
 3287SOL    HW111538   5.191   6.825   8.545  1.5553 -0.9814 -0.7395
 3287SOL    HW211539   5.201   6.955   8.469 -1.9714 -0.2833 -0.0713
 3288SOL     OW11540   6.188   1.664   6.675  0.0976  0.0497  0.4668
 3288SOL    HW111541   6.218   1.652   6.765  0.1997 -1.1233  0.2922
 3288SOL    HW211542   6.102   1.623   6.673  0.7114 -1.2267 -0.3234
 3289SOL     OW11543   7.636   5.280   7.665 -0.2325 -0.6612 -0.5995
 3289SOL    HW111544   7.662   5.372   7.678 -0.7542 -0.5695 -0.1633
 3289SOL    HW211545   7.600   5.278   7.576  0.4100 -0.5912 -0.8634
 3290SOL     OW11546   3.316   3.500   4.980 -0.3827  0.5656 -0.8312
 3290SOL    HW111547   3.317   3.508   4.885 -0.2284  0.2124 -0.8621
 3290SOL    HW211548   3.338   3.408   4.997  0.7707  0.8970 -0.4308
 3291SOL     OW11549   6.747   6.976   3.673  0.0200  0.0025 -0.1708
 3291SOL    HW111550   6.719   7.006   3.760  1.3832  0.9201 -0.0322
 3291SOL    HW211551   6.739   7.053   3.617 -0.6526 -0.5321 -0.8261
 3292SOL     OW11552   5.048   4.359   8.976 -0.0672  0.0861  0.2563
 3292SOL    HW111553   5.116   4.299   9.006 -1.5875 -1.4664  0.6624
 3292SOL    HW211554   4.974   4.342   9.035 -1.1721  0.9929 -0.8503
 3293SOL     OW11555   0.526   7.773   1.657  0.1423  0.4846 -0.5579
 3293SOL    HW111556   0.435   7.796   1.671  0.0154 -0.7446  0.6524
 3293SOL    HW211557   0.537   7.776   1.561 -1.5825 -0.9392 -0.8188
 3294SOL     OW11558   0.862   2.268   5.068 -0.0098  0.4374 -0.0354
 3294SOL    HW111559   0.786   2.292   5.120 -0.6395 -0.4316 -0.5507
 3294SOL    HW211560   0.936   2.307   5.115 -0.5540 -0.3954  1.5654
 3295SOL     OW11561   2.251   1.755   1.595 -0.6776  0.2151 -0.2968
 3295SOL    HW111562   2.255   1.766   1.690 -0.0120 -2.6703  0.0513
 3295SOL    HW211563   2.332   1.795   1.562  0.2367 -0.8240  0.6189
 3296SOL     OW11564   8.045   5.367   8.115 -0.1775  0.5024  0.5288
 3296SOL    HW111565   8.108   5.411   8.172 -0.4312  2.2164 -0.4851
 3296SOL    HW211566   7.991   5.315   8.174  0.5779  0.9902  1.6584
 3297SOL     OW11567   2.331   4.978   6.430 -0.7948 -0.3388 -0.0592
 3297SOL    HW111568   2.238   4.955   6.428 -0.7864 -0.4794  0.8577
 3297SOL    HW211569   2.359   4.956   6.519  0.2218 -0.7170 -0.4621
 3298SOL     OW11570   7.064   3.736   3.434  0.0623  0.0661  0.1464
 3298SOL    HW111571   7.003   3.808   3.450 -0.5788  0.0233 -1.9040
 3298SOL    HW211572   7.128   3.742   3.504 -1.5332  0.9542  1.5616
 3299SOL     OW11573   8.159   8.296   4.144 -0.5122  0.2444  0.3069
 3299SOL    HW111574   8.133   8.291   4.052 -0.5888  1.4839  0.2603
 3299SOL    HW211575   8.233   8.236   4.151 -0.2903  0.3974 -0.6349
 3300SOL     OW11576   1.684   8.494   3.517 -0.7661  0.4037 -0.2261
 3300SOL    HW111577   1.761   8.546   3.539  2.0106 -3.3111 -0.6894
 3300SOL    HW211578   1.667   8.514   3.425 -0.9984  1.9833  0.1442
 3301SOL     OW11579   2.785   4.937   0.788 -0.0537 -0.8093 -0.3581
 3301SOL    HW111580   2.777   5.024   0.749  0.1464 -0.8261 -0.4350
 3301SOL    HW211581   2.787   4.877   0.713 -0.7574 -0.9275 -0.2937
 3302SOL     OW11582   0.030   0.982   3.036  0.0201  0.1161 -0.0001
 3302SOL    HW111583   0.098   0.998   3.101 -0.8668  0.5297  0.8564
 3302SOL    HW211584  -0.025   0.915   3.076  0.6342 -1.1173 -1.2267
 3303SOL     OW11585   7.233   2.819   6.912 -0.1323 -0.7458  0.3514
 3303SOL    HW111586   7.228   2.864   6.997 -0.8025  0.1436 -0.1547
 3303SOL    HW211587   7.152   2.769   6.907 -0.3561 -0.3513 -0.0096
 3304SOL     OW11588   1.910   6.403   1.252  0.0221  0.3713 -0.2669
 3304SOL    HW111589   1.897   6.497   1.241 -1.4141  0.3470  1.0515
 3304SOL    HW211590   2.003   6.390   1.235  0.4809  2.2197  0.7111
 3305SOL     OW11591   3.544   0.145   0.896 -0.3882  0.3841  0.8909
 3305SOL    HW111592   3.626   0.141   0.846 -1.5239  0.8141 -1.0663
 3305SOL    HW211593   3.476   0.141   0.829 -1.9684  0.3217  2.4862
 3306SOL     OW11594   5.736   9.248   4.842  0.2777 -0.1952  0.1919
 3306SOL    HW111595   5.808   9.253   4.905 -1.1638 -0.4764  1.8648
 3306SOL    HW211596   5.663   9.211   4.891 -0.9996 -0.0021 -1.5270
 3307SOL     OW11597   6.848   4.469   4.131 -0.3789 -0.8195  0.3614
 3307SOL    HW111598   6.759   4.440   4.149 -0.3942 -0.8303  0.2692
 3307SOL    HW211599   6.840   4.563   4.111 -0.4744 -0.9882 -0.4155
 3308SOL     OW11600   6.377   0.001   3.174  0.2236 -0.3318 -0.5274
 3308SOL    HW111601   6.314   0.062   3.213  0.9554 -0.5189  0.9732
 3308SOL    HW211602   6.452   0.056   3.152 -0.8332  0.0798 -3.2770
 3309SOL     OW11603   6.003   4.680   4.511  0.3807  0.3879  0.3466
 3309SOL    HW111604   6.093   4.647   4.506  0.5262  0.8174  0.1089
 3309SOL    HW211605   5.991   4.700   4.604  0.1191 -0.8043  0.5805
 3310SOL     OW11606   4.352   4.083   5.938  0.8734  0.1131  0.5948
 3310SOL    HW111607   4.284   4.136   5.980  1.0177  1.3404 -0.6656
 3310SOL    HW211608   4.434   4.121   5.968  0.9919  2.2420 -2.2081
 3311SOL     OW11609   3.024   3.819   4.494 -0.0197 -0.3013  0.0647
 3311SOL    HW111610   2.943   3.769   4.488  0.0809 -0.5060  0.3838
 3311SOL    HW211611   3.031   3.841   4.587  0.8645 -1.2390  0.2268
 3312SOL     OW11612   7.456   2.891   1.285  0.5128 -0.6583  0.1533
 3312SOL    HW111613   7.533   2.843   1.314 -1.3204 -3.2765  0.9242
 3312SOL    HW211614   7.392   2.823   1.264 -0.8689  1.3748 -2.5777
 3313SOL     OW11615   3.464   1.205   0.349  0.2268  0.2507 -0.4402
 3313SOL    HW111616   3.479   1.199   0.443  3.3064 -0.0854 -0.9129
 3313SOL    HW211617   3.522   1.275   0.319 -0.1440 -0.1719 -2.2039
 3314SOL     OW11618   1.841   2.967   2.464  0.1215  0.5000 -0.5438
 3314SOL    HW111619   1.853   2.876   2.491 -0.1294  0.7975  0.6374
 3314SOL    HW211620   1.919   2.989   2.413  0.6927 -0.0551  0.0865
 3315SOL     OW11621   6.820   7.729   1.682  0.4765 -0.3035  0.3908
 3315SOL    HW111622   6.743   7.674   1.690  0.7646 -0.8248 -0.3585
 3315SOL    HW211623   6.870   7.714   1.762  0.0449 -0.3505  0.6477
 3316SOL     OW11624   0.316   6.264   5.429  0.8168 -0.7059 -0.5906
 3316SOL    HW111625   0.230   6.225   5.444  1.2362 -1.4209  0.0255
 3316SOL    HW211626   0.334   6.249   5.337 -0.0714  0.1717 -0.9098
 3317SOL     OW11627   4.895   1.669   3.241 -0.4310 -0.4657  0.2117
 3317SOL    HW111628   4.888   1.662   3.336  0.3929 -2.4670  0.1322
 3317SOL    HW211629   4.986   1.692   3.224 -0.5390 -0.2634 -0.1201
 3318SOL     OW11630   1.526   7.578   8.064 -0.8280  0.0597  0.3222
 3318SOL    HW111631   1.556   7.543   8.148 -1.8714  0.8480  1.0336
 3318SOL    HW211632   1.502   7.669   8.083  2.7107  1.5425 -1.6810
 3319SOL     OW11633   4.419   7.781   0.387 -0.4594  0.2602  0.1510
 3319SOL    HW111634   4.402   7.711   0.450 -0.5094  0.3192  0.2024
 3319SOL    HW211635   4.336   7.828   0.380 -0.2293  0.7415  0.6400
 3320SOL     OW11636   6.533   3.982   9.278 -0.1548 -0.0445 -0.3133
 3320SOL    HW111637   6.593   4.056   9.289  0.1551 -0.4076  0.4985
 3320SOL    HW211638   6.451   4.013   9.315 -0.2417  0.1684 -0.6837
 3321SOL     OW11639   2.089   2.577   1.630 -0.7929 -0.2578 -0.1930
 3321SOL    HW111640   2.171   2.551   1.673 -0.7735 -0.2977 -0.2541
 3321SOL    HW211641   2.115   2.595   1.539 -0.8802 -0.4220 -0.2508
 3322SOL     OW11642   7.154   6.950   6.123  0.1749  0.0029 -0.5379
 3322SOL    HW111643   7.119   7.024   6.073 -2.5652 -0.7016  0.2377
 3322SOL    HW211644   7.177   6.988   6.208 -0.4060  0.1375 -0.4384
 3323SOL     OW11645   0.834   2.956   6.134  0.1669  0.4320 -0.1344
 3323SOL    HW111646   0.901   2.903   6.178 -0.6140  1.1899  2.0484
 3323SOL    HW211647   0.861   3.047   6.152  0.8996  0.8246 -2.9169
 3324SOL     OW11648   0.299   7.201   3.876  0.5643 -0.2748  0.1030
 3324SOL    HW111649   0.263   7.290   3.883  2.3126  0.5447 -0.8094
 3324SOL    HW211650   0.317   7.190   3.783 -1.4970 -2.3771 -0.0678
 3325SOL     OW11651   8.601   2.823   2.586  0.6122  0.3491 -0.2506
 3325SOL    HW111652   8.531   2.763   2.614  1.8173 -1.4214 -0.9133
 3325SOL    HW211653   8.557   2.886   2.528 -0.0983 -2.1282 -2.5400
 3326SOL     OW11654   6.099   6.829   1.333  0.7059 -0.5337 -0.2855
 3326SOL    HW111655   6.155   6.803   1.259  1.4156 -2.8580  1.0221
 3326SOL    HW211656   6.159   6.868   1.396  0.3884 -0.2660 -0.1524
 3327SOL     OW11657   3.213   6.307   4.850  0.6696 -0.4088 -0.2081
 3327SOL    HW111658   3.151   6.380   4.852  2.8495  1.4855 -0.1744
 3327SOL    HW211659   3.200   6.268   4.764 -1.9885 -1.3488  0.5521
 3328SOL     OW11660   6.864   4.633   2.016  0.7474 -0.2811  0.2420
 3328SOL    HW111661   6.943   4.679   1.988 -0.1730  1.1228 -0.1141
 3328SOL    HW211662   6.809   4.629   1.938  0.5459 -1.4067  0.4405
 3329SOL     OW11663   3.558   6.804   6.523 -0.1995  0.4917  0.3909
 3329SOL    HW111664   3.578   6.711   6.521  1.5836  0.8652  0.1346
 3329SOL    HW211665   3.479   6.812   6.469 -0.9893 -1.0003  1.2931
 3330SOL     OW11666   7.902   0.720   2.346  0.4385 -0.4796  0.7140
 3330SOL    HW111667   7.990   0.758   2.349  1.2479 -2.3865  2.8001
 3330SOL    HW211668   7.848   0.778   2.400  0.5242  0.3902 -0.1234
 3331SOL     OW11669   3.466   5.104   2.329  0.4864  0.3011  0.1429
 3331SOL    HW111670   3.540   5.070   2.379 -1.1542 -2.6594  0.6683
 3331SOL    HW211671   3.428   5.027   2.286 -1.2153  2.0240 -1.5267
 3332SOL     OW11672   8.678   5.459   5.959 -0.0282  0.2106  0.0380
 3332SOL    HW111673   8.735   5.390   5.926 -1.0102  0.0369 -1.3246
 3332SOL    HW211674   8.627   5.417   6.028 -1.7300 -0.8819 -1.8315
 3333SOL     OW11675   7.457   6.143   3.826 -0.1298 -0.5091  0.0522
 3333SOL    HW111676   7.394   6.215   3.831  0.4404  0.0179 -0.3412
 3333SOL    HW211677   7.412   6.070   3.869  0.2765  0.7840  2.8218
 3334SOL     OW11678   3.365   0.749   3.433 -0.1827  0.3343 -0.3263
 3334SOL    HW111679   3.327   0.832   3.406 -1.3566  0.1967  0.8436
 3334SOL    HW211680   3.397   0.764   3.522 -0.1865 -0.4037 -0.1936
 3335SOL     OW11681   4.249   2.436   7.238 -0.2810 -0.3888  0.1618
 3335SOL    HW111682   4.272   2.390   7.319  2.3068  0.3148 -0.1506
 3335SOL    HW211683   4.261   2.529   7.258 -1.8280 -0.0412 -0.3771
 3336SOL     OW11684   4.974   0.439   3.379  0.0056  0.4165 -0.2102
 3336SOL    HW111685   4.901   0.393   3.421  0.0654  0.4220 -0.1012
 3336SOL    HW211686   5.052   0.397   3.415  0.0490  0.0082 -0.7719
 3337SOL     OW11687   8.275   4.908   4.734 -0.2133  0.2592  0.4642
 3337SOL    HW111688   8.206   4.861   4.685  1.0402 -0.8939 -0.2298
 3337SOL    HW211689   8.229   4.980   4.777 -1.5816  0.5237 -1.3677
 3338SOL     OW11690   1.935   9.168   4.290 -0.1552  0.2344  0.1808
 3338SOL    HW111691   1.866   9.234   4.280 -0.1167  0.2475  0.0212
 3338SOL    HW211692   1.931   9.144   4.383  1.1988  1.9640  0.7030
 3339SOL     OW11693   8.831   5.797   5.136 -0.2809 -0.2644 -0.0269
 3339SOL    HW111694   8.810   5.848   5.057  0.3944  0.4647  0.2593
 3339SOL    HW211695   8.919   5.764   5.120  0.5110  1.2359  1.0977
 3340SOL     OW11696   6.545   0.719   3.933  0.4181 -0.2569 -0.4790
 3340SOL    HW111697   6.598   0.792   3.902  0.6070 -0.5103 -0.7537
 3340SOL    HW211698   6.564   0.647   3.872 -1.5117  0.1468 -1.6256
 3341SOL     OW11699   5.130   4.286   4.280  0.2934  0.4732  0.4940
 3341SOL    HW111700   5.193   4.246   4.220 -0.3267 -0.5310  0.4861
 3341SOL    HW211701   5.093   4.359   4.232  0.1865 -0.0037 -0.1585
 3342SOL     OW11702   4.608   5.866   4.746 -0.4155 -0.1958  0.0518
 3342SOL    HW111703   4.688   5.864   4.694 -1.3356  0.8174 -1.4186
 3342SOL    HW211704   4.543   5.819   4.693 -1.5787  1.5531 -0.1238
 3343SOL     OW11705   5.735   1.450   6.646 -0.2187  0.3330 -0.5130
 3343SOL    HW111706   5.693   1.534   6.627 -1.6863 -0.4473 -0.7877
 3343SOL    HW211707   5.667   1.398   6.689  0.0076 -1.4566 -2.2165
 3344SOL     OW11708   5.795   5.558   2.287  0.1244  1.2742 -0.5211
 3344SOL    HW111709   5.852   5.623   2.328 -0.0941  2.2418 -1.7097
 3344SOL    HW211710   5.752   5.605   2.216 -0.0996 -0.1612 -1.3652
 3345SOL     OW11711   9.186   0.904   2.270  0.1242  0.2748 -0.7483
 3345SOL    HW111712   9.212   0.949   2.350 -0.7144  1.2258 -1.0092
 3345SOL    HW211713   9.222   0.816   2.280  1.4757  0.8801 -0.0810
 3346SOL     OW11714   0.112   2.965   8.947  0.1371 -0.4144  0.5394
 3346SOL    HW111715   0.147   2.889   8.900  0.9641  0.6371 -0.5592
 3346SOL    HW211716   0.022   2.972   8.917  0.0348 -1.0026  0.7007
 3347SOL     OW11717   5.164   7.447   4.984 -0.0991  0.5864 -0.1942
 3347SOL    HW111718   5.162   7.534   5.024 -0.6723  0.9216 -0.9342
 3347SOL    HW211719   5.208   7.392   5.048  0.2485  1.4212  0.2919
 3348SOL     OW11720   5.166   3.335   3.195  0.0756  0.1422 -0.3866
 3348SOL    HW111721   5.233   3.404   3.192  0.1572  0.1818  1.7817
 3348SOL    HW211722   5.216   3.254   3.199 -0.0251  0.0132 -1.5241
 3349SOL     OW11723   4.350   4.900   5.035  0.4215 -0.2868  0.4116
 3349SOL    HW111724   4.443   4.910   5.014  0.4560 -0.8913  0.2826
 3349SOL    HW211725   4.315   4.989   5.029  1.0681  0.0071  0.8286
 3350SOL     OW11726   0.059   5.361   7.888 -0.4575 -0.1745  0.2040
 3350SOL    HW111727   0.002   5.306   7.942 -0.6710  0.8465  1.0248
 3350SOL    HW211728   0.147   5.329   7.907 -0.5118  0.3218  1.3412
 3351SOL     OW11729   7.925   9.080   4.793 -0.6035 -0.3830  0.1952
 3351SOL    HW111730   8.002   9.084   4.736 -0.8208  0.1776 -0.0677
 3351SOL    HW211731   7.961   9.077   4.881 -0.2774 -0.0882  0.0755
 3352SOL     OW11732   0.664   3.607   2.863  0.0014  0.3470 -0.0274
 3352SOL    HW111733   0.709   3.599   2.779  0.0892 -0.3053  0.0760
 3352SOL    HW211734   0.735   3.611   2.927 -0.0667  0.7524  0.0238
 3353SOL     OW11735   3.849   2.513   6.296 -0.3027 -0.0364  1.1298
 3353SOL    HW111736   3.906   2.457   6.348  0.6481  0.1119  0.2580
 3353SOL    HW211737   3.760   2.486   6.321  0.1368 -1.9384  0.7306
 3354SOL     OW11738   6.641   6.784   6.777 -0.2223  0.5263 -0.6604
 3354SOL    HW111739   6.667   6.708   6.725 -2.3920 -1.3775  0.8970
 3354SOL    HW211740   6.551   6.802   6.750  0.6301  3.3154 -1.8231
 3355SOL     OW11741   2.468   4.614   7.318  0.0751 -0.5179 -0.0371
 3355SOL    HW111742   2.538   4.665   7.359  0.8276 -2.5664  1.3339
 3355SOL    HW211743   2.394   4.620   7.379  0.4396 -1.6857  0.5500
 3356SOL     OW11744   2.328   6.290   3.456  0.0073 -0.6142  0.0544
 3356SOL    HW111745   2.279   6.372   3.458 -0.0621 -0.6709  0.9363
 3356SOL    HW211746   2.418   6.316   3.440  0.6938  0.0064  4.4114
 3357SOL     OW11747   3.491   9.189   3.724 -0.3238  0.4219 -0.2910
 3357SOL    HW111748   3.419   9.127   3.732 -0.0680  0.3016  1.1096
 3357SOL    HW211749   3.515   9.211   3.814 -1.0643  3.3273 -0.7674
 3358SOL     OW11750   6.095   7.184   5.203 -0.0617 -0.1788  0.4039
 3358SOL    HW111751   6.103   7.237   5.283  0.1209 -1.0751  0.9949
 3358SOL    HW211752   6.107   7.094   5.234  0.2796 -0.5078 -0.6809
 3359SOL     OW11753   7.732   8.937   0.406  0.1798  0.5296  0.1371
 3359SOL    HW111754   7.804   8.918   0.467  0.0777 -0.8877 -0.1586
 3359SOL    HW211755   7.667   8.982   0.459  0.8272  0.8698  0.6577
 3360SOL     OW11756   4.188   3.341   4.493  0.5029  0.6143 -0.2110
 3360SOL    HW111757   4.167   3.279   4.563 -1.8085 -1.1589 -2.3848
 3360SOL    HW211758   4.217   3.420   4.538 -0.7942 -0.5418  2.7231
 3361SOL     OW11759   7.116   2.152   5.069 -0.0378  0.5322 -0.3669
 3361SOL    HW111760   7.180   2.091   5.030 -0.3646 -0.8365  1.1727
 3361SOL    HW211761   7.037   2.139   5.017 -0.5008 -1.3549  0.7430
 3362SOL     OW11762   8.177   8.027   2.471  0.5020  0.7101 -0.8025
 3362SOL    HW111763   8.267   8.054   2.490  0.5715 -0.2591  0.3164
 3362SOL    HW211764   8.126   8.065   2.543  0.1754  0.3614 -0.8523
 3363SOL     OW11765   6.911   1.023   5.997  0.6203 -0.1632 -0.3856
 3363SOL    HW111766   6.852   1.033   6.072  0.3114 -0.8036 -0.5444
 3363SOL    HW211767   6.884   0.941   5.956  1.2007 -0.1295 -0.8345
 3364SOL     OW11768   3.751   0.899   3.719  0.2443 -0.6796 -0.9349
 3364SOL    HW111769   3.809   0.956   3.770 -1.5921 -1.0300  1.6638
 3364SOL    HW211770   3.744   0.942   3.634  3.0080  0.2008 -0.7699
 3365SOL     OW11771   7.801   2.262   7.297  1.5182 -0.4124  0.8272
 3365SOL    HW111772   7.731   2.256   7.362  0.6187  1.5225  0.0787
 3365SOL    HW211773   7.805   2.176   7.257 -1.2756 -0.2011  0.0295
 3366SOL     OW11774   9.181   1.644   7.829  0.5187 -0.4428  0.1007
 3366SOL    HW111775   9.104   1.587   7.834  0.1186  0.1703  1.0264
 3366SOL    HW211776   9.224   1.619   7.747 -1.0110 -0.3417 -0.7534
 3367SOL     OW11777   4.849   7.937   9.007 -0.3880  0.3785 -0.5910
 3367SOL    HW111778   4.865   7.943   9.101 -3.3192  3.5761 -0.1906
 3367SOL    HW211779   4.797   8.015   8.987 -0.0602 -0.3993 -4.8210
 3368SOL     OW11780   6.383   5.439   8.628 -0.1395 -0.2408  0.2479
 3368SOL    HW111781   6.305   5.404   8.585 -0.3568  1.6364 -0.9740
 3368SOL    HW211782   6.348   5.501   8.693  0.3277  1.4222 -1.0538
 3369SOL     OW11783   5.752   0.614   6.626  0.0248 -0.4589 -0.0128
 3369SOL    HW111784   5.710   0.535   6.659  1.1042 -0.8298  0.5118
 3369SOL    HW211785   5.727   0.618   6.533 -0.9825 -0.7728  0.2403
 3370SOL     OW11786   4.026   2.622   7.239 -0.2676  0.0223 -0.4610
 3370SOL    HW111787   3.977   2.699   7.212 -3.3371 -0.6942  2.6250
 3370SOL    HW211788   4.107   2.656   7.277 -0.7609  1.6097 -0.8301
 3371SOL     OW11789   0.440   6.162   7.253 -0.4285 -0.2514 -0.8482
 3371SOL    HW111790   0.463   6.247   7.214 -0.5265  0.7185  1.1314
 3371SOL    HW211791   0.345   6.168   7.267 -0.1390  0.1077  1.0967
 3372SOL     OW11792   5.699   4.245   7.629 -0.0693  0.2921  0.2488
 3372SOL    HW111793   5.669   4.155   7.640 -0.0380  0.0795 -1.2241
 3372SOL    HW211794   5.687   4.262   7.535  1.9473  1.0713  0.1151
 3373SOL     OW11795   6.495   3.191   2.568  0.2718  0.4938 -0.0497
 3373SOL    HW111796   6.591   3.183   2.571  0.1685 -1.1434 -0.8602
 3373SOL    HW211797   6.465   3.144   2.646  0.0739 -0.0212 -0.4329
 3374SOL     OW11798   2.601   7.036   0.229  0.2059 -0.3513 -0.0934
 3374SOL    HW111799   2.548   7.048   0.150  0.4616 -2.1599 -0.5541
 3374SOL    HW211800   2.674   6.980   0.201  0.1727 -1.1975  1.4771
 3375SOL     OW11801   1.228   4.533   2.770 -0.2490 -0.0293 -0.2127
 3375SOL    HW111802   1.145   4.581   2.770  0.9155  2.0802  0.3851
 3375SOL    HW211803   1.229   4.487   2.854 -1.3456 -1.0539 -0.7512
 3376SOL     OW11804   8.790   5.317   1.798 -0.0181 -0.0839  0.0631
 3376SOL    HW111805   8.698   5.317   1.823 -0.2060 -0.1371 -0.6132
 3376SOL    HW211806   8.834   5.361   1.870 -0.2839 -1.9108  1.3885
 3377SOL     OW11807   9.026   7.916   6.184  0.3492 -0.3455  0.2120
 3377SOL    HW111808   9.030   7.833   6.231  3.1215 -0.4233 -0.0942
 3377SOL    HW211809   8.974   7.973   6.240 -1.9450 -2.3624  0.2304
 3378SOL     OW11810   7.305   6.884   2.090 -0.0184  0.1572 -0.5093
 3378SOL    HW111811   7.315   6.958   2.149  1.9727 -1.0432  0.7171
 3378SOL    HW211812   7.236   6.831   2.129 -0.9279  0.9623 -0.9943
 3379SOL     OW11813   9.137   4.522   4.317  0.0663  0.3562  0.2224
 3379SOL    HW111814   9.204   4.487   4.375 -1.8866  0.1932  2.4494
 3379SOL    HW211815   9.123   4.612   4.348 -1.5567  0.0079  0.5199
 3380SOL     OW11816   2.622   1.728   7.601 -0.1021  0.1219  0.4548
 3380SOL    HW111817   2.563   1.801   7.618 -1.9584 -1.4249  0.9489
 3380SOL    HW211818   2.703   1.750   7.648 -1.1020  1.2419  1.6809
 3381SOL     OW11819   5.966   2.040   1.421 -0.2273 -0.2367  0.5414
 3381SOL    HW111820   5.883   2.075   1.387 -0.8494 -0.4994  1.7717
 3381SOL    HW211821   5.976   1.956   1.376  0.2017  0.5470 -0.8370
 3382SOL     OW11822   4.710   8.252   0.089  0.0338 -0.2648  0.3786
 3382SOL    HW111823   4.669   8.252   0.175  0.1695 -2.9426  0.4651
 3382SOL    HW211824   4.654   8.308   0.035 -0.3968  0.9082  2.0003
 3383SOL     OW11825   5.686   7.475   3.699 -0.0482 -0.5223  0.3761
 3383SOL    HW111826   5.774   7.440   3.681 -1.3022 -2.7409 -1.6850
 3383SOL    HW211827   5.658   7.429   3.778  0.0815 -0.9068  0.2037
 3384SOL     OW11828   8.810   3.942   5.928 -0.0640  0.0219  0.0708
 3384SOL    HW111829   8.860   3.955   5.848 -0.4597 -2.9166 -0.7295
 3384SOL    HW211830   8.875   3.924   5.996  0.1984  1.2958  0.1731
 3385SOL     OW11831   4.485   0.138   6.100  0.7525  0.6148  0.2173
 3385SOL    HW111832   4.500   0.223   6.142  1.0450 -0.1348  1.6911
 3385SOL    HW211833   4.399   0.111   6.132 -0.0029  1.0270 -1.4400
 3386SOL     OW11834   2.735   5.251   2.170  0.3194 -0.6829  0.2436
 3386SOL    HW111835   2.646   5.220   2.155 -0.3672  1.9672 -1.4255
 3386SOL    HW211836   2.741   5.263   2.264 -1.6108  0.6199  0.2223
 3387SOL     OW11837   0.331   3.320   0.893 -0.4311  0.7326  0.0317
 3387SOL    HW111838   0.307   3.395   0.947 -0.1405  0.0257  1.1514
 3387SOL    HW211839   0.401   3.276   0.941  1.6499  1.5366 -2.1496
 3388SOL     OW11840   7.600   8.603   3.391  0.3557  0.1529  0.0728
 3388SOL    HW111841   7.562   8.524   3.352 -2.2662  1.1137  0.6334
 3388SOL    HW211842   7.603   8.666   3.319 -0.4718  0.5432  0.3762
 3389SOL     OW11843   0.048   6.937   6.217  0.0689  0.2996 -0.3401
 3389SOL    HW111844   0.097   6.907   6.140 -1.6075  0.8450 -1.6583
 3389SOL    HW211845   0.053   6.865   6.279  2.9312  0.5265 -0.2429
 3390SOL     OW11846   3.326   3.012   4.511 -0.1674 -0.0336  0.2385
 3390SOL    HW111847   3.355   2.980   4.426 -1.2868  0.4379 -0.3381
 3390SOL    HW211848   3.355   3.103   4.515 -0.9412  0.2370 -0.0606
 3391SOL     OW11849   2.522   7.796   7.843 -0.1161 -0.0765  0.2864
 3391SOL    HW111850   2.470   7.718   7.863  0.2005 -0.9903 -2.2139
 3391SOL    HW211851   2.613   7.767   7.856  0.0128 -0.2051 -0.8900
 3392SOL     OW11852   2.888   8.635   2.516  0.0608 -0.1981  0.5546
 3392SOL    HW111853   2.937   8.609   2.438 -0.8267  0.6802 -0.3113
 3392SOL    HW211854   2.800   8.602   2.501 -0.1656  0.1510  1.0968
 3393SOL     OW11855   3.843   0.059   2.337 -0.4248  0.1000  0.0069
 3393SOL    HW111856   3.879  -0.018   2.293 -0.1092  0.3707 -0.2070
 3393SOL    HW211857   3.805   0.111   2.266 -0.0403  0.4677  0.0678
 3394SOL     OW11858   6.544   1.762   0.506 -0.0606 -0.2855 -0.4013
 3394SOL    HW111859   6.584   1.762   0.593 -0.6010 -1.5546 -0.1434
 3394SOL    HW211860   6.618   1.754   0.446  0.4386  1.8915 -0.1474
 3395SOL     OW11861   4.515   4.102   2.232 -0.4174  0.7077 -0.0735
 3395SOL    HW111862   4.430   4.084   2.191  0.1537 -1.0528 -0.5108
 3395SOL    HW211863   4.498   4.093   2.326 -0.3956 -1.1183 -0.2290
 3396SOL     OW11864   4.547   0.819   6.229 -0.5610 -0.3193  0.3165
 3396SOL    HW111865   4.611   0.844   6.162  0.4357 -0.8067  1.0680
 3396SOL    HW211866   4.576   0.733   6.259 -2.6292 -1.3948 -0.6328
 3397SOL     OW11867   4.512   8.130   7.047 -0.5465 -0.2104  0.4091
 3397SOL    HW111868   4.481   8.140   6.957 -0.6115 -1.1045  0.3247
 3397SOL    HW211869   4.536   8.219   7.074  1.1717 -0.1761 -1.0992
 3398SOL     OW11870   5.240   6.164   1.435  0.0623 -0.3273  0.7635
 3398SOL    HW111871   5.229   6.229   1.366 -1.3483 -1.5441 -0.2046
 3398SOL    HW211872   5.256   6.215   1.515 -1.4448  1.2111  0.1036
 3399SOL     OW11873   7.727   7.867   3.220  0.5082 -0.1715 -0.1534
 3399SOL    HW111874   7.712   7.948   3.269 -0.7616  0.3894 -1.4244
 3399SOL    HW211875   7.723   7.798   3.286 -0.7771  0.5971  0.6005
 3400SOL     OW11876   0.228   5.079   2.148  0.4415 -0.5234 -0.6502
 3400SOL    HW111877   0.165   5.009   2.166 -1.1566  0.9077 -0.4425
 3400SOL    HW211878   0.231   5.084   2.053 -1.2880  0.6581 -0.6837
 3401SOL     OW11879   4.350   1.462   7.618 -0.3635  0.0130 -0.4515
 3401SOL    HW111880   4.330   1.548   7.583 -1.2876  0.6618  1.5794
 3401SOL    HW211881   4.285   1.448   7.687  1.1106 -1.3616  0.7222
 3402SOL     OW11882   4.274   6.953   2.715  0.2079 -0.8725 -0.2350
 3402SOL    HW111883   4.343   6.931   2.777 -0.7344 -1.9148  0.4617
 3402SOL    HW211884   4.214   7.008   2.764  0.8703  0.5960 -1.0383
 3403SOL     OW11885   6.240   6.094   1.111  0.1568  0.5787  0.1080
 3403SOL    HW111886   6.232   6.009   1.156  1.2848 -0.7794 -2.1675
 3403SOL    HW211887   6.150   6.127   1.108 -0.4821 -1.0818  0.0139
 3404SOL     OW11888   4.959   2.266   2.815  0.3552  0.0810  0.2819
 3404SOL    HW111889   4.986   2.180   2.782  1.1877 -0.0253  1.2293
 3404SOL    HW211890   4.911   2.246   2.895 -2.4502  0.2779 -1.2648
 3405SOL     OW11891   3.156   1.558   3.026 -0.2579 -0.1565  0.2620
 3405SOL    HW111892   3.128   1.467   3.039 -0.1068 -0.5867 -2.2548
 3405SOL    HW211893   3.251   1.555   3.032 -0.2886 -0.0085  0.9394
 3406SOL     OW11894   1.062   1.560   7.932 -0.2735 -0.2024  0.1389
 3406SOL    HW111895   1.143   1.584   7.887 -1.4161  0.0581 -1.8437
 3406SOL    HW211896   1.056   1.465   7.921 -0.5917 -0.1288 -0.3505
 3407SOL     OW11897   5.940   5.078   4.863  0.1607  0.0419  0.0612
 3407SOL    HW111898   5.953   5.095   4.770 -2.0501  0.4195 -0.2074
 3407SOL    HW211899   6.027   5.087   4.902  1.1820 -0.5331 -2.0240
 3408SOL     OW11900   3.472   6.229   4.874 -0.0909 -0.5856 -0.5361
 3408SOL    HW111901   3.383   6.255   4.897  0.7532  0.2508  1.9879
 3408SOL    HW211902   3.508   6.305   4.828  0.1444  0.1550  0.8136
 3409SOL     OW11903   3.872   5.500   3.494  0.4783  0.5177  0.4453
 3409SOL    HW111904   3.792   5.449   3.503  0.1425  1.1495  1.0001
 3409SOL    HW211905   3.843   5.591   3.492  0.8457  0.6435 -2.9439
 3410SOL     OW11906   2.206   3.012   7.357 -0.3905  0.6189 -0.9700
 3410SOL    HW111907   2.166   3.097   7.337  0.8926  1.3584 -0.4187
 3410SOL    HW211908   2.174   2.954   7.287 -0.0328  1.9346 -2.2484
 3411SOL     OW11909   0.885   5.165   6.299  0.0325  0.3644  0.0004
 3411SOL    HW111910   0.935   5.093   6.336 -1.2920 -0.7769 -0.4031
 3411SOL    HW211911   0.816   5.182   6.363 -1.5721 -0.8520 -1.3506
 3412SOL     OW11912   5.537   0.037   7.655  0.1469  0.0882  0.6655
 3412SOL    HW111913   5.489   0.104   7.607  0.5626 -0.3860 -0.4158
 3412SOL    HW211914   5.603   0.086   7.705 -2.4188  0.9172  3.4273
 3413SOL     OW11915   4.462   0.694   5.864  0.0979  0.2204  0.0706
 3413SOL    HW111916   4.554   0.698   5.889 -0.1090 -1.2384  1.0866
 3413SOL    HW211917   4.428   0.781   5.887  0.4036 -0.3791  3.0079
 3414SOL     OW11918   3.683   3.166   7.453  0.3761 -0.3013  0.7422
 3414SOL    HW111919   3.639   3.210   7.526 -0.9028 -1.0066  0.3996
 3414SOL    HW211920   3.754   3.116   7.494 -0.2531 -0.5908  1.4839
 3415SOL     OW11921   8.431   9.240   2.981 -0.9603 -0.2610  0.9179
 3415SOL    HW111922   8.338   9.262   2.981 -0.3825  2.4274  0.1548
 3415SOL    HW211923   8.476   9.325   2.984  1.4602 -1.4526  0.0559
 3416SOL     OW11924   1.792   7.484   8.200  0.0002 -0.3753 -0.2046
 3416SOL    HW111925   1.828   7.397   8.213 -0.5172 -0.5087  0.3745
 3416SOL    HW211926   1.725   7.492   8.267 -0.1267  0.3741 -0.4155
 3417SOL     OW11927   2.920   6.385   2.837 -0.3798  0.0200  0.1041
 3417SOL    HW111928   3.004   6.404   2.795  0.2562 -0.0227  1.3556
 3417SOL    HW211929   2.877   6.325   2.776  1.1185 -1.1453  0.1549
 3418SOL     OW11930   5.722   0.277   7.327 -0.3879  0.4925  0.3462
 3418SOL    HW111931   5.692   0.329   7.401  0.5630  0.4424  0.7673
 3418SOL    HW211932   5.784   0.333   7.281  1.6824 -0.7445  1.5791
 3419SOL     OW11933   7.471   4.833   7.863  0.0940  0.1803 -0.5430
 3419SOL    HW111934   7.480   4.884   7.783  0.9611  1.3195  0.2645
 3419SOL    HW211935   7.384   4.856   7.896 -0.2181 -0.2044 -1.0831
 3420SOL     OW11936   0.957   6.215   4.645  0.0203 -0.0649 -0.3175
 3420SOL    HW111937   1.002   6.144   4.690  0.2588 -0.0125 -0.4769
 3420SOL    HW211938   1.024   6.256   4.591 -0.0626  0.4133 -0.0662
 3421SOL     OW11939   4.071   4.699   7.945  0.2889  0.2508  0.4180
 3421SOL    HW111940   4.137   4.749   7.897  0.2851  0.9402  1.1152
 3421SOL    HW211941   4.075   4.734   8.034 -1.9166  1.1901  0.1840
 3422SOL     OW11942   7.700   1.007   5.511  0.0545  0.1103 -0.2844
 3422SOL    HW111943   7.687   0.944   5.440  0.7158  0.2522 -0.5335
 3422SOL    HW211944   7.790   1.037   5.501  0.7872 -1.2723  1.7270
 3423SOL     OW11945   0.589   7.859   3.299 -0.2025 -0.3925 -0.5714
 3423SOL    HW111946   0.683   7.841   3.301 -0.5859 -2.4479  0.2495
 3423SOL    HW211947   0.572   7.885   3.208  1.0988 -0.3205 -0.8045
 3424SOL     OW11948   7.989   6.032   2.450 -0.3028 -0.0462 -0.5205
 3424SOL    HW111949   8.000   5.944   2.414  0.3350  0.1885 -0.8968
 3424SOL    HW211950   7.935   6.019   2.529  0.9920 -0.9375  0.2312
 3425SOL     OW11951   8.218   2.678   5.176  0.3972 -0.2162  0.2242
 3425SOL    HW111952   8.176   2.620   5.113  1.1159 -0.1527 -0.3226
 3425SOL    HW211953   8.308   2.689   5.143  0.1809  1.4640  0.1227
 3426SOL     OW11954   0.104   2.497   6.933  0.0059 -0.0971  0.5047
 3426SOL    HW111955   0.046   2.424   6.909  1.1959 -0.3803 -1.6250
 3426SOL    HW211956   0.046   2.561   6.975 -1.8209 -0.4587 -1.4081
 3427SOL     OW11957   7.348   2.406   8.639 -0.2861  0.6068 -0.0364
 3427SOL    HW111958   7.252   2.405   8.645 -0.2727  1.0596  0.2264
 3427SOL    HW211959   7.367   2.363   8.555 -0.6038 -2.6539  1.4606
 3428SOL     OW11960   3.432   7.051   0.923 -0.1167 -0.1078 -0.5929
 3428SOL    HW111961   3.527   7.046   0.935 -0.0987  1.2313 -0.0845
 3428SOL    HW211962   3.403   6.960   0.929  1.2160 -0.6236 -1.5352
 3429SOL     OW11963   2.921   0.371   9.006 -0.2029 -0.1729  0.4105
 3429SOL    HW111964   2.927   0.331   9.093  0.3069 -0.0705  0.4241
 3429SOL    HW211965   2.981   0.321   8.952  1.1029  1.0986  0.6329
 3430SOL     OW11966   5.751   3.479   3.742 -0.2967 -0.2821  0.1906
 3430SOL    HW111967   5.794   3.562   3.721 -0.7358 -0.2348 -0.5242
 3430SOL    HW211968   5.703   3.455   3.663  1.7497 -2.4261 -0.4807
 3431SOL     OW11969   8.295   6.677   1.017 -0.3878 -0.2148 -0.5115
 3431SOL    HW111970   8.305   6.684   0.922  1.6251  0.3233 -0.2920
 3431SOL    HW211971   8.362   6.614   1.044  0.0629  0.7594  0.7102
 3432SOL     OW11972   6.259   1.101   0.288  0.4706 -0.7689  0.0919
 3432SOL    HW111973   6.297   1.168   0.344  2.2660 -0.0531 -1.8994
 3432SOL    HW211974   6.165   1.105   0.304  0.6048  1.9174  0.3341
 3433SOL     OW11975   0.545   7.933   0.453 -0.8355 -0.1141  0.1160
 3433SOL    HW111976   0.482   7.999   0.481 -0.2918 -0.5636  2.5312
 3433SOL    HW211977   0.494   7.853   0.445 -0.5804 -0.5405  2.3428
 3434SOL     OW11978   6.643   7.840   3.826  0.0531 -0.4054 -0.1181
 3434SOL    HW111979   6.559   7.884   3.812 -0.9340 -1.5889  1.8327
 3434SOL    HW211980   6.696   7.905   3.872  0.5250  0.6444 -2.0960
 3435SOL     OW11981   1.282   4.618   0.661 -0.3059  0.0114 -0.0910
 3435SOL    HW111982   1.243   4.693   0.706 -1.7882 -1.4432  1.1444
 3435SOL    HW211983   1.221   4.599   0.589  0.3000  0.2743 -0.6739
 3436SOL     OW11984   8.458   0.520   5.523 -0.0352 -0.0674  0.2357
 3436SOL    HW111985   8.466   0.513   5.428 -1.1408 -1.4025  0.2338
 3436SOL    HW211986   8.377   0.569   5.538  0.3488  0.4997  0.4939
 3437SOL     OW11987   2.566   3.912   7.375 -0.1146 -0.2560  0.1108
 3437SOL    HW111988   2.593   3.922   7.466 -1.5345 -1.5594  0.7040
 3437SOL    HW211989   2.592   3.824   7.350  1.1322  0.4248 -1.0713
 3438SOL     OW11990   2.952   1.845   8.548  0.4988 -0.0898 -0.1639
 3438SOL    HW111991   2.858   1.862   8.554  0.4310 -1.1443  2.2324
 3438SOL    HW211992   2.957   1.754   8.516  0.7272  0.1664 -0.8714
 3439SOL     OW11993   3.691   3.765   1.958  0.4712 -0.0624  0.5131
 3439SOL    HW111994   3.754   3.694   1.944  0.3869 -0.1128  0.3853
 3439SOL    HW211995   3.619   3.724   2.005  0.5998  0.0282  0.7907
 3440SOL     OW11996   4.280   7.765   3.729 -0.1406  0.4640 -0.4478
 3440SOL    HW111997   4.281   7.860   3.718  0.4747  0.3804 -1.1021
 3440SOL    HW211998   4.348   7.733   3.670 -0.5771 -0.4127 -0.4815
 3441SOL     OW11999   3.982   7.776   8.701  0.5309  0.6618  0.2646
 3441SOL    HW112000   4.037   7.854   8.699 -0.0842  1.0597 -1.4544
 3441SOL    HW212001   4.037   7.708   8.662 -0.0374  0.9554 -1.0460
 3442SOL     OW12002   7.670   3.419   4.073  0.5131 -0.1581  0.2432
 3442SOL    HW112003   7.584   3.436   4.033  0.5337 -0.9753 -0.1520
 3442SOL    HW212004   7.651   3.403   4.165  0.4149  1.2664  0.4921
 3443SOL     OW12005   5.992   0.376   5.902 -0.3448  0.1324  0.2397
 3443SOL    HW112006   6.035   0.330   5.974 -0.0009  1.5099  0.9451
 3443SOL    HW212007   6.044   0.353   5.825  1.6561  1.6665  1.0631
 3444SOL     OW12008   6.449   1.183   0.894  0.4384 -0.4000  0.0351
 3444SOL    HW112009   6.421   1.266   0.856  1.5679 -0.0771 -0.1251
 3444SOL    HW212010   6.400   1.116   0.847 -1.7501  0.2530  1.3066
 3445SOL     OW12011   6.115   5.538   6.522  0.1919 -0.2695  0.6832
 3445SOL    HW112012   6.095   5.506   6.610 -3.9543  0.4245  0.0768
 3445SOL    HW212013   6.099   5.463   6.465  0.0739  0.1083  0.2235
 3446SOL     OW12014   6.982   7.116   5.964  0.1586 -0.3010 -0.2019
 3446SOL    HW112015   6.935   7.132   5.882  2.2554  1.5256 -1.1017
 3446SOL    HW212016   6.950   7.183   6.024  0.1705 -0.3001 -0.1968
 3447SOL     OW12017   3.351   2.351   0.454 -0.2474  0.1610 -0.3641
 3447SOL    HW112018   3.285   2.293   0.416  1.3274 -0.3928 -2.3833
 3447SOL    HW212019   3.362   2.420   0.389 -0.6492  1.6588  1.1142
 3448SOL     OW12020   6.977   7.568   4.399  0.0121  0.5318  0.4682
 3448SOL    HW112021   6.913   7.498   4.409 -0.8434  1.2914  0.4070
 3448SOL    HW212022   6.925   7.648   4.398  0.8471  1.0775 -1.0117
 3449SOL     OW12023   6.625   1.984   2.744  0.4744  0.0932  0.2850
 3449SOL    HW112024   6.550   2.043   2.736 -1.6144 -2.3812  1.0551
 3449SOL    HW212025   6.666   1.986   2.657 -1.7838 -0.1918 -0.8083
 3450SOL     OW12026   8.246   4.658   1.875  0.1220 -0.3980 -0.4736
 3450SOL    HW112027   8.212   4.741   1.840  3.4791  0.3145 -2.2233
 3450SOL    HW212028   8.262   4.676   1.968  0.9727  0.9999 -0.8772
 3451SOL     OW12029   5.873   3.345   2.769 -0.7772 -0.3404  0.7117
 3451SOL    HW112030   5.959   3.379   2.743 -1.0571 -0.6146 -0.6041
 3451SOL    HW212031   5.883   3.323   2.862  0.2090  0.7848  0.8892
 3452SOL     OW12032   6.965   9.044   9.210 -1.0375 -0.2978  0.3051
 3452SOL    HW112033   7.042   9.032   9.265 -2.4374 -0.6053  2.2681
 3452SOL    HW212034   6.978   9.129   9.168 -0.5032  0.5289  2.1089
 3453SOL     OW12035   0.473   6.925   7.071 -0.4855  0.1353 -0.1560
 3453SOL    HW112036   0.479   7.002   7.127 -1.4891  1.0879 -1.3282
 3453SOL    HW212037   0.536   6.941   7.001 -1.2302  0.2650 -0.8141
 3454SOL     OW12038   5.585   4.908   9.181  0.1219  0.1185 -0.9994
 3454SOL    HW112039   5.530   4.983   9.202  0.3874  0.0962 -0.2027
 3454SOL    HW212040   5.671   4.945   9.162  0.3967 -0.0224 -0.0568
 3455SOL     OW12041   8.312   2.928   7.101  0.2603  0.6370  0.2241
 3455SOL    HW112042   8.331   3.022   7.101 -1.2394  0.9577  0.4802
 3455SOL    HW212043   8.260   2.914   7.022  2.3256 -0.3832 -0.9754
 3456SOL     OW12044   3.761   6.626   2.016 -0.3885  0.1694  0.6074
 3456SOL    HW112045   3.803   6.607   1.932  1.0662  0.1884  1.3250
 3456SOL    HW212046   3.748   6.540   2.056 -0.8282  0.1789  0.4843
 3457SOL     OW12047   1.536   0.728   4.891 -0.3249 -0.5268 -0.0637
 3457SOL    HW112048   1.492   0.813   4.892  1.2862  0.3259 -0.6850
 3457SOL    HW212049   1.545   0.707   4.798 -1.5281 -1.8314  0.0832
 3458SOL     OW12050   3.749   5.021   7.487  0.0659 -0.3302 -0.1072
 3458SOL    HW112051   3.796   4.945   7.452  0.5857  0.0991 -0.3461
 3458SOL    HW212052   3.772   5.022   7.580  2.1413  1.0328 -0.6062
 3459SOL     OW12053   6.088   4.481   1.840  0.5751 -0.1960 -0.0249
 3459SOL    HW112054   6.057   4.441   1.922 -0.7413  2.0009  0.6016
 3459SOL    HW212055   6.046   4.567   1.839  2.7558  0.8742 -1.6810
 3460SOL     OW12056   7.855   2.455   6.757 -0.2584  0.4668  0.3945
 3460SOL    HW112057   7.774   2.505   6.753 -1.0944 -0.8931 -0.0306
 3460SOL    HW212058   7.906   2.497   6.827 -1.0326  1.7398  0.2020
 3461SOL     OW12059   2.752   0.400   7.286  0.3530 -0.6319  0.0616
 3461SOL    HW112060   2.722   0.393   7.196  1.2876  0.5231 -0.3427
 3461SOL    HW212061   2.724   0.487   7.314 -0.6731 -1.3001  1.1658
 3462SOL     OW12062   9.046   0.298   4.367 -0.0404 -0.4726  0.3865
 3462SOL    HW112063   9.083   0.384   4.349  0.1411 -0.6469 -0.0825
 3462SOL    HW212064   8.995   0.310   4.447 -1.2033  0.4010 -0.4719
 3463SOL     OW12065   5.108   1.946   1.648  0.8460  0.5670  0.4098
 3463SOL    HW112066   5.203   1.952   1.658  0.6561  1.8576  1.6050
 3463SOL    HW212067   5.092   1.975   1.558  1.6170 -0.0702  0.0610
 3464SOL     OW12068   8.906   0.560   3.521 -0.8621  0.0225 -0.0427
 3464SOL    HW112069   8.885   0.564   3.427 -2.2861  0.6062  0.2950
 3464SOL    HW212070   8.907   0.467   3.541 -0.8228 -0.0971 -0.5779
 3465SOL     OW12071   2.510   1.587   9.202 -0.5611  0.0005 -0.1979
 3465SOL    HW112072   2.512   1.678   9.230  0.2568 -0.3954  1.1071
 3465SOL    HW212073   2.566   1.542   9.265 -0.8619 -1.3804 -0.8995
 3466SOL     OW12074   5.044   2.305   5.519 -0.4681 -0.2292  0.3592
 3466SOL    HW112075   5.108   2.344   5.578  0.1902  1.1904 -1.2742
 3466SOL    HW212076   4.965   2.358   5.531 -0.0348  0.6731 -0.7497
 3467SOL     OW12077   6.849   1.545   2.344 -0.0438 -0.0247  0.1013
 3467SOL    HW112078   6.817   1.479   2.405 -0.5999  0.1947  0.0476
 3467SOL    HW212079   6.849   1.501   2.259 -0.9013  0.2003 -0.0179
 3468SOL     OW12080   3.946   8.608   4.202 -0.0554  0.1806  0.6523
 3468SOL    HW112081   3.985   8.548   4.266  1.0522  1.3030  1.0387
 3468SOL    HW212082   3.854   8.581   4.198  0.2294 -0.9634  1.4911
 3469SOL     OW12083   8.353   2.165   3.377 -0.6192 -0.0174  0.2862
 3469SOL    HW112084   8.305   2.234   3.331  0.3855 -0.0257 -0.8220
 3469SOL    HW212085   8.418   2.212   3.429  1.3553 -0.1519 -1.9624
 3470SOL     OW12086   7.067   2.364   6.573 -0.0168  0.5611  0.2804
 3470SOL    HW112087   6.975   2.389   6.586 -0.1463  0.2048  0.0618
 3470SOL    HW212088   7.117   2.442   6.597 -0.2772  0.1434  2.2627
 3471SOL     OW12089   5.735   1.793   4.167  0.7747 -0.5244  0.2397
 3471SOL    HW112090   5.657   1.798   4.113  0.1141 -0.4679  1.1959
 3471SOL    HW212091   5.764   1.884   4.176 -0.1672 -0.3350  1.4963
 3472SOL     OW12092   6.842   4.817   2.787 -0.3193  0.0993  0.1797
 3472SOL    HW112093   6.847   4.765   2.707 -0.0794  0.3180  0.0507
 3472SOL    HW212094   6.917   4.876   2.782 -0.3409  0.1578  0.5356
 3473SOL     OW12095   1.358   1.263   7.865  0.1328  0.3166 -0.3365
 3473SOL    HW112096   1.426   1.211   7.822 -0.9846 -0.2316 -1.5016
 3473SOL    HW212097   1.351   1.342   7.811 -2.7293 -1.3004 -2.4888
 3474SOL     OW12098   6.541   4.603   5.336  0.4765 -0.1082  0.2384
 3474SOL    HW112099   6.554   4.510   5.319 -0.2086 -0.4210  1.3939
 3474SOL    HW212100   6.453   4.622   5.302  1.0566  0.3775 -1.0189
 3475SOL     OW12101   8.710   0.817   4.020 -0.3333 -0.2219 -0.2111
 3475SOL    HW112102   8.720   0.783   3.931 -1.4453  0.8373 -0.7486
 3475SOL    HW212103   8.776   0.885   4.027  0.4094 -0.9617  0.1205
 3476SOL     OW12104   8.955   7.610   1.568 -0.6611 -0.6072 -0.1923
 3476SOL    HW112105   8.896   7.633   1.639 -0.3699 -1.1048  0.2069
 3476SOL    HW212106   8.914   7.648   1.490 -1.0651 -0.2106  0.2092
 3477SOL     OW12107   7.368   5.874   5.027  0.4601  0.8608 -0.3873
 3477SOL    HW112108   7.410   5.820   5.094  1.5916  2.9858  0.6689
 3477SOL    HW212109   7.306   5.816   4.984  0.0819 -0.6803  2.1773
 3478SOL     OW12110   0.458   6.552   1.426  0.1915 -0.0406  0.3561
 3478SOL    HW112111   0.541   6.582   1.461  0.5689 -1.0568  0.3664
 3478SOL    HW212112   0.481   6.505   1.345 -0.2887 -0.9084  0.7058
 3479SOL     OW12113   6.192   6.904   5.315  0.4174  0.1576  0.1743
 3479SOL    HW112114   6.170   6.859   5.233  1.0329  1.0359 -0.4864
 3479SOL    HW212115   6.252   6.844   5.359  0.0938 -0.3186 -0.0187
 3480SOL     OW12116   8.296   8.137   1.607  0.3109  0.3863  0.3032
 3480SOL    HW112117   8.331   8.073   1.670  0.1774  1.0098  1.0076
 3480SOL    HW212118   8.211   8.100   1.581 -0.2468  0.7857  1.5040
 3481SOL     OW12119   5.997   4.902   4.299 -0.2356  0.0946  0.3329
 3481SOL    HW112120   6.008   4.828   4.239 -0.9711 -0.7108  1.1731
 3481SOL    HW212121   5.967   4.862   4.381  2.9107  0.9293  1.9521
 3482SOL     OW12122   1.850   0.810   2.918 -0.0514  0.5854 -0.1248
 3482SOL    HW112123   1.869   0.836   3.009 -0.4280 -1.3088  0.5076
 3482SOL    HW212124   1.762   0.844   2.902 -0.5444 -0.2608  0.7022
 3483SOL     OW12125   6.947   8.274   3.776 -0.5240  0.2631  0.2424
 3483SOL    HW112126   6.899   8.352   3.807  1.7352  1.4357  0.9581
 3483SOL    HW212127   6.915   8.259   3.688 -0.6675  2.3495 -0.0977
 3484SOL     OW12128   7.335   2.623   2.366  0.2821 -0.3793  0.2713
 3484SOL    HW112129   7.384   2.618   2.448 -0.3604  0.8169  0.7467
 3484SOL    HW212130   7.287   2.540   2.361  1.2354 -0.9436  0.5177
 3485SOL     OW12131   3.801   8.299   3.781  0.2632 -0.2550  0.4101
 3485SOL    HW112132   3.826   8.272   3.870 -0.3976  0.2901  0.7614
 3485SOL    HW212133   3.873   8.356   3.753  0.2976 -0.1354  0.7360
 3486SOL     OW12134   6.689   5.780   2.135  0.4529 -0.0620  0.1308
 3486SOL    HW112135   6.677   5.748   2.045  1.1197 -2.4010  0.8603
 3486SOL    HW212136   6.769   5.739   2.165  0.5677  1.2029  1.6162
 3487SOL     OW12137   1.807   0.965   1.978 -0.1453  0.6283 -0.0081
 3487SOL    HW112138   1.835   1.016   1.902 -1.0027  1.1454  0.0185
 3487SOL    HW212139   1.881   0.906   1.996 -0.4830 -0.4343 -2.0494
 3488SOL     OW12140   7.865   3.907   6.658  0.3878 -0.4814 -0.3770
 3488SOL    HW112141   7.842   3.849   6.585 -0.2109 -1.1488  0.3368
 3488SOL    HW212142   7.957   3.886   6.677  0.3600 -0.7450 -0.5326
 3489SOL     OW12143   3.031   3.675   3.267 -0.4643  0.1203  0.2256
 3489SOL    HW112144   3.006   3.700   3.356 -1.6517 -0.5388  0.0922
 3489SOL    HW212145   3.053   3.582   3.275 -1.1899 -0.0999 -0.2770
 3490SOL     OW12146   4.009   0.605   4.208  0.1731 -0.4417  0.2247
 3490SOL    HW112147   4.066   0.529   4.221 -1.7757 -2.0505 -0.3191
 3490SOL    HW212148   3.987   0.634   4.297  1.3730 -0.1570  0.4356
 3491SOL     OW12149   0.807   2.261   6.483 -0.2722  0.5655  0.1859
 3491SOL    HW112150   0.742   2.330   6.475 -0.1785  0.3332 -3.1151
 3491SOL    HW212151   0.755   2.181   6.499 -0.5926  0.8415  0.5387
 3492SOL     OW12152   5.256   1.213   2.942  0.2114 -0.4399  0.1697
 3492SOL    HW112153   5.239   1.121   2.960 -2.3689 -0.3799 -1.7288
 3492SOL    HW212154   5.188   1.260   2.989 -0.3852  0.2860 -1.3904
 3493SOL     OW12155   6.642   3.904   0.578 -0.4071  0.9439  0.7289
 3493SOL    HW112156   6.577   3.860   0.524 -1.2836  0.4872  2.1339
 3493SOL    HW212157   6.725   3.862   0.554 -0.2302  3.0835 -2.7198
 3494SOL     OW12158   6.056   5.652   5.463 -0.6236 -0.1504  0.4405
 3494SOL    HW112159   6.065   5.719   5.531 -0.0217 -1.1414  1.3588
 3494SOL    HW212160   6.142   5.609   5.462 -1.4260 -1.8059  0.8312
 3495SOL     OW12161   2.170   0.629   4.303  0.0103  0.1497  0.6494
 3495SOL    HW112162   2.238   0.647   4.369 -0.9516  0.4536  1.5620
 3495SOL    HW212163   2.218   0.591   4.230  1.0808 -0.2867  1.5642
 3496SOL     OW12164   3.607   6.716   1.664 -0.2578  0.7411 -0.2216
 3496SOL    HW112165   3.544   6.770   1.712 -2.4951 -0.8135 -1.3013
 3496SOL    HW212166   3.557   6.639   1.637  2.2081 -0.6883 -0.8827
 3497SOL     OW12167   5.715   1.045   4.546  0.3196  0.0283  0.3598
 3497SOL    HW112168   5.725   1.126   4.496 -1.2391  0.2659  0.4200
 3497SOL    HW212169   5.704   0.976   4.480 -2.5443  0.4495  0.3452
 3498SOL     OW12170   0.431   4.138   2.673 -0.0857  0.3069  0.6394
 3498SOL    HW112171   0.510   4.102   2.714 -0.1739 -1.4891 -0.7306
 3498SOL    HW212172   0.458   4.225   2.643  0.6510  0.7048  2.3398
 3499SOL     OW12173   8.526   8.953   4.439 -0.2800 -0.2986  0.0089
 3499SOL    HW112174   8.433   8.971   4.457 -0.1729 -0.0793  0.3374
 3499SOL    HW212175   8.570   8.973   4.521  0.1554  0.3184 -0.3656
 3500SOL     OW12176   8.878   2.906   2.160 -0.4750  0.5276 -0.1338
 3500SOL    HW112177   8.824   2.982   2.140 -2.5164 -0.5357  1.1517
 3500SOL    HW212178   8.900   2.916   2.253 -0.1089 -0.0529 -0.1514
 3501SOL     OW12179   8.123   3.198   2.307  0.5191 -0.1843 -0.2345
 3501SOL    HW112180   8.029   3.180   2.305  0.8014 -1.6634 -1.5853
 3501SOL    HW212181   8.163   3.114   2.327  1.6605 -0.0894 -1.9865
 3502SOL     OW12182   6.479   6.527   1.041 -0.5535 -0.0768 -0.4067
 3502SOL    HW112183   6.459   6.434   1.027 -0.3055 -0.1709 -0.1473
 3502SOL    HW212184   6.533   6.528   1.121  2.8367 -0.1047 -2.6038
 3503SOL     OW12185   4.267   4.673   3.445  0.0652 -0.4391  0.1914
 3503SOL    HW112186   4.355   4.710   3.453 -0.2765  0.1306  1.5643
 3503SOL    HW212187   4.281   4.582   3.420  0.9468  0.3936 -2.5108
 3504SOL     OW12188   3.822   4.934   2.969 -0.1437  0.1318 -0.0411
 3504SOL    HW112189   3.813   4.840   2.957  0.1651  0.0534  0.3325
 3504SOL    HW212190   3.890   4.960   2.907  0.0868  0.0330  0.1649
 3505SOL     OW12191   2.596   6.257   6.737  0.2641  0.3335 -0.6454
 3505SOL    HW112192   2.504   6.284   6.743  0.2205  0.3205 -1.2116
 3505SOL    HW212193   2.619   6.271   6.645  1.4076  2.1439 -0.0871
 3506SOL     OW12194   8.081   6.127   7.643 -0.3084 -0.1710 -0.0644
 3506SOL    HW112195   8.146   6.197   7.653 -0.6300  0.3354 -1.4320
 3506SOL    HW212196   8.129   6.056   7.599 -0.4123 -0.2122 -0.1097
 3507SOL     OW12197   8.328   3.658   0.735 -0.8046  0.7831  0.0943
 3507SOL    HW112198   8.323   3.716   0.660  1.7084 -1.4526 -1.8826
 3507SOL    HW212199   8.332   3.717   0.811  1.7152  3.1886 -1.8216
 3508SOL     OW12200   3.744   3.656   8.872 -0.2359  0.2328  0.7987
 3508SOL    HW112201   3.790   3.573   8.885  2.4651  1.7466  1.2871
 3508SOL    HW212202   3.790   3.697   8.799 -1.4198  1.4022  0.7043
 3509SOL     OW12203   3.971   3.800   5.693  0.2812 -0.1184 -0.2115
 3509SOL    HW112204   3.949   3.711   5.723  1.7628 -0.8591 -1.2727
 3509SOL    HW212205   3.960   3.796   5.598  1.3755  0.5410 -0.3664
 3510SOL     OW12206   0.294   5.033   3.191 -0.4123 -0.5831 -0.5933
 3510SOL    HW112207   0.246   5.103   3.236 -0.6270 -2.6998  2.7179
 3510SOL    HW212208   0.385   5.064   3.188 -0.1314 -0.8600  2.5960
 3511SOL     OW12209   6.706   1.828   6.895  0.0300  0.1391  0.1779
 3511SOL    HW112210   6.796   1.846   6.866  0.0032  1.2085  0.7236
 3511SOL    HW212211   6.690   1.738   6.869  1.4759 -0.2508  0.5871
 3512SOL     OW12212   1.389   6.370   3.922  0.3172  0.6226  0.2468
 3512SOL    HW112213   1.402   6.300   3.858 -1.2474 -0.2369  0.8524
 3512SOL    HW212214   1.336   6.434   3.876 -2.8529 -1.0829  1.3839
 3513SOL     OW12215   7.035   6.873   4.945  0.0561  0.2313 -0.1411
 3513SOL    HW112216   7.048   6.909   4.858 -0.1605 -0.7478 -0.5802
 3513SOL    HW212217   7.090   6.928   5.002 -1.8204  2.5525 -0.4732
 3514SOL     OW12218   1.062   0.777   5.159  0.6541  0.0333  0.8273
 3514SOL    HW112219   1.129   0.831   5.117  1.3008 -0.1103  1.6595
 3514SOL    HW212220   1.063   0.695   5.109  0.8265  0.1719  0.5984
 3515SOL     OW12221   0.115   5.181   1.534 -0.6950 -0.0241  0.1529
 3515SOL    HW112222   0.022   5.201   1.534 -0.5949  0.4994  2.3813
 3515SOL    HW212223   0.157   5.259   1.569  0.6090 -0.2287 -0.8879
 3516SOL     OW12224   7.553   0.061   2.074 -0.5656  0.0545 -0.0109
 3516SOL    HW112225   7.611   0.075   1.999 -1.0402  1.1525 -0.1832
 3516SOL    HW212226   7.603   0.004   2.132  0.2385  0.0686 -0.6753
 3517SOL     OW12227   1.825   0.980   4.108 -0.0164  0.1825  0.2685
 3517SOL    HW112228   1.820   0.966   4.202 -1.2051  2.1552  0.5453
 3517SOL    HW212229   1.905   0.936   4.081  1.6552  1.6361  2.6215
 3518SOL     OW12230   6.743   1.790   2.280 -0.4301 -0.2725  0.1496
 3518SOL    HW112231   6.780   1.703   2.294  0.9073  0.0634 -1.1504
 3518SOL    HW212232   6.686   1.804   2.356 -0.0734 -1.9624  0.7625
 3519SOL     OW12233   8.095   6.475   1.046  0.4166  0.0872  0.5811
 3519SOL    HW112234   8.180   6.516   1.028 -0.4268  1.9707  0.6799
 3519SOL    HW212235   8.061   6.525   1.121 -0.4574 -1.1218  1.0014
 3520SOL     OW12236   4.457   5.630   8.977 -0.5676 -0.5142 -0.3822
 3520SOL    HW112237   4.491   5.707   8.931 -0.3983  0.4217  1.2497
 3520SOL    HW212238   4.462   5.559   8.913  0.1347  0.6370 -1.6250
 3521SOL     OW12239   3.359   4.912   1.557 -0.2948  0.3365 -0.2021
 3521SOL    HW112240   3.362   5.007   1.542 -1.2984  0.2471 -1.0368
 3521SOL    HW212241   3.426   4.877   1.498  1.9805  0.7251  2.0536
 3522SOL     OW12242   6.792   4.948   7.829 -0.0011 -0.3112 -0.2131
 3522SOL    HW112243   6.769   4.923   7.918 -0.0169 -0.4347 -0.2511
 3522SOL    HW212244   6.726   4.906   7.774  0.0463 -0.2876 -0.2875
 3523SOL     OW12245   4.123   0.850   1.562 -0.2492 -0.0053 -0.2613
 3523SOL    HW112246   4.121   0.762   1.599  0.1332 -0.1666 -0.6256
 3523SOL    HW212247   4.189   0.896   1.615 -0.9003  0.2479  0.3399
 3524SOL     OW12248   0.242   9.191   6.175 -0.2794 -0.0014 -0.1228
 3524SOL    HW112249   0.240   9.097   6.157  1.1388 -0.1220  0.2876
 3524SOL    HW212250   0.301   9.199   6.250 -1.3360  1.1039  0.6092
 3525SOL     OW12251   0.224   2.185   0.300  0.5037 -0.1468  0.5657
 3525SOL    HW112252   0.216   2.097   0.336  1.0518  0.0772  1.2567
 3525SOL    HW212253   0.300   2.180   0.241  0.0677 -0.3262  0.0190
 3526SOL     OW12254   2.675   6.865   4.783 -0.0514  0.0502 -0.1147
 3526SOL    HW112255   2.685   6.951   4.824  0.0148 -0.3915  0.8097
 3526SOL    HW212256   2.764   6.838   4.762 -0.1766  0.8104 -1.6841
 3527SOL     OW12257   7.534   0.419   8.933  0.1852 -0.5566 -0.7123
 3527SOL    HW112258   7.629   0.428   8.932  0.1702 -0.3737 -0.2904
 3527SOL    HW212259   7.519   0.327   8.957  0.2263 -0.1040  1.1227
 3528SOL     OW12260   8.707   8.169   1.312  0.5012 -0.5820 -0.3696
 3528SOL    HW112261   8.617   8.145   1.334  0.8968 -0.4028  1.5345
 3528SOL    HW212262   8.761   8.117   1.372  1.5616  1.1107  0.1755
 3529SOL     OW12263   4.561   8.385   4.842 -0.4817  0.3095  0.1515
 3529SOL    HW112264   4.601   8.471   4.859 -1.0924  0.8752 -1.2119
 3529SOL    HW212265   4.543   8.385   4.748 -0.5315 -1.3055  0.1453
 3530SOL     OW12266   8.463   4.612   7.909 -1.2301 -0.2680 -0.0993
 3530SOL    HW112267   8.491   4.697   7.941 -1.5372  0.2659 -1.2340
 3530SOL    HW212268   8.374   4.626   7.877 -1.2402 -0.9845 -0.4039
 3531SOL     OW12269   4.492   2.771   8.832 -0.3347 -0.3563 -0.3311
 3531SOL    HW112270   4.547   2.846   8.812  0.0573 -0.3833  0.6139
 3531SOL    HW212271   4.491   2.767   8.928  0.6447 -2.2759 -0.3778
 3532SOL     OW12272   8.892   5.031   3.363  0.4356  0.2271 -0.1785
 3532SOL    HW112273   8.835   5.097   3.403 -0.0961 -0.0583 -0.4547
 3532SOL    HW212274   8.939   5.078   3.295  0.4059  0.4278 -0.0607
 3533SOL     OW12275   1.470   2.229   4.197  0.1412 -0.2065 -0.4611
 3533SOL    HW112276   1.378   2.205   4.201  0.2908 -0.6978  0.1661
 3533SOL    HW212277   1.504   2.211   4.285  0.5567  1.1345 -0.3327
 3534SOL     OW12278   2.461   4.982   5.923 -0.0070  0.1729  0.3948
 3534SOL    HW112279   2.420   4.935   5.996 -0.1385  0.0090  0.2153
 3534SOL    HW212280   2.451   4.924   5.848  1.0104 -0.1018  0.4575
 3535SOL     OW12281   6.649   0.264   3.926  0.1130  0.0835 -0.3443
 3535SOL    HW112282   6.668   0.201   3.856 -1.6265  0.0260 -0.7838
 3535SOL    HW212283   6.623   0.344   3.880 -3.6769 -0.7549  0.1618
 3536SOL     OW12284   1.990   1.732   7.927  0.2870 -0.2553 -0.0987
 3536SOL    HW112285   1.991   1.650   7.976  1.8888 -0.8494 -1.0782
 3536SOL    HW212286   2.059   1.785   7.968  1.3359 -0.5862 -1.3908
 3537SOL     OW12287   3.686   2.380   7.288 -0.3563  0.2054  0.2914
 3537SOL    HW112288   3.611   2.435   7.266 -0.2474 -0.1345 -0.9809
 3537SOL    HW212289   3.678   2.304   7.231  2.0564  1.1022 -1.3221
 3538SOL     OW12290   1.943   4.844   7.971  0.3079 -0.1355  0.4632
 3538SOL    HW112291   1.902   4.928   7.954  0.9617 -0.0467 -0.7323
 3538SOL    HW212292   2.018   4.865   8.028  1.1485  0.2466 -0.7750
 3539SOL     OW12293   7.728   3.249   4.526  0.8131 -0.1567  0.4954
 3539SOL    HW112294   7.647   3.279   4.483 -0.2283 -1.3975  1.5261
 3539SOL    HW212295   7.785   3.326   4.526 -0.0840  0.5441 -0.8924
 3540SOL     OW12296   7.224   8.066   5.858  0.3166  0.3498 -0.9320
 3540SOL    HW112297   7.312   8.028   5.850  0.8816  1.6462 -0.9604
 3540SOL    HW212298   7.233   8.155   5.824 -0.9212  0.6347 -0.5359
 3541SOL     OW12299   0.367   5.494   7.136  0.4988 -0.6568  0.1483
 3541SOL    HW112300   0.376   5.421   7.074 -2.4808 -2.1932  1.4211
 3541SOL    HW212301   0.314   5.559   7.090  3.2645  0.8414 -1.0351
 3542SOL     OW12302   5.688   4.427   7.915 -0.0160  0.1976 -0.2888
 3542SOL    HW112303   5.600   4.432   7.878 -0.5147  1.7394  1.0367
 3542SOL    HW212304   5.680   4.362   7.985 -0.2957  0.8648  0.3083
 3543SOL     OW12305   8.951   4.442   0.112  0.3608  0.1977 -0.0081
 3543SOL    HW112306   8.861   4.411   0.109 -0.9696  3.6554  1.6212
 3543SOL    HW212307   8.990   4.396   0.187 -0.2434 -0.7455 -0.2626
 3544SOL     OW12308   0.698   5.117   0.887  0.0817 -0.6304 -0.0348
 3544SOL    HW112309   0.656   5.173   0.952  0.7744 -0.7432  0.5217
 3544SOL    HW212310   0.729   5.041   0.937  0.4103 -0.8327 -0.5363
 3545SOL     OW12311   1.708   2.713   9.118 -0.2293  0.3434 -0.4027
 3545SOL    HW112312   1.648   2.656   9.071  0.0568 -0.5099  0.2613
 3545SOL    HW212313   1.666   2.729   9.203 -0.0668  0.6946 -0.3865
 3546SOL     OW12314   4.394   0.590   1.579  0.0051  0.0299  0.5013
 3546SOL    HW112315   4.307   0.573   1.616 -0.2915  1.3921  0.4591
 3546SOL    HW212316   4.382   0.668   1.524  0.9553 -0.5842 -0.6100
 3547SOL     OW12317   6.258   6.806   2.991 -0.0021 -0.2140 -1.1515
 3547SOL    HW112318   6.267   6.714   3.014  0.9324  0.4322  1.1877
 3547SOL    HW212319   6.314   6.818   2.915 -0.4561 -1.6646 -1.7177
 3548SOL     OW12320   2.866   0.454   3.274  0.0068 -0.5778  0.2786
 3548SOL    HW112321   2.959   0.468   3.259 -0.0370 -0.2428  0.3204
 3548SOL    HW212322   2.859   0.434   3.368  0.2076 -2.0706 -0.0154
 3549SOL     OW12323   3.059   7.661   7.446 -0.2764 -0.1913  0.4067
 3549SOL    HW112324   3.029   7.596   7.382 -0.0552 -0.0752  0.1812
 3549SOL    HW212325   2.983   7.718   7.459 -0.4004 -0.3618  0.4342
 3550SOL     OW12326   5.259   5.169   0.430  0.2950  0.1484  0.0334
 3550SOL    HW112327   5.217   5.084   0.420 -0.4858  0.5931 -0.5307
 3550SOL    HW212328   5.343   5.150   0.473  0.8393 -1.0891 -1.5133
 3551SOL     OW12329   2.940   1.135   8.151 -0.4679  0.0901  0.4611
 3551SOL    HW112330   2.857   1.133   8.103 -1.8328 -1.4038  2.7988
 3551SOL    HW212331   2.971   1.044   8.148  1.1930  0.6665 -0.5165
 3552SOL     OW12332   5.341   7.459   0.823 -0.2935 -0.1077  0.3273
 3552SOL    HW112333   5.297   7.517   0.761 -0.8727 -0.9088 -0.0285
 3552SOL    HW212334   5.353   7.377   0.774  0.6977 -0.2206  0.7522
 3553SOL     OW12335   1.117   7.319   2.132  0.5293 -0.1765  0.2521
 3553SOL    HW112336   1.192   7.268   2.163  0.4306 -1.3703 -1.3473
 3553SOL    HW212337   1.124   7.403   2.176  2.5285 -0.4626  0.5206
 3554SOL     OW12338   2.496   0.671   5.554  0.7867  0.2334 -0.2624
 3554SOL    HW112339   2.469   0.750   5.506 -0.7586  0.5705  1.1153
 3554SOL    HW212340   2.414   0.625   5.572  1.3771 -0.1503  1.5604
 3555SOL     OW12341   3.142   2.080   5.398  0.2760 -1.0299  0.5612
 3555SOL    HW112342   3.149   1.992   5.436  1.6971 -1.0498  0.2875
 3555SOL    HW212343   3.222   2.090   5.347 -0.2019  0.1707  0.0312
 3556SOL     OW12344   5.444   0.552   1.894  0.2543 -0.3655 -0.0606
 3556SOL    HW112345   5.517   0.499   1.926 -0.0748 -1.0340 -0.3921
 3556SOL    HW212346   5.385   0.489   1.852  0.3609  0.4032 -1.4039
 3557SOL     OW12347   2.436   7.998   0.910  0.2709  0.1441  0.0390
 3557SOL    HW112348   2.451   8.040   0.995 -1.1252  0.6243  0.0612
 3557SOL    HW212349   2.498   8.041   0.851  1.5087 -0.4526  0.8792
 3558SOL     OW12350   8.410   2.660   3.917 -0.2709  0.0410 -0.1064
 3558SOL    HW112351   8.465   2.616   3.852 -0.7366 -0.2281 -0.3208
 3558SOL    HW212352   8.324   2.621   3.906 -0.0019 -1.1695  1.7538
 3559SOL     OW12353   4.356   8.867   7.907  0.1726  0.2672  0.1445
 3559SOL    HW112354   4.338   8.936   7.843  1.4331 -1.1639 -1.8153
 3559SOL    HW212355   4.451   8.864   7.913  0.0962 -0.5929  1.0008
 3560SOL     OW12356   2.943   2.408   2.213 -0.1996  0.4184 -0.1371
 3560SOL    HW112357   3.024   2.416   2.263 -0.6307  1.4960  0.4047
 3560SOL    HW212358   2.875   2.441   2.271 -0.7021  1.7536 -1.4496
 3561SOL     OW12359   1.265   0.554   1.035  0.1126  0.0692 -0.2374
 3561SOL    HW112360   1.343   0.500   1.018  0.0854 -0.0363 -0.0297
 3561SOL    HW212361   1.287   0.603   1.115 -0.6160 -1.0799  0.6911
 3562SOL     OW12362   5.484   5.024   4.295 -0.0813  0.0521 -0.1139
 3562SOL    HW112363   5.483   5.105   4.244  0.5888  0.8763  1.1630
 3562SOL    HW212364   5.535   4.963   4.241  0.9493  1.0279 -0.2711
 3563SOL     OW12365   7.318   6.075   5.721 -0.2659  0.2001  0.3037
 3563SOL    HW112366   7.311   6.168   5.700  1.6166  0.0947 -0.9805
 3563SOL    HW212367   7.323   6.032   5.636  0.1274 -0.9720  0.9075
 3564SOL     OW12368   3.499   4.360   2.749 -0.2643 -0.1121  0.3612
 3564SOL    HW112369   3.488   4.414   2.827 -0.4862 -1.0971  1.0118
 3564SOL    HW212370   3.564   4.408   2.696 -0.5933  0.8790  0.8431
 3565SOL     OW12371   3.127   5.947   8.598 -0.6183  0.0237 -0.3570
 3565SOL    HW112372   3.134   5.985   8.510  1.4964  0.0640 -0.2169
 3565SOL    HW212373   3.175   5.864   8.591 -1.6046 -0.6094  0.4094
 3566SOL     OW12374   3.818   2.093   5.961  0.2325 -0.2107  0.6464
 3566SOL    HW112375   3.747   2.044   6.002 -0.6571 -0.0256 -0.6476
 3566SOL    HW212376   3.897   2.060   6.003 -0.4812 -1.6732  0.8715
 3567SOL     OW12377   0.529   1.415   8.959  0.1748 -0.4737  0.5028
 3567SOL    HW112378   0.565   1.476   9.024  0.9901  0.2797 -0.6509
 3567SOL    HW212379   0.605   1.366   8.927  0.2992  1.4065 -2.2472
 3568SOL     OW12380   5.463   2.238   3.509 -0.5404 -0.3403  0.1635
 3568SOL    HW112381   5.488   2.203   3.595  1.4082  0.6436  0.0320
 3568SOL    HW212382   5.507   2.181   3.447 -0.2950  0.1664 -0.1293
 3569SOL     OW12383   3.104   2.760   2.639  0.1777  0.3977 -0.0391
 3569SOL    HW112384   3.166   2.828   2.661  2.0508 -1.0187 -0.7985
 3569SOL    HW212385   3.026   2.779   2.692  1.0879  2.4425  0.5713
 3570SOL     OW12386   5.938   3.931   6.769 -0.5335  0.6684 -0.2980
 3570SOL    HW112387   6.010   3.879   6.736 -1.3302  0.1259 -1.2156
 3570SOL    HW212388   5.935   3.911   6.863  0.9774  1.2953 -0.1015
 3571SOL     OW12389   2.483   2.764   1.790 -0.2965 -0.3992 -0.2847
 3571SOL    HW112390   2.505   2.851   1.757  1.0336 -0.9990 -1.0212
 3571SOL    HW212391   2.558   2.739   1.844 -0.8838 -0.8924  0.3075
 3572SOL     OW12392   4.651   7.581   5.903  0.4868 -0.1609  0.7620
 3572SOL    HW112393   4.647   7.572   5.808 -0.3529  1.1417  0.6565
 3572SOL    HW212394   4.645   7.491   5.936 -1.8821 -0.4620 -0.3550
 3573SOL     OW12395   0.646   0.942   1.232  0.2536  0.0437 -0.2520
 3573SOL    HW112396   0.714   0.951   1.299  0.2988 -0.0594 -0.2836
 3573SOL    HW212397   0.586   1.015   1.249  1.2726  1.1416 -1.2845
 3574SOL     OW12398   1.908   7.562   4.926 -0.2735  0.1461 -0.2263
 3574SOL    HW112399   1.951   7.530   4.847 -0.5688  0.1002 -0.3679
 3574SOL    HW212400   1.842   7.496   4.946  0.3474 -0.2651  0.5273
 3575SOL     OW12401   4.482   1.335   3.653  0.2873  0.1270 -0.6292
 3575SOL    HW112402   4.470   1.423   3.618  4.8471  0.9983 -0.2824
 3575SOL    HW212403   4.458   1.277   3.580 -0.4319  1.6673 -1.6585
 3576SOL     OW12404   5.301   5.494   8.349 -1.1079 -0.4752  0.6586
 3576SOL    HW112405   5.300   5.590   8.352  0.8217 -0.3920 -0.4852
 3576SOL    HW212406   5.240   5.472   8.278  0.9560  0.0812 -1.3528
 3577SOL     OW12407   4.616   6.187   2.429 -0.0748 -0.1338 -0.0852
 3577SOL    HW112408   4.528   6.162   2.402  0.2867  1.3040 -2.7370
 3577SOL    HW212409   4.669   6.176   2.351  1.5029  1.9281  0.6527
 3578SOL     OW12410   5.881   2.098   3.330 -0.4864  0.5229 -0.4752
 3578SOL    HW112411   5.925   2.044   3.264  0.1577 -0.1093  0.4506
 3578SOL    HW212412   5.901   2.055   3.413 -0.8268  1.6186  0.1868
 3579SOL     OW12413   5.062   2.729   2.397  0.1571  0.7486  0.2679
 3579SOL    HW112414   5.014   2.780   2.331  1.9129  2.0409 -0.0377
 3579SOL    HW212415   5.091   2.794   2.461  1.2996 -0.0275  0.5507
 3580SOL     OW12416   3.374   7.356   3.177  0.1792  0.1687  0.1309
 3580SOL    HW112417   3.417   7.438   3.202  0.7951 -0.5078  1.3493
 3580SOL    HW212418   3.417   7.290   3.231 -2.6917 -0.4796  1.7061
 3581SOL     OW12419   7.544   8.062   4.146  0.4260 -0.3526 -0.2222
 3581SOL    HW112420   7.531   8.079   4.239  1.2655 -0.8499 -0.0107
 3581SOL    HW212421   7.633   8.027   4.140  1.4517  2.3839 -1.5679
 3582SOL     OW12422   3.779   7.969   3.843 -0.7045 -0.7833 -0.2001
 3582SOL    HW112423   3.767   8.023   3.922  1.0661  0.3519 -0.6694
 3582SOL    HW212424   3.713   8.002   3.782  0.9196  1.5393 -0.8004
 3583SOL     OW12425   6.328   0.589   1.381 -0.0058 -0.0441  0.2062
 3583SOL    HW112426   6.348   0.563   1.471 -0.9131 -0.6448  0.2404
 3583SOL    HW212427   6.243   0.634   1.387  0.6697  1.3257 -0.1252
 3584SOL     OW12428   4.331   7.858   6.983 -0.2875 -0.0815 -0.1646
 3584SOL    HW112429   4.400   7.920   7.005 -0.5510  0.1073  0.1266
 3584SOL    HW212430   4.337   7.791   7.052 -1.3696  0.7138  0.7092
 3585SOL     OW12431   6.514   7.133   0.391  0.0581 -0.1516 -0.3862
 3585SOL    HW112432   6.480   7.103   0.307 -1.8055 -2.8100  1.2197
 3585SOL    HW212433   6.440   7.176   0.433  0.5518 -0.1422  0.4834
 3586SOL     OW12434   5.396   5.466   7.419 -0.5157  0.4999 -0.2100
 3586SOL    HW112435   5.416   5.483   7.512  1.6139  0.8127 -0.6956
 3586SOL    HW212436   5.343   5.387   7.420 -0.2406  0.3193  1.2787
 3587SOL     OW12437   3.321   6.809   6.375 -0.1650  0.4546 -0.3945
 3587SOL    HW112438   3.252   6.789   6.438  3.1363 -1.9978  2.6964
 3587SOL    HW212439   3.328   6.729   6.321  1.1514  0.1044  0.2617
 3588SOL     OW12440   7.707   3.278   6.851  0.1333  0.0428 -0.6062
 3588SOL    HW112441   7.769   3.282   6.923 -0.1770 -0.0704 -0.3301
 3588SOL    HW212442   7.743   3.336   6.784 -0.0382  0.8536 -0.0073
 3589SOL     OW12443   3.803   0.695   2.726 -0.4158  0.1027  0.0222
 3589SOL    HW112444   3.810   0.761   2.657 -0.5515 -0.8135 -0.8828
 3589SOL    HW212445   3.821   0.743   2.807  0.7127  0.9920 -0.7409
 3590SOL     OW12446   7.827   4.572   6.103  0.3256 -0.1728  0.0936
 3590SOL    HW112447   7.919   4.545   6.100 -0.3834 -2.5176 -2.9383
 3590SOL    HW212448   7.827   4.659   6.064  1.1745 -0.4442 -0.5390
 3591SOL     OW12449   6.013   5.011   6.663 -0.8215  0.5627 -0.4256
 3591SOL    HW112450   5.983   5.028   6.752 -1.5984 -1.2299 -0.3258
 3591SOL    HW212451   6.059   4.928   6.668  2.4387  2.2373 -1.0104
 3592SOL     OW12452   2.895   3.494   5.921 -0.8631  0.2019  0.1526
 3592SOL    HW112453   2.969   3.553   5.906  0.3720 -1.2306  0.4154
 3592SOL    HW212454   2.923   3.441   5.996 -1.8948 -0.7801 -0.1547
 3593SOL     OW12455   7.392   6.637   9.082 -0.1301 -0.3428 -0.3648
 3593SOL    HW112456   7.400   6.686   9.163  1.3445  0.1715 -0.8105
 3593SOL    HW212457   7.318   6.578   9.096 -0.5547  0.5052  0.9464
 3594SOL     OW12458   8.171   0.554   1.687  0.3504 -0.3463 -0.5115
 3594SOL    HW112459   8.267   0.553   1.677  0.2462  0.0122 -1.6256
 3594SOL    HW212460   8.156   0.523   1.776  1.4860 -1.0235 -0.5419
 3595SOL     OW12461   5.665   1.014   3.145  0.4414 -0.1094 -0.0901
 3595SOL    HW112462   5.595   0.950   3.158  0.2381  0.2685  0.7282
 3595SOL    HW212463   5.698   1.032   3.233  0.5692  0.8291 -0.3156
 3596SOL     OW12464   1.418   3.996   2.003  0.1023 -0.4388 -0.5124
 3596SOL    HW112465   1.484   3.929   1.986 -0.5936 -1.5569  1.0903
 3596SOL    HW212466   1.344   3.948   2.040  0.0571  1.3793  1.8427
 3597SOL     OW12467   5.694   5.722   0.430 -0.4041 -0.3249  0.0503
 3597SOL    HW112468   5.609   5.704   0.389 -1.3409 -1.5864  2.4805
 3597SOL    HW212469   5.675   5.786   0.498  1.4850  3.3466 -2.6981
 3598SOL     OW12470   1.514   2.312   8.897  0.2462 -0.2935 -0.0029
 3598SOL    HW112471   1.592   2.271   8.935  0.6764 -1.0006 -1.6239
 3598SOL    HW212472   1.464   2.240   8.859 -0.1355  0.3977 -0.8433
 3599SOL     OW12473   4.441   0.601   7.448 -0.0663  0.1442 -1.0660
 3599SOL    HW112474   4.532   0.588   7.476  0.2061  2.0484 -1.0393
 3599SOL    HW212475   4.390   0.542   7.505  1.1256 -0.8429 -1.0015
 3600SOL     OW12476   7.372   3.837   6.917  0.8062  0.3047 -0.3113
 3600SOL    HW112477   7.371   3.913   6.976  2.0325 -0.3954  0.6269
 3600SOL    HW212478   7.457   3.843   6.873  0.2303  0.3701 -1.4424
 3601SOL     OW12479   7.373   1.775   8.490 -0.0221 -0.4425 -0.0693
 3601SOL    HW112480   7.459   1.817   8.496 -0.3347  0.0901  0.7499
 3601SOL    HW212481   7.388   1.685   8.518  0.4420 -0.6048 -0.8057
 3602SOL     OW12482   0.986   3.642   3.630  0.4814  0.8724  0.0285
 3602SOL    HW112483   1.065   3.645   3.685  0.9938 -0.2914 -0.6300
 3602SOL    HW212484   0.923   3.593   3.682  0.7064  0.4471 -0.1018
 3603SOL     OW12485   2.519   2.828   0.803 -0.9310 -0.2498 -0.4228
 3603SOL    HW112486   2.487   2.844   0.892 -0.2729 -1.6284  0.0771
 3603SOL    HW212487   2.560   2.910   0.776  0.4255 -0.3777  1.2186
 3604SOL     OW12488   5.219   3.373   1.757  0.1782 -0.5212  0.1286
 3604SOL    HW112489   5.305   3.356   1.720  0.8011 -0.4429  1.5436
 3604SOL    HW212490   5.190   3.454   1.715  0.0294 -1.4842 -1.6650
 3605SOL     OW12491   7.442   8.452   3.209  0.0334 -0.3512 -0.1984
 3605SOL    HW112492   7.367   8.393   3.217 -0.1006 -0.2065 -0.3842
 3605SOL    HW212493   7.417   8.513   3.140 -0.5869  1.0659  1.2345
 3606SOL     OW12494   2.754   8.556   1.911 -0.1408 -0.3446  0.2323
 3606SOL    HW112495   2.692   8.621   1.877  0.5145  0.6806  0.9701
 3606SOL    HW212496   2.745   8.481   1.852 -1.1619  0.2778 -0.4238
 3607SOL     OW12497   7.728   5.270   8.004 -0.0185 -0.5389 -0.1695
 3607SOL    HW112498   7.747   5.179   7.980  0.5487 -0.7073  0.8790
 3607SOL    HW212499   7.645   5.265   8.052  0.0141 -0.5055 -0.1090
 3608SOL     OW12500   1.152   0.012   8.568 -0.2324 -0.1044  0.4871
 3608SOL    HW112501   1.220  -0.056   8.570  1.0424  1.1654  1.3773
 3608SOL    HW212502   1.153   0.049   8.657 -1.2441  0.7488  0.1502
 3609SOL     OW12503   0.702   7.648   6.145  0.0288  0.3098  0.1731
 3609SOL    HW112504   0.736   7.566   6.108  1.0531  0.8276 -0.0757
 3609SOL    HW212505   0.767   7.714   6.118 -0.9324  1.2426  0.1398
 3610SOL     OW12506   7.999   4.153   6.885  0.4311  0.0260  0.4643
 3610SOL    HW112507   7.934   4.115   6.945 -0.9007 -0.9697 -1.5300
 3610SOL    HW212508   7.947   4.190   6.814  1.9326  2.1136  0.4135
 3611SOL     OW12509   0.176   2.652   4.511 -0.3615 -0.0608  0.3100
 3611SOL    HW112510   0.082   2.641   4.497 -0.3728  0.8579 -0.3302
 3611SOL    HW212511   0.205   2.566   4.543 -0.8987 -1.2548 -2.2434
 3612SOL     OW12512   6.711   7.536   2.628 -0.6776 -0.3338  0.0418
 3612SOL    HW112513   6.801   7.559   2.654 -1.5458 -0.0751  3.0475
 3612SOL    HW212514   6.683   7.473   2.695 -2.5933 -0.7576 -1.1355
 3613SOL     OW12515   4.466   7.237   2.637  0.0057  0.3450  0.2882
 3613SOL    HW112516   4.446   7.190   2.557 -1.2293  0.6471  0.4136
 3613SOL    HW212517   4.509   7.318   2.608  0.7180 -0.1262  0.0068
 3614SOL     OW12518   0.649   1.912   0.127  0.7483 -0.2528  0.4449
 3614SOL    HW112519   0.667   1.971   0.200  1.4528 -0.8096  0.7245
 3614SOL    HW212520   0.688   1.956   0.051 -1.2098  1.0071  0.1318
 3615SOL     OW12521   7.195   4.263   4.024  0.3340 -0.0953 -0.3350
 3615SOL    HW112522   7.256   4.294   3.957  0.3415 -2.1245 -1.3354
 3615SOL    HW212523   7.120   4.231   3.974 -0.8052  0.7569  0.7939
 3616SOL     OW12524   6.494   3.147   8.280 -0.3553  0.1393  0.2927
 3616SOL    HW112525   6.437   3.134   8.204 -0.5101  1.2182  0.2192
 3616SOL    HW212526   6.498   3.061   8.322 -1.2068 -0.1825 -0.2788
 3617SOL     OW12527   3.333   2.856   7.830 -0.4022 -0.5734  0.2153
 3617SOL    HW112528   3.311   2.780   7.776 -2.3088 -0.0649  0.2107
 3617SOL    HW212529   3.274   2.925   7.799  0.2861  0.4884  1.1951
 3618SOL     OW12530   3.511   2.129   5.824  0.1284 -0.0428  0.3641
 3618SOL    HW112531   3.513   2.038   5.855  4.1278  0.9028  3.2607
 3618SOL    HW212532   3.439   2.169   5.873  0.0434 -1.0182  1.0681
 3619SOL     OW12533   8.149   4.203   0.168  0.1317  0.2971  0.2526
 3619SOL    HW112534   8.196   4.285   0.155  0.0273  0.3203  0.0268
 3619SOL    HW212535   8.057   4.227   0.169  0.1423  0.3256  1.2344
 3620SOL     OW12536   7.815   2.803   2.912 -0.0257  0.0131 -0.4354
 3620SOL    HW112537   7.910   2.801   2.897  0.1769 -1.3408  0.9532
 3620SOL    HW212538   7.803   2.871   2.979  0.0835 -0.5560  0.1652
 3621SOL     OW12539   2.910   6.510   4.351  0.5031  0.5416  1.0099
 3621SOL    HW112540   2.990   6.558   4.369  1.1837 -0.1648 -0.0370
 3621SOL    HW212541   2.914   6.491   4.257 -1.8808  2.2913  0.4888
 3622SOL     OW12542   9.122   2.847   4.389 -0.4636 -0.3897  0.7382
 3622SOL    HW112543   9.120   2.909   4.462  1.6352 -0.0530  0.5656
 3622SOL    HW212544   9.185   2.885   4.328 -3.5385  0.2778 -2.1672
 3623SOL     OW12545   0.835   5.169   2.662 -0.0590 -0.2543 -0.0545
 3623SOL    HW112546   0.913   5.167   2.607  1.1248  1.1160  1.5009
 3623SOL    HW212547   0.849   5.098   2.725  0.0617  0.1357  0.3646
 3624SOL     OW12548   5.765   4.769   0.208  0.0592  0.2610  0.9458
 3624SOL    HW112549   5.782   4.830   0.136 -0.0292 -0.3479  0.4066
 3624SOL    HW212550   5.756   4.825   0.285  0.2483  0.9103  0.4999
 3625SOL     OW12551   8.937   1.785   6.401  0.9572 -0.1728  0.4418
 3625SOL    HW112552   8.920   1.878   6.391  0.2106 -0.4882 -1.3121
 3625SOL    HW212553   8.851   1.748   6.425  0.7682 -0.7019 -1.0061
 3626SOL     OW12554   3.230   4.487   0.319 -0.4270 -0.0722 -0.4497
 3626SOL    HW112555   3.145   4.475   0.362  0.0600  0.9719  0.8339
 3626SOL    HW212556   3.234   4.416   0.255 -1.3201 -1.4537  0.9654
 3627SOL     OW12557   6.316   7.358   2.687 -0.8571  0.2113  0.7305
 3627SOL    HW112558   6.244   7.296   2.677  0.0239 -0.9769  1.5731
 3627SOL    HW212559   6.368   7.323   2.759  1.8587 -0.2336 -1.3716
 3628SOL     OW12560   2.369   3.876   3.055 -0.2235 -0.3543 -0.7766
 3628SOL    HW112561   2.310   3.822   3.003 -1.5089  0.1868  0.0889
 3628SOL    HW212562   2.311   3.930   3.108  1.0558  0.5097 -0.2292
 3629SOL     OW12563   7.076   6.623   0.381 -0.5414  0.1857  0.0493
 3629SOL    HW112564   7.081   6.714   0.409 -0.8665  0.1743  0.1498
 3629SOL    HW212565   7.166   6.592   0.382 -0.6270 -0.1021  2.0311
 3630SOL     OW12566   5.167   2.004   8.522 -0.1155 -0.2237  0.1193
 3630SOL    HW112567   5.216   2.066   8.468 -1.2514  0.1853 -0.4445
 3630SOL    HW212568   5.076   2.027   8.508 -0.5054 -1.4705  0.5932
 3631SOL     OW12569   2.646   8.234   5.412 -0.5897 -0.8555 -0.0012
 3631SOL    HW112570   2.734   8.256   5.443 -0.9998 -0.1042  0.6795
 3631SOL    HW212571   2.655   8.225   5.317  0.1202 -0.2586  0.0002
 3632SOL     OW12572   1.415   2.545   8.089  0.7726  0.4517  0.2806
 3632SOL    HW112573   1.338   2.599   8.071  0.9822  0.6761  0.0571
 3632SOL    HW212574   1.488   2.608   8.094  0.5553  0.5693  3.0737
 3633SOL     OW12575   3.073   3.942   0.173  0.3965 -0.3451 -0.1487
 3633SOL    HW112576   2.983   3.973   0.182  1.0091  2.0563 -1.7119
 3633SOL    HW212577   3.074   3.893   0.091  0.6175  0.0235 -0.3664
 3634SOL     OW12578   4.635   7.810   6.842 -0.0946  0.2609  0.3003
 3634SOL    HW112579   4.676   7.896   6.835  0.3928  0.1820  1.8986
 3634SOL    HW212580   4.615   7.800   6.935 -2.9308 -0.1044 -0.2988
 3635SOL     OW12581   5.310   5.981   8.545 -0.1147 -0.6447  0.5637
 3635SOL    HW112582   5.305   6.052   8.609  0.4293 -2.4307  2.6689
 3635SOL    HW212583   5.224   5.980   8.503 -0.9222 -0.2244  2.1695
 3636SOL     OW12584   8.908   7.466   0.784 -0.1075  0.2148  0.3614
 3636SOL    HW112585   8.815   7.476   0.805 -0.3853  0.3305 -0.8771
 3636SOL    HW212586   8.915   7.377   0.749 -0.3858  1.2897 -2.6198
 3637SOL     OW12587   4.923   8.747   1.412  0.8949 -0.5819 -0.2188
 3637SOL    HW112588   4.966   8.693   1.479 -0.8122 -2.7482 -0.8224
 3637SOL    HW212589   4.955   8.712   1.329 -0.6206 -1.0127 -0.6319
 3638SOL     OW12590   4.972   4.960   3.090 -0.2965 -0.0592 -0.2945
 3638SOL    HW112591   4.952   5.021   3.162  1.0972  0.6470 -0.4981
 3638SOL    HW212592   4.897   4.969   3.031 -0.6998  0.5325  0.2908
 3639SOL     OW12593   6.873   3.904   4.669 -0.0271  0.2160 -0.2002
 3639SOL    HW112594   6.880   3.928   4.576 -0.7687  0.1514 -0.2759
 3639SOL    HW212595   6.785   3.932   4.694 -0.5882 -1.6310 -0.0640
 3640SOL     OW12596   3.863   5.048   0.160  0.3938  0.0297 -0.1478
 3640SOL    HW112597   3.930   4.986   0.133  0.3792  0.0231 -0.1681
 3640SOL    HW212598   3.842   5.098   0.081 -0.3778 -0.6715 -0.3992
 3641SOL     OW12599   6.587   2.628   5.686  0.8354  0.2594 -0.4363
 3641SOL    HW112600   6.625   2.647   5.600  0.8695 -0.8705 -0.6830
 3641SOL    HW212601   6.663   2.608   5.741  0.6445 -1.5743 -0.8180
 3642SOL     OW12602   8.756   8.023   6.819  0.2761  0.3510  0.2085
 3642SOL    HW112603   8.761   8.102   6.872  1.3530 -0.0058  0.6564
 3642SOL    HW212604   8.798   7.955   6.872  0.8461 -0.1427 -0.8427
 3643SOL     OW12605   1.211   0.034   2.289 -0.1750 -0.0578 -0.1427
 3643SOL    HW112606   1.137  -0.013   2.251 -0.9527  1.6562 -0.7536
 3643SOL    HW212607   1.174   0.117   2.319  1.5692  0.9674 -0.7851
 3644SOL     OW12608   3.127   1.409   1.986 -0.4221  0.0354 -0.3297
 3644SOL    HW112609   3.214   1.393   2.022 -1.9024 -1.1749  2.8923
 3644SOL    HW212610   3.143   1.456   1.904  3.2367 -0.2607  0.1484
 3645SOL     OW12611   8.444   5.865   6.775 -0.6264  0.2893 -0.2854
 3645SOL    HW112612   8.482   5.811   6.705 -0.4944  0.2680 -0.1970
 3645SOL    HW212613   8.507   5.936   6.787 -1.9311  1.8012 -2.0472
 3646SOL     OW12614   4.417   6.585   8.880 -0.0610 -0.4957 -0.1885
 3646SOL    HW112615   4.356   6.520   8.915 -0.6789 -0.7558 -1.7351
 3646SOL    HW212616   4.451   6.547   8.800  1.5029  0.0246  0.2083
 3647SOL     OW12617   1.443   9.266   3.462 -0.3925  0.1206 -0.6384
 3647SOL    HW112618   1.507   9.323   3.419  0.2110 -0.3452 -0.3733
 3647SOL    HW212619   1.493   9.187   3.485 -0.1014  1.2465  2.9516
 3648SOL     OW12620   9.122   7.743   5.179 -0.8747  0.9439 -0.0872
 3648SOL    HW112621   9.116   7.652   5.152 -1.1562  0.9256  0.0390
 3648SOL    HW212622   9.123   7.792   5.097  0.5705  0.7578 -0.1969
 3649SOL     OW12623   5.068   8.821   4.671  0.1828  0.3236  0.1062
 3649SOL    HW112624   5.163   8.835   4.675  0.5259 -1.9279  0.2392
 3649SOL    HW212625   5.036   8.857   4.753  1.2503 -1.1619  1.2044
 3650SOL     OW12626   8.837   5.329   1.190  0.4174  0.0313 -0.7620
 3650SOL    HW112627   8.749   5.355   1.219  0.4497  1.3067 -1.7872
 3650SOL    HW212628   8.888   5.409   1.192  1.9136 -0.9310  0.9795
 3651SOL     OW12629   9.174   4.825   0.906  0.0814  0.0479  0.0058
 3651SOL    HW112630   9.218   4.810   0.822 -1.6664  0.8011 -1.0805
 3651SOL    HW212631   9.102   4.885   0.885 -1.7989 -1.5512  1.6010
 3652SOL     OW12632   4.703   8.905   0.943 -0.0371  0.1156  0.2136
 3652SOL    HW112633   4.762   8.844   0.987  0.2350  0.4652  0.3371
 3652SOL    HW212634   4.628   8.912   1.001 -1.3055 -2.2089 -1.0932
 3653SOL     OW12635   1.386   1.299   8.185 -0.1901  0.1782  0.1535
 3653SOL    HW112636   1.419   1.377   8.141 -2.3032  0.7398 -0.4496
 3653SOL    HW212637   1.397   1.229   8.121 -1.3867  0.6137 -0.5316
 3654SOL     OW12638   8.171   9.160   8.282  0.1493  0.1962 -0.8385
 3654SOL    HW112639   8.106   9.144   8.350  1.4993  2.0958  0.9782
 3654SOL    HW212640   8.245   9.103   8.305 -0.1186 -0.5649 -1.8217
 3655SOL     OW12641   3.823   5.211   7.843 -0.3161 -0.6714 -0.2089
 3655SOL    HW112642   3.839   5.188   7.934 -0.2387 -2.1495 -0.5799
 3655SOL    HW212643   3.787   5.131   7.804 -0.3379 -0.0628 -1.4757
 3656SOL     OW12644   0.352   7.998   8.443 -0.1074 -0.0615  0.2648
 3656SOL    HW112645   0.314   7.926   8.493 -2.8967  0.3443 -1.1783
 3656SOL    HW212646   0.367   7.962   8.355 -0.0199  0.6549 -0.0201
 3657SOL     OW12647   4.676   0.003   7.925 -0.6193 -0.7375  0.4504
 3657SOL    HW112648   4.584  -0.024   7.934 -0.6577  0.1338  3.0731
 3657SOL    HW212649   4.725  -0.065   7.973 -0.1856  0.4145  1.6767
 3658SOL     OW12650   1.396   1.719   2.244 -0.0111 -0.6907  0.4692
 3658SOL    HW112651   1.450   1.746   2.170 -1.1013 -1.9229 -0.7932
 3658SOL    HW212652   1.454   1.727   2.320  1.4897 -0.6108 -0.6721
 3659SOL     OW12653   4.651   1.976   5.518 -0.2264  0.3920  0.1442
 3659SOL    HW112654   4.671   1.956   5.609  0.0350 -0.7225 -0.1485
 3659SOL    HW212655   4.692   1.905   5.468 -1.8420  0.0459 -0.7184
 3660SOL     OW12656   6.316   3.610   0.977  0.1466  0.0022 -0.1992
 3660SOL    HW112657   6.224   3.599   1.000  0.3424 -0.9287  0.1626
 3660SOL    HW212658   6.314   3.642   0.887 -0.5576  1.3449  0.2722
 3661SOL     OW12659   3.150   2.005   7.292 -0.5528 -0.2496 -0.1373
 3661SOL    HW112660   3.059   2.012   7.264 -0.8697 -1.1538  0.6457
 3661SOL    HW212661   3.148   1.945   7.366  0.5121  0.6793  0.6718
 3662SOL     OW12662   5.605   5.060   3.158 -0.2508 -0.2881  0.2617
 3662SOL    HW112663   5.683   5.111   3.179  0.8186 -1.5790 -0.4279
 3662SOL    HW212664   5.539   5.089   3.220  0.9768  0.3650  1.2822
 3663SOL     OW12665   4.254   1.237   9.038 -0.1192 -0.0726  0.0305
 3663SOL    HW112666   4.225   1.328   9.032  1.0505  0.3109 -0.0525
 3663SOL    HW212667   4.322   1.239   9.105 -0.5957 -1.0264  0.5498
 3664SOL     OW12668   5.851   2.209   0.082 -0.0838  0.0310 -0.1803
 3664SOL    HW112669   5.861   2.195  -0.012  0.9391  2.3264 -0.4596
 3664SOL    HW212670   5.756   2.205   0.097 -0.3159  0.5979 -1.4827
 3665SOL     OW12671   3.447   7.699   3.804  0.4470  0.4092  0.3476
 3665SOL    HW112672   3.449   7.720   3.711  1.6292 -0.8670  0.0615
 3665SOL    HW212673   3.354   7.690   3.825  0.1646  1.0107 -0.6295
 3666SOL     OW12674   5.271   5.510   7.137  0.0195  0.1047 -0.2743
 3666SOL    HW112675   5.352   5.521   7.187  0.4524  0.2580 -1.0042
 3666SOL    HW212676   5.281   5.569   7.063  0.5304 -2.0575 -1.9774
 3667SOL     OW12677   8.479   4.339   9.055 -0.1546 -0.0387 -0.4434
 3667SOL    HW112678   8.547   4.309   8.995  1.3118  1.5667  0.3436
 3667SOL    HW212679   8.397   4.311   9.015  0.9348 -1.7506 -1.5839
 3668SOL     OW12680   2.358   0.059   0.346  0.3058 -0.0533  0.0527
 3668SOL    HW112681   2.355  -0.014   0.408 -2.0599 -0.6712 -0.7579
 3668SOL    HW212682   2.445   0.052   0.306  0.3872 -1.9850  0.5226
 3669SOL     OW12683   0.858   0.063   8.425  0.5732 -0.1219 -0.4188
 3669SOL    HW112684   0.949   0.045   8.449  0.4902 -0.2222 -0.1719
 3669SOL    HW212685   0.859   0.076   8.331  0.7312 -0.8240 -0.5136
 3670SOL     OW12686   5.214   8.790   8.940  0.0899 -1.0968 -0.0517
 3670SOL    HW112687   5.200   8.735   8.863 -1.7244 -0.1387 -0.4442
 3670SOL    HW212688   5.218   8.729   9.013  0.2691 -1.9043 -0.7283
 3671SOL     OW12689   3.631   4.517   3.400 -0.4115  0.0053 -0.3483
 3671SOL    HW112690   3.710   4.463   3.400 -0.8248 -0.6086 -1.2152
 3671SOL    HW212691   3.658   4.598   3.356 -0.5853 -0.7000 -1.7896
 3672SOL     OW12692   8.122   7.286   6.713 -0.3232 -0.3345  0.2108
 3672SOL    HW112693   8.141   7.205   6.760 -0.3103 -0.7186 -0.4540
 3672SOL    HW212694   8.097   7.258   6.626  0.1387  0.4031 -0.1664
 3673SOL     OW12695   3.275   4.579   1.685 -0.1301 -0.4406  0.4125
 3673SOL    HW112696   3.304   4.643   1.750 -0.6742 -0.0109  0.2393
 3673SOL    HW212697   3.192   4.545   1.719 -1.0270  0.6562 -0.6172
 3674SOL     OW12698   8.672   8.909   6.788 -0.2121 -0.5449  0.3766
 3674SOL    HW112699   8.719   8.837   6.746 -0.8411 -1.6274  1.4867
 3674SOL    HW212700   8.644   8.965   6.716  0.8550 -1.0534 -0.4515
 3675SOL     OW12701   3.217   4.959   7.823 -0.3271 -0.2928 -0.0223
 3675SOL    HW112702   3.304   4.977   7.785 -0.3779  1.1852  0.5449
 3675SOL    HW212703   3.158   4.961   7.748 -0.1565  0.7490 -0.1378
 3676SOL     OW12704   3.788   8.056   2.575  0.0809 -0.6687  0.0888
 3676SOL    HW112705   3.817   8.014   2.494  0.1694 -1.0291  0.3080
 3676SOL    HW212706   3.765   7.984   2.633  1.3900 -0.4445  0.9024
 3677SOL     OW12707   9.093   2.733   3.076 -0.0404 -0.0784 -0.1662
 3677SOL    HW112708   9.020   2.686   3.116  0.4593 -1.4836 -0.8620
 3677SOL    HW212709   9.053   2.802   3.024 -0.8528 -0.6155 -0.2501
 3678SOL     OW12710   6.927   4.248   3.200 -0.0991 -0.1187 -0.1598
 3678SOL    HW112711   7.007   4.203   3.227 -0.2495 -0.2002  0.1530
 3678SOL    HW212712   6.958   4.323   3.149  0.2676  0.9445  1.5682
 3679SOL     OW12713   8.200   9.132   7.886 -0.6553 -0.5037  0.0894
 3679SOL    HW112714   8.276   9.080   7.915 -0.5141 -0.3020  0.0767
 3679SOL    HW212715   8.151   9.072   7.829  0.5386  0.0054 -1.4877
 3680SOL     OW12716   8.572   7.595   4.242  0.2819  0.6068  0.1382
 3680SOL    HW112717   8.565   7.506   4.208 -1.4877  1.5162 -1.9913
 3680SOL    HW212718   8.560   7.651   4.165 -2.8887  2.7088  2.0672
 3681SOL     OW12719   4.914   8.186   6.618  0.3570  0.0472 -0.7227
 3681SOL    HW112720   4.921   8.187   6.523 -3.0723 -1.5101 -1.0832
 3681SOL    HW212721   4.861   8.263   6.639 -1.1766 -1.1011 -0.3395
 3682SOL     OW12722   1.238   8.987   5.026 -0.0438 -0.3473  0.0123
 3682SOL    HW112723   1.253   8.922   5.095 -0.7597 -0.1008  0.4032
 3682SOL    HW212724   1.322   8.995   4.982  0.3359 -0.7322  0.6654
 3683SOL     OW12725   2.536   8.416   4.067 -0.0389  0.5063 -0.4577
 3683SOL    HW112726   2.515   8.409   4.160  1.0115  0.5588 -0.2149
 3683SOL    HW212727   2.456   8.388   4.022 -0.2396 -0.4139  0.4619
 3684SOL     OW12728   9.165   1.666   9.198  0.2309 -0.3213 -0.0745
 3684SOL    HW112729   9.130   1.584   9.233 -1.3861 -0.3467 -1.6715
 3684SOL    HW212730   9.245   1.681   9.248 -1.5453 -0.7959  2.9994
 3685SOL     OW12731   8.567   1.303   0.025 -0.3423 -0.2943 -0.2140
 3685SOL    HW112732   8.550   1.391  -0.008 -1.0710 -0.2449  0.2830
 3685SOL    HW212733   8.553   1.311   0.120  3.6411  0.0834  0.4699
 3686SOL     OW12734   6.931   4.102   2.724  0.1681 -0.0365  0.1974
 3686SOL    HW112735   6.881   4.108   2.643 -0.9553 -1.5133  0.7608
 3686SOL    HW212736   7.022   4.120   2.698 -0.3019  0.3296 -1.2232
 3687SOL     OW12737   1.886   0.305   1.168 -0.0927 -0.6568  0.1742
 3687SOL    HW112738   1.930   0.272   1.247 -0.6847 -1.3202  0.2275
 3687SOL    HW212739   1.958   0.320   1.106  0.3309 -0.5667  0.6781
 3688SOL     OW12740   3.908   7.528   1.802  0.5195  0.3602  0.5327
 3688SOL    HW112741   3.973   7.483   1.748  1.1747  3.4322 -1.4148
 3688SOL    HW212742   3.828   7.528   1.748 -0.1569 -0.4683  1.5067
 3689SOL     OW12743   5.381   1.667   2.626 -0.0127 -1.0413  0.4061
 3689SOL    HW112744   5.442   1.718   2.572 -0.1418 -1.3913 -0.0677
 3689SOL    HW212745   5.334   1.733   2.678  1.4781 -0.8154  1.5323
 3690SOL     OW12746   2.547   5.493   7.585  0.1375 -0.4248 -0.4872
 3690SOL    HW112747   2.636   5.462   7.605 -0.5142 -0.8207  2.0057
 3690SOL    HW212748   2.491   5.447   7.647 -1.9237 -0.6891 -2.4903
 3691SOL     OW12749   1.585   5.541   6.996  0.1238  0.1874  0.1662
 3691SOL    HW112750   1.609   5.497   7.077  0.2438  0.4279  0.2620
 3691SOL    HW212751   1.496   5.511   6.977  0.4007 -0.5139 -0.0562
 3692SOL     OW12752   8.469   9.222   9.011  0.1643  0.1110  0.2820
 3692SOL    HW112753   8.552   9.252   8.974  0.4148  0.4558  1.1140
 3692SOL    HW212754   8.470   9.254   9.101 -2.0984  2.5695 -0.4944
 3693SOL     OW12755   3.605   4.876   8.835  0.0819  0.1078 -0.0665
 3693SOL    HW112756   3.552   4.809   8.792  0.6167 -1.0663  1.0525
 3693SOL    HW212757   3.545   4.916   8.898  0.1505 -0.3197  0.2763
 3694SOL     OW12758   1.481   4.653   6.348  0.1951 -0.1045  0.5357
 3694SOL    HW112759   1.414   4.709   6.309  0.3753 -0.2769 -0.0335
 3694SOL    HW212760   1.439   4.567   6.357 -0.0531  0.1012  1.3267
 3695SOL     OW12761   3.915   3.355   3.248  0.4933  0.3906  1.0123
 3695SOL    HW112762   3.877   3.417   3.185  0.0018  0.4520  1.3671
 3695SOL    HW212763   4.002   3.390   3.266  0.5029  0.5684  0.6380
 3696SOL     OW12764   1.272   5.546   6.420  0.5840 -0.6507 -0.1842
 3696SOL    HW112765   1.316   5.593   6.350 -0.2067  0.1378 -0.1582
 3696SOL    HW212766   1.183   5.534   6.389  0.1949 -0.1970  0.7253
 3697SOL     OW12767   4.411   0.556   4.084  0.1419  0.2534  0.4287
 3697SOL    HW112768   4.472   0.611   4.035 -0.1031  1.2283  1.1970
 3697SOL    HW212769   4.331   0.608   4.091 -0.1579 -0.2756  1.0074
 3698SOL     OW12770   5.892   6.757   4.709 -0.1688  0.0442  0.6887
 3698SOL    HW112771   5.895   6.742   4.614  1.0119  0.2946  0.6787
 3698SOL    HW212772   5.799   6.757   4.730 -0.3838 -3.1364  0.0053
 3699SOL     OW12773   2.474   6.533   1.623  0.1598 -0.6667 -0.2677
 3699SOL    HW112774   2.483   6.563   1.532 -0.1667  0.0137 -0.0787
 3699SOL    HW212775   2.421   6.453   1.616 -0.2835 -0.3504 -0.6350
 3700SOL     OW12776   3.859   3.773   8.665 -0.4160 -0.9025 -0.3732
 3700SOL    HW112777   3.870   3.700   8.603 -0.2135 -0.8571 -0.3940
 3700SOL    HW212778   3.820   3.843   8.613  1.2638 -0.3051 -0.8682
 3701SOL     OW12779   1.837   6.861   7.827 -0.1412 -0.4173 -0.0469
 3701SOL    HW112780   1.806   6.951   7.814 -2.5850 -1.3712 -1.0739
 3701SOL    HW212781   1.848   6.827   7.738  0.5781 -1.2034  0.3424
 3702SOL     OW12782   6.156   3.659   7.364  0.3428  0.0597 -0.5894
 3702SOL    HW112783   6.201   3.721   7.307  0.8331 -0.0639 -0.3332
 3702SOL    HW212784   6.199   3.575   7.348  0.0968 -0.0932 -0.4635
 3703SOL     OW12785   0.736   7.067   1.060  0.1570  0.5528 -0.1003
 3703SOL    HW112786   0.685   7.145   1.081 -0.9221  0.2703 -1.5781
 3703SOL    HW212787   0.814   7.073   1.115 -0.6890  1.8431  0.9692
 3704SOL     OW12788   5.645   1.993   7.422 -0.7748  0.5684 -0.1428
 3704SOL    HW112789   5.718   2.055   7.425 -1.3575  1.3024 -1.0633
 3704SOL    HW212790   5.672   1.923   7.482  0.5653  0.9609 -0.2566
 3705SOL     OW12791   4.585   3.648   4.611 -0.2790 -0.1063  0.6659
 3705SOL    HW112792   4.516   3.713   4.628 -1.9955 -1.0421 -2.3453
 3705SOL    HW212793   4.667   3.695   4.629 -1.5787  2.0388  1.1863
 3706SOL     OW12794   7.896   4.784   7.456  0.1048 -0.0486 -0.2181
 3706SOL    HW112795   7.904   4.879   7.458 -0.1097 -0.0287 -0.4081
 3706SOL    HW212796   7.811   4.765   7.496  0.2578 -0.1715  0.0522
 3707SOL     OW12797   5.253   8.341   4.153  0.0028  0.5138 -0.3762
 3707SOL    HW112798   5.188   8.411   4.153 -1.1727 -0.5569 -0.9271
 3707SOL    HW212799   5.203   8.262   4.173  1.3775 -0.1266  0.6167
 3708SOL     OW12800   5.894   0.974   5.179  0.1241  0.1174 -0.1483
 3708SOL    HW112801   5.927   0.888   5.203  0.4480 -0.2102 -1.7277
 3708SOL    HW212802   5.930   0.990   5.092  0.2632  1.9503  0.2285
 3709SOL     OW12803   2.983   8.517   8.308  0.0265  0.0785  0.6083
 3709SOL    HW112804   2.966   8.428   8.338 -1.6784  0.2610  0.2317
 3709SOL    HW212805   2.994   8.568   8.389  1.2134 -0.5023  0.8177
 3710SOL     OW12806   7.025   4.870   6.179 -0.5504 -0.3324  0.3724
 3710SOL    HW112807   6.940   4.827   6.171  1.5959 -4.7268 -0.4692
 3710SOL    HW212808   7.053   4.884   6.089 -0.8293  2.1480  0.6512
 3711SOL     OW12809   3.853   8.820   4.832  0.4929  0.5645  1.0818
 3711SOL    HW112810   3.894   8.758   4.892  2.1180  1.8210  1.2943
 3711SOL    HW212811   3.908   8.898   4.836 -1.0665  1.7448  0.2085
 3712SOL     OW12812   4.095   6.063   3.409 -0.3596 -0.1742  0.3292
 3712SOL    HW112813   4.163   6.056   3.476 -0.9654 -0.1864  0.9528
 3712SOL    HW212814   4.038   5.988   3.425 -0.4496 -0.2313 -0.2637
 3713SOL     OW12815   7.824   1.090   2.536 -0.5471 -0.5430  0.0500
 3713SOL    HW112816   7.912   1.109   2.569 -0.2727 -0.7466 -0.5598
 3713SOL    HW212817   7.836   1.080   2.441 -1.4259  0.6367 -0.1903
 3714SOL     OW12818   4.984   5.916   4.978  0.4933 -0.0061  0.0557
 3714SOL    HW112819   4.997   5.821   4.979 -0.6373 -0.1803 -1.4125
 3714SOL    HW212820   4.983   5.940   4.885 -1.8179  1.0826  0.3402
 3715SOL     OW12821   3.327   1.950   4.532  0.0903  0.0400  0.2459
 3715SOL    HW112822   3.306   1.916   4.619  0.8851  0.2861  0.5433
 3715SOL    HW212823   3.248   1.935   4.480 -0.0604 -0.9865  0.7503
 3716SOL     OW12824   2.408   7.666   6.588  0.0107  0.5955  0.1790
 3716SOL    HW112825   2.485   7.717   6.615 -0.4990  1.6054 -0.2078
 3716SOL    HW212826   2.342   7.733   6.568 -1.1017 -0.2721  0.8927
 3717SOL     OW12827   6.189   4.117   3.950 -0.2552 -0.0282 -0.8688
 3717SOL    HW112828   6.105   4.100   3.906  0.0906  1.7580 -2.2696
 3717SOL    HW212829   6.167   4.180   4.018 -0.0076  0.6832 -1.4417
 3718SOL     OW12830   0.044   8.529   6.368 -0.2070  0.4800 -0.3434
 3718SOL    HW112831   0.047   8.473   6.446  0.9185  0.4445 -0.4085
 3718SOL    HW212832  -0.012   8.481   6.307 -0.8438  0.3564  0.3169
 3719SOL     OW12833   1.779   4.553   0.889 -0.3953  0.2357  0.0128
 3719SOL    HW112834   1.772   4.643   0.920  0.1438 -0.3101  1.7332
 3719SOL    HW212835   1.753   4.499   0.963 -0.0894 -1.0523 -0.7935
 3720SOL     OW12836   4.300   0.852   2.015  0.2423  0.1322  0.3598
 3720SOL    HW112837   4.357   0.912   2.063  0.8795  0.0855 -0.3317
 3720SOL    HW212838   4.338   0.765   2.030 -1.2892 -0.2494  2.2410
 3721SOL     OW12839   4.394   7.596   5.322  0.0384 -0.1860  0.0344
 3721SOL    HW112840   4.466   7.627   5.267  1.2024 -0.0470  1.6045
 3721SOL    HW212841   4.316   7.637   5.284  0.7784 -0.3324 -1.6857
 3722SOL     OW12842   4.336   1.139   4.903 -0.0889  0.4938  0.8745
 3722SOL    HW112843   4.377   1.180   4.979  0.2105 -0.3139  1.1486
 3722SOL    HW212844   4.407   1.129   4.840  0.2903 -1.5274  1.6080
 3723SOL     OW12845   3.791   0.544   3.143  0.2060 -0.4573 -0.1974
 3723SOL    HW112846   3.873   0.501   3.168  1.1682  0.6290 -1.4169
 3723SOL    HW212847   3.731   0.473   3.123  1.0686 -1.2572  0.0474
 3724SOL     OW12848   1.431   2.630   7.620 -0.2807 -0.1647  0.3334
 3724SOL    HW112849   1.485   2.670   7.687  0.1812  0.4226 -0.3814
 3724SOL    HW212850   1.407   2.702   7.561 -0.9271 -0.6124  0.0307
 3725SOL     OW12851   5.206   2.776   7.761 -0.2117  0.0489  0.1036
 3725SOL    HW112852   5.116   2.750   7.740 -0.3937  0.7714 -0.0075
 3725SOL    HW212853   5.222   2.854   7.709  0.3760  0.1063  0.3657
 3726SOL     OW12854   3.180   3.442   0.180 -0.6469  0.1376 -0.0347
 3726SOL    HW112855   3.151   3.439   0.089 -1.2551  0.0436  0.1667
 3726SOL    HW212856   3.213   3.532   0.191 -1.5637  0.4740 -0.0349
 3727SOL     OW12857   6.210   2.588   3.519 -0.3442 -0.2407 -0.5851
 3727SOL    HW112858   6.213   2.612   3.612  0.5238 -0.9210 -0.4290
 3727SOL    HW212859   6.176   2.499   3.518  0.3738 -0.5207 -0.8494
 3728SOL     OW12860   6.957   1.567   3.602 -0.4191 -0.3041 -0.0781
 3728SOL    HW112861   6.929   1.585   3.512 -0.0818 -0.4356 -0.2106
 3728SOL    HW212862   6.929   1.477   3.618  0.4693 -0.6529 -0.4282
 3729SOL     OW12863   2.029   8.765   0.538  0.0152  0.0623  0.2642
 3729SOL    HW112864   1.969   8.759   0.464  0.1622 -0.7436  0.2040
 3729SOL    HW212865   2.010   8.688   0.591  0.4102  0.2564  0.6924
 3730SOL     OW12866   8.051   2.920   2.153  0.3630  0.7850  0.3212
 3730SOL    HW112867   7.999   2.853   2.109  0.1278  1.3240 -0.2473
 3730SOL    HW212868   8.135   2.878   2.171 -0.3720 -0.1896  1.5311
 3731SOL     OW12869   7.624   6.013   0.654 -0.0685  0.2939 -0.3606
 3731SOL    HW112870   7.576   5.938   0.687  1.8542 -0.6960  0.2380
 3731SOL    HW212871   7.650   5.987   0.565 -1.5249  1.2503 -1.0886
 3732SOL     OW12872   2.631   9.154   8.745  0.5722  0.4803 -0.0070
 3732SOL    HW112873   2.548   9.181   8.784  0.2649  0.1683 -0.4323
 3732SOL    HW212874   2.677   9.236   8.728 -0.8820  0.8706 -2.4466
 3733SOL     OW12875   6.122   6.519   4.515 -0.1631  0.0404 -0.2015
 3733SOL    HW112876   6.088   6.606   4.494 -1.6541 -0.6623 -0.7590
 3733SOL    HW212877   6.050   6.475   4.560  0.4926 -0.9997 -0.1488
 3734SOL     OW12878   0.302   4.888   5.902  0.3783  0.0429  0.7032
 3734SOL    HW112879   0.306   4.956   5.968  2.0972  0.3391  0.3162
 3734SOL    HW212880   0.393   4.873   5.877 -0.0471 -1.7359  0.1149
 3735SOL     OW12881   5.000   0.374   8.097 -0.6062  0.1821  0.5511
 3735SOL    HW112882   4.906   0.363   8.114 -0.5448 -0.9636  0.1601
 3735SOL    HW212883   5.007   0.374   8.001 -0.2037  0.2484  0.5813
 3736SOL     OW12884   9.095   0.704   0.914  0.3088  0.3897  0.1137
 3736SOL    HW112885   9.040   0.771   0.875 -0.5146 -0.3960 -0.0947
 3736SOL    HW212886   9.151   0.673   0.843  2.2071  2.3419  0.7022
 3737SOL     OW12887   5.408   5.304   8.589 -0.5207 -0.2079 -0.1981
 3737SOL    HW112888   5.362   5.258   8.518  0.2954 -4.3063  1.7523
 3737SOL    HW212889   5.359   5.281   8.668 -0.8381  3.4815  0.7508
 3738SOL     OW12890   1.488   1.054   7.364 -0.2405  0.3107  0.1063
 3738SOL    HW112891   1.405   1.089   7.332 -0.6492 -0.3937  0.3838
 3738SOL    HW212892   1.464   0.974   7.411  0.3116  1.4899  2.4408
 3739SOL     OW12893   2.829   3.400   6.675  1.1433 -0.4755 -0.1202
 3739SOL    HW112894   2.891   3.450   6.728 -0.2032  0.7675  0.3100
 3739SOL    HW212895   2.755   3.459   6.662 -0.1769 -2.1134 -0.2098
 3740SOL     OW12896   5.733   5.541   8.477 -0.1060 -0.1337  0.4758
 3740SOL    HW112897   5.653   5.565   8.523  0.5986 -0.7999  2.0807
 3740SOL    HW212898   5.765   5.463   8.522  1.3770  0.0394 -0.2166
 3741SOL     OW12899   4.375   7.662   8.072  0.1648  0.3735 -0.0921
 3741SOL    HW112900   4.346   7.710   8.149 -2.3173 -1.6803  0.3417
 3741SOL    HW212901   4.451   7.612   8.101  0.4701  1.1727  0.4676
 3742SOL     OW12902   2.036   3.885   1.673 -0.2892  0.2422  0.2418
 3742SOL    HW112903   1.990   3.960   1.709  0.2494  0.8856 -0.4053
 3742SOL    HW212904   2.113   3.874   1.729 -0.9862 -0.5752  1.0664
 3743SOL     OW12905   5.486   8.232   7.543 -0.2085  0.2692  0.4691
 3743SOL    HW112906   5.484   8.282   7.461 -1.6287 -1.3382 -0.5216
 3743SOL    HW212907   5.394   8.228   7.570  0.3427  1.4725  2.5996
 3744SOL     OW12908   0.768   1.940   3.966 -0.3060  0.0967 -0.7366
 3744SOL    HW112909   0.747   2.022   4.011 -0.4683  0.1769 -0.9612
 3744SOL    HW212910   0.859   1.951   3.937  0.5775 -0.8145  1.5155
 3745SOL     OW12911   3.017   4.570   3.984  0.1837  0.4209 -0.3738
 3745SOL    HW112912   3.091   4.515   3.960 -0.2274 -0.8335  1.1442
 3745SOL    HW212913   3.055   4.658   3.993  1.6905 -0.3638  1.3033
 3746SOL     OW12914   7.296   0.752   6.024  0.2463 -0.2053 -0.4758
 3746SOL    HW112915   7.362   0.813   5.990 -0.2859  2.1452  2.4674
 3746SOL    HW212916   7.237   0.737   5.950  2.1667  0.3429 -2.1646
 3747SOL     OW12917   1.195   6.818   8.118  0.5424 -0.4462  0.8219
 3747SOL    HW112918   1.189   6.835   8.024  1.3871 -0.4631  0.7663
 3747SOL    HW212919   1.142   6.887   8.158 -0.7606 -1.1124  0.2746
 3748SOL     OW12920   3.668   3.160   5.806 -0.8093 -0.3499 -0.3973
 3748SOL    HW112921   3.714   3.233   5.848 -0.1744 -1.4711  0.8890
 3748SOL    HW212922   3.670   3.181   5.713  0.4848  0.6555 -0.1636
 3749SOL     OW12923   0.606   4.880   5.475 -0.3126 -0.5109 -0.3028
 3749SOL    HW112924   0.559   4.867   5.392  2.1335  0.7966 -1.9382
 3749SOL    HW212925   0.680   4.820   5.470  1.0493  1.1299 -0.0222
 3750SOL     OW12926   6.743   7.028   5.127  0.3374 -0.3098 -0.2463
 3750SOL    HW112927   6.762   7.089   5.199 -2.2008  1.5061 -1.0423
 3750SOL    HW212928   6.806   7.052   5.059  1.3221 -0.5924  0.5455
 3751SOL     OW12929   2.908   1.450   1.085 -0.2279  0.8215  0.0388
 3751SOL    HW112930   2.968   1.445   1.159 -0.4786 -0.5733  0.1611
 3751SOL    HW212931   2.954   1.404   1.014 -0.4877  1.1174 -0.3209
 3752SOL     OW12932   5.571   7.737   4.419 -0.2495  0.2255  0.4979
 3752SOL    HW112933   5.666   7.734   4.412 -0.2645  1.1439 -0.1909
 3752SOL    HW212934   5.552   7.702   4.506  0.7556  0.5651  0.8615
 3753SOL     OW12935   0.370   0.690   5.059  0.1063  0.3698 -0.5000
 3753SOL    HW112936   0.427   0.615   5.079  0.7681  1.0699  0.2668
 3753SOL    HW212937   0.310   0.694   5.133 -1.3783 -0.7625 -1.6134
 3754SOL     OW12938   9.248   2.288   9.069 -0.0869  0.4102  0.4620
 3754SOL    HW112939   9.153   2.275   9.065 -0.1054  0.5493  0.4414
 3754SOL    HW212940   9.268   2.292   9.163  0.2420 -2.1507  0.5454
 3755SOL     OW12941   8.996   6.524   4.132  0.4009  0.3699 -0.0274
 3755SOL    HW112942   8.939   6.591   4.093 -2.7508 -2.2988 -0.2149
 3755SOL    HW212943   9.050   6.494   4.060  0.0252  0.9072 -0.5416
 3756SOL     OW12944   1.792   2.110   9.157 -0.3236  0.6465 -0.1314
 3756SOL    HW112945   1.721   2.073   9.104 -0.9302  0.1909  0.9866
 3756SOL    HW212946   1.869   2.059   9.133 -0.5055  0.7026 -0.8560
 3757SOL     OW12947   2.805   2.519   0.999 -0.3042 -0.3843  0.6627
 3757SOL    HW112948   2.876   2.517   0.934 -0.1210  1.3437  0.7785
 3757SOL    HW212949   2.844   2.562   1.075 -1.4013  0.3833  0.8045
 3758SOL     OW12950   6.001   7.982   3.410  0.1464  0.1122  0.3906
 3758SOL    HW112951   5.965   7.906   3.364 -0.5687  0.3886  0.4946
 3758SOL    HW212952   5.997   8.053   3.347 -0.0699  0.2904  0.5997
 3759SOL     OW12953   3.253   2.335   1.020 -0.1724  0.4710 -0.0758
 3759SOL    HW112954   3.331   2.319   1.074 -0.1572  1.1986  0.1282
 3759SOL    HW212955   3.242   2.254   0.970  1.4524  0.7993 -1.0206
 3760SOL     OW12956   4.779   1.024   6.832  0.3138  0.1085  0.0004
 3760SOL    HW112957   4.686   1.003   6.820  0.4861 -0.5786 -0.1856
 3760SOL    HW212958   4.782   1.119   6.838 -0.3717  0.1491 -0.2838
 3761SOL     OW12959   1.120   6.569   5.259  0.2346 -0.3043 -0.1930
 3761SOL    HW112960   1.180   6.642   5.276  1.4508 -0.8788 -1.9497
 3761SOL    HW212961   1.176   6.495   5.239 -1.0061 -1.6832  1.2368
 3762SOL     OW12962   4.475   8.269   0.951  0.0174 -0.1946 -0.3257
 3762SOL    HW112963   4.442   8.316   0.874 -0.9922  0.0931  0.2843
 3762SOL    HW212964   4.541   8.328   0.988  0.0482 -0.0513 -0.6074
 3763SOL     OW12965   1.385   1.465   1.722 -0.3470 -0.0547  0.1945
 3763SOL    HW112966   1.426   1.381   1.700 -1.3344 -1.2581  2.7335
 3763SOL    HW212967   1.450   1.510   1.776  0.2203  0.8574 -1.2512
 3764SOL     OW12968   5.358   1.539   9.275 -0.3901 -0.3485  0.0299
 3764SOL    HW112969   5.275   1.493   9.288 -0.0907 -0.4634  1.6700
 3764SOL    HW212970   5.422   1.470   9.265 -0.4255 -0.2600 -0.8504
 3765SOL     OW12971   2.112   8.157   3.824  0.0178 -0.2617  0.0892
 3765SOL    HW112972   2.046   8.225   3.839 -0.0588 -0.0987 -0.9844
 3765SOL    HW212973   2.129   8.159   3.730  0.3697 -1.4097  0.1163
 3766SOL     OW12974   3.134   6.673   5.588  0.1877 -0.6979  0.3644
 3766SOL    HW112975   3.205   6.726   5.552 -0.1321  0.2409  1.0964
 3766SOL    HW212976   3.164   6.583   5.580  1.4939 -0.3019  0.7638
 3767SOL     OW12977   2.840   7.704   0.551  0.2423 -0.0910  0.0885
 3767SOL    HW112978   2.797   7.674   0.630  1.1123 -1.0466  0.2035
 3767SOL    HW212979   2.838   7.629   0.492 -0.8590  0.7678 -0.9929
 3768SOL     OW12980   7.059   0.839   3.874 -0.5143  0.2955 -0.0144
 3768SOL    HW112981   7.140   0.888   3.886 -1.4559  1.7669  0.4743
 3768SOL    HW212982   7.038   0.806   3.961 -0.1268 -0.5896 -0.2553
 3769SOL     OW12983   5.969   9.264   8.767 -0.2849 -0.1272 -0.7097
 3769SOL    HW112984   5.923   9.264   8.851 -0.3371 -0.0634 -0.7386
 3769SOL    HW212985   5.980   9.172   8.745 -0.5401 -0.1389 -0.7821
 3770SOL     OW12986   3.915   1.500   5.431 -0.1623  0.1192  0.3348
 3770SOL    HW112987   3.924   1.595   5.429  0.4852  0.0434 -1.9482
 3770SOL    HW212988   3.845   1.482   5.369  0.0630 -0.9448  0.3897
 3771SOL     OW12989   6.703   7.224   8.034  0.2747 -0.0640 -0.0634
 3771SOL    HW112990   6.748   7.304   8.008 -0.1701 -0.1428 -1.1394
 3771SOL    HW212991   6.725   7.161   7.965 -0.2391 -0.5490  0.2058
 3772SOL     OW12992   0.764   1.215   9.093 -0.6764 -0.2109 -0.1970
 3772SOL    HW112993   0.852   1.184   9.115 -0.7112  0.1387  0.4692
 3772SOL    HW212994   0.771   1.247   9.004  0.0839  0.5913  0.1408
 3773SOL     OW12995   6.606   6.018   1.533  0.0566  0.1911  0.2002
 3773SOL    HW112996   6.590   5.994   1.624  0.0267  0.8702  0.3821
 3773SOL    HW212997   6.698   6.045   1.531 -0.6171  2.7178  0.6225
 3774SOL     OW12998   7.685   4.942   4.623  0.3328 -0.3521  0.1657
 3774SOL    HW112999   7.750   4.916   4.688 -0.4409  0.4663  1.2897
 3774SOL    HW213000   7.736   4.976   4.550  1.1790  0.0165  0.9165
 3775SOL     OW13001   2.150   8.107   3.501 -0.7520  0.1060  0.5511
 3775SOL    HW113002   2.151   8.202   3.515 -0.9637  0.0049  1.2270
 3775SOL    HW213003   2.223   8.074   3.553 -0.7589 -0.1235  0.4177
 3776SOL     OW13004   4.725   3.423   1.655 -0.0024  0.8341  0.9225
 3776SOL    HW113005   4.801   3.365   1.650 -1.2650 -0.6864 -1.6393
 3776SOL    HW213006   4.759   3.503   1.693  2.6044 -0.2741  1.0580
 3777SOL     OW13007   3.898   3.754   7.298 -0.1971 -0.1097 -0.5644
 3777SOL    HW113008   3.959   3.680   7.295  0.9942  0.9236 -3.1927
 3777SOL    HW213009   3.890   3.782   7.207 -2.2673  1.6876  0.1344
 3778SOL     OW13010   4.457   6.052   6.543 -0.4763  0.5293 -0.8261
 3778SOL    HW113011   4.468   5.986   6.611  0.5595  1.4164 -0.1230
 3778SOL    HW213012   4.424   6.129   6.588  1.6705  1.6210 -1.0338
 3779SOL     OW13013   2.407   2.669   6.211  0.0757  0.1562  0.0529
 3779SOL    HW113014   2.355   2.621   6.274 -1.0294  0.6852 -0.4533
 3779SOL    HW213015   2.487   2.617   6.202 -0.0803 -0.3142  1.3019
 3780SOL     OW13016   4.182   3.587   7.939  0.0605  0.2623 -0.0164
 3780SOL    HW113017   4.165   3.678   7.962  1.1796  0.5553 -0.3170
 3780SOL    HW213018   4.104   3.559   7.890 -0.6594  0.7885  0.8167
 3781SOL     OW13019   2.049   2.604   6.523  0.6797 -0.0146 -0.8147
 3781SOL    HW113020   2.014   2.517   6.504  2.7102 -1.3528  1.2702
 3781SOL    HW213021   2.009   2.661   6.457 -1.9136 -2.2240 -1.2353
 3782SOL     OW13022   6.838   5.673   8.899 -0.3454 -0.1785  0.1718
 3782SOL    HW113023   6.822   5.596   8.955  0.1043  1.2749  2.3641
 3782SOL    HW213024   6.750   5.702   8.873 -0.5061 -1.6361 -0.9948
 3783SOL     OW13025   2.456   9.275   8.980 -0.3048  0.7394  0.0777
 3783SOL    HW113026   2.374   9.296   8.937 -0.2056  1.8693  0.4161
 3783SOL    HW213027   2.442   9.190   9.020 -1.0623  0.5995 -0.4907
 3784SOL     OW13028   8.619   3.736   3.409 -0.1282 -0.0942 -0.4852
 3784SOL    HW113029   8.530   3.759   3.434 -0.2726 -0.5741 -0.5548
 3784SOL    HW213030   8.626   3.643   3.429  0.3230 -0.0811 -0.5819
 3785SOL     OW13031   7.795   6.696   1.007 -0.4928  0.1186 -0.0331
 3785SOL    HW113032   7.835   6.719   0.924  0.8876 -3.7547 -0.5654
 3785SOL    HW213033   7.868   6.685   1.067 -1.0445 -2.1407  0.2967
 3786SOL     OW13034   8.094   7.015   6.333  0.6876 -0.0506  0.3522
 3786SOL    HW113035   8.018   6.974   6.291  0.5846  0.5592 -0.0640
 3786SOL    HW213036   8.081   6.999   6.426 -1.0017  1.7838  0.4541
 3787SOL     OW13037   7.447   8.115   3.613  0.1901  0.0020 -0.4460
 3787SOL    HW113038   7.532   8.124   3.654  0.3177  1.6148 -1.0292
 3787SOL    HW213039   7.428   8.021   3.616  2.6848 -0.5759 -1.7212
 3788SOL     OW13040   0.318   6.793   6.672  0.0985  0.1326  0.2785
 3788SOL    HW113041   0.318   6.704   6.709 -2.3338 -0.5532 -1.2464
 3788SOL    HW213042   0.228   6.823   6.681  0.9028  2.4789  0.7695
 3789SOL     OW13043   0.856   4.805   8.250 -0.4951  0.2231  0.6720
 3789SOL    HW113044   0.893   4.883   8.290 -1.5100  1.0012  0.1343
 3789SOL    HW213045   0.763   4.808   8.274 -1.0436  0.5184 -1.3942
 3790SOL     OW13046   6.070   3.097   8.839 -0.5808 -0.6944 -0.1797
 3790SOL    HW113047   6.165   3.095   8.829 -0.4023 -0.1195  1.3506
 3790SOL    HW213048   6.044   3.184   8.807 -0.5226 -0.6331 -0.0617
 3791SOL     OW13049   1.456   6.733   1.333  0.4030  0.2478 -0.3325
 3791SOL    HW113050   1.492   6.726   1.245  1.3121  1.6848 -0.0924
 3791SOL    HW213051   1.460   6.644   1.368 -3.0669 -1.0441 -2.9014
 3792SOL     OW13052   3.008   2.634   7.501  0.2384  0.2229 -0.3883
 3792SOL    HW113053   2.934   2.638   7.561  0.2275 -0.0886 -0.3807
 3792SOL    HW213054   2.990   2.558   7.445  0.6695  0.0074 -0.2335
 3793SOL     OW13055   8.927   6.204   4.002 -0.0391  0.1016  0.1968
 3793SOL    HW113056   8.987   6.257   3.949  0.5414 -0.6674  0.0598
 3793SOL    HW213057   8.984   6.139   4.044 -0.1719  1.9747  3.4507
 3794SOL     OW13058   5.077   6.118   9.030  0.1121 -0.5299  0.1748
 3794SOL    HW113059   5.160   6.130   9.077 -0.3616 -0.5758  1.0457
 3794SOL    HW213060   5.011   6.117   9.100 -0.5781 -0.8590 -0.4831
 3795SOL     OW13061   2.519   7.126   1.257  0.2141  0.3265 -0.2857
 3795SOL    HW113062   2.549   7.216   1.242 -1.4378  1.5502  3.1424
 3795SOL    HW213063   2.433   7.122   1.215  1.0274 -0.2557 -1.9573
 3796SOL     OW13064   4.600   6.181   3.250 -0.3411  0.6975 -0.0696
 3796SOL    HW113065   4.540   6.238   3.298  0.9147  0.3368  1.9779
 3796SOL    HW213066   4.623   6.112   3.312  3.0817  1.4533 -0.3811
 3797SOL     OW13067   6.777   7.255   5.824  0.1432  0.3110 -0.0738
 3797SOL    HW113068   6.799   7.282   5.914 -0.5225 -0.3001  0.2797
 3797SOL    HW213069   6.716   7.321   5.793  0.7815  0.8122 -0.2676
 3798SOL     OW13070   1.127   8.471   1.804  0.2590 -0.5317  0.4815
 3798SOL    HW113071   1.158   8.527   1.876  0.0271 -0.2123  0.3296
 3798SOL    HW213072   1.056   8.520   1.764  0.5245 -0.6210 -0.0997
 3799SOL     OW13073   6.223   2.021   6.250  0.1380 -0.1826 -0.0324
 3799SOL    HW113074   6.178   1.953   6.300  0.6088 -0.6138 -0.2030
 3799SOL    HW213075   6.153   2.081   6.224 -0.0203  0.4766  1.8254
 3800SOL     OW13076   5.710   7.643   4.047  0.1894 -0.2823 -0.5563
 3800SOL    HW113077   5.656   7.661   4.124 -0.9249 -1.2417 -1.1224
 3800SOL    HW213078   5.684   7.709   3.983  2.5237  1.8159  0.5335
 3801SOL     OW13079   3.207   0.899   1.448  0.6572  0.1689 -0.0861
 3801SOL    HW113080   3.237   0.960   1.516  1.2001 -0.5000  0.2896
 3801SOL    HW213081   3.144   0.843   1.493  0.2240  0.4000 -0.4073
 3802SOL     OW13082   6.434   4.044   5.903 -0.7512 -0.6490 -0.1797
 3802SOL    HW113083   6.397   3.974   5.849 -0.5710 -0.4263 -0.5921
 3802SOL    HW213084   6.381   4.121   5.883 -0.0797 -0.3286 -0.7742
 3803SOL     OW13085   7.448   0.735   7.315  0.0422  0.0486 -0.1929
 3803SOL    HW113086   7.478   0.774   7.233  1.4656 -1.4180 -0.3942
 3803SOL    HW213087   7.417   0.809   7.367 -2.1802  0.8648 -2.5713
 3804SOL     OW13088   6.149   6.040   7.736 -0.0579 -0.6848 -0.0817
 3804SOL    HW113089   6.160   6.123   7.782  1.2855 -0.6756 -0.3977
 3804SOL    HW213090   6.170   5.974   7.802 -2.5407 -0.8554  0.5941
 3805SOL     OW13091   3.040   7.866   8.833  0.5192 -0.3919 -0.4185
 3805SOL    HW113092   2.999   7.921   8.900  0.8118 -0.6975  0.0107
 3805SOL    HW213093   2.980   7.791   8.825 -1.3784  1.3075 -3.0162
 3806SOL     OW13094   7.250   4.443   4.846  0.7091  0.1256 -0.4828
 3806SOL    HW113095   7.333   4.484   4.822  0.4045  1.0944  0.0893
 3806SOL    HW213096   7.183   4.502   4.812  0.2471 -1.0264 -1.5675
 3807SOL     OW13097   3.180   0.982   6.864  0.3939  0.6175 -0.0271
 3807SOL    HW113098   3.105   0.936   6.826 -0.7040  0.6424  2.0480
 3807SOL    HW213099   3.256   0.928   6.839 -0.5370 -0.5627 -0.3590
 3808SOL     OW13100   0.345   1.242   2.424  0.8302 -0.1637 -0.1480
 3808SOL    HW113101   0.272   1.184   2.403  2.0842 -2.3126  1.1553
 3808SOL    HW213102   0.421   1.202   2.381  1.3931  1.6078 -0.8519
 3809SOL     OW13103   8.958   1.815   2.590 -0.0090  0.5641 -0.7251
 3809SOL    HW113104   8.959   1.907   2.617 -0.7323  0.7308 -1.2852
 3809SOL    HW213105   9.045   1.783   2.615  0.3578  1.4736 -0.8035
 3810SOL     OW13106   6.014   0.849   7.468 -0.3127  0.6681 -0.1223
 3810SOL    HW113107   5.948   0.905   7.510 -0.2276 -0.6864  1.8989
 3810SOL    HW213108   6.058   0.805   7.541  0.7631 -0.7611 -1.5936
 3811SOL     OW13109   5.428   4.847   2.735 -0.1872  0.3010 -0.0933
 3811SOL    HW113110   5.520   4.822   2.738 -0.4473 -0.5692  1.1150
 3811SOL    HW213111   5.423   4.925   2.790  0.0595  1.1714 -1.2810
 3812SOL     OW13112   2.528   7.969   6.636 -0.1343 -0.5497  0.1511
 3812SOL    HW113113   2.588   8.020   6.690  0.6184 -0.2641 -0.9205
 3812SOL    HW213114   2.585   7.907   6.589 -0.6750 -0.3144 -0.8371
 3813SOL     OW13115   7.085   7.962   6.504  0.7620  0.0579 -0.4118
 3813SOL    HW113116   7.009   8.017   6.486 -0.3903 -1.8995 -1.8034
 3813SOL    HW213117   7.139   8.014   6.563 -2.2287  1.0206  1.6015
 3814SOL     OW13118   6.955   0.082   1.686  0.8881  0.0445 -0.5347
 3814SOL    HW113119   6.914   0.063   1.770  1.2354 -3.1519 -1.0172
 3814SOL    HW213120   6.970   0.177   1.687 -2.1427  0.5532  1.5736
 3815SOL     OW13121   4.410   4.049   4.682 -0.3582  0.0377  0.1093
 3815SOL    HW113122   4.379   3.982   4.743  0.4102 -0.8364 -0.4376
 3815SOL    HW213123   4.395   4.011   4.595  1.2267  0.0405 -0.1791
 3816SOL     OW13124   5.904   6.936   8.850 -0.7204 -0.2627  0.0135
 3816SOL    HW113125   5.864   6.874   8.790  0.1370 -0.9652  0.1582
 3816SOL    HW213126   5.997   6.912   8.851 -0.3252  1.1868 -0.1402
 3817SOL     OW13127   0.682   0.153   2.584 -0.1894 -0.6545  0.4378
 3817SOL    HW113128   0.591   0.181   2.594 -0.0578 -0.8332  2.4269
 3817SOL    HW213129   0.733   0.224   2.623  0.4160 -1.2730  0.7844
 3818SOL     OW13130   7.446   2.066   0.561  0.0900  0.7708  0.0206
 3818SOL    HW113131   7.414   1.975   0.559  1.0995  0.4286 -2.6723
 3818SOL    HW213132   7.399   2.109   0.489 -0.3744  2.4172  1.2697
 3819SOL     OW13133   4.617   0.596   1.353  1.0752  0.4273 -0.0249
 3819SOL    HW113134   4.552   0.665   1.371  0.2715  0.0246 -1.2839
 3819SOL    HW213135   4.695   0.624   1.401 -0.1194  0.7526  1.7821
 3820SOL     OW13136   7.240   2.954   5.042  0.0902  0.1313 -0.1455
 3820SOL    HW113137   7.227   2.861   5.057  1.8223 -0.1417 -0.2624
 3820SOL    HW213138   7.213   2.968   4.952  0.9247 -0.4809 -0.4925
 3821SOL     OW13139   5.681   0.047   2.719 -0.3796  0.2945  0.0228
 3821SOL    HW113140   5.697   0.099   2.798 -0.6190 -0.1687  0.3778
 3821SOL    HW213141   5.586   0.037   2.715 -0.4189  0.9545 -0.7392
 3822SOL     OW13142   3.020   6.459   4.072  0.8369  0.2903  0.2428
 3822SOL    HW113143   3.104   6.420   4.047  0.1881 -0.4841 -0.7541
 3822SOL    HW213144   3.027   6.551   4.045  1.2751  0.1667 -0.0628
 3823SOL     OW13145   9.270   8.986   5.902 -0.6731 -0.4554 -0.3431
 3823SOL    HW113146   9.313   9.062   5.863 -0.0594 -1.3885 -1.5067
 3823SOL    HW213147   9.223   9.022   5.978  2.3567  0.5901  1.1587
 3824SOL     OW13148   9.062   6.775   6.112 -0.1720 -0.1261  0.5140
 3824SOL    HW113149   9.059   6.849   6.172  1.4969  0.7081 -0.3938
 3824SOL    HW213150   9.124   6.714   6.152  0.8329  0.3668 -0.2728
 3825SOL     OW13151   2.533   5.635   2.977  0.1422  0.0915 -0.2725
 3825SOL    HW113152   2.613   5.609   2.933  0.5745  0.7581  0.1042
 3825SOL    HW213153   2.551   5.724   3.008  0.0449 -0.5462  1.7078
 3826SOL     OW13154   5.480   3.602   7.548 -0.6442  0.0674 -0.2269
 3826SOL    HW113155   5.472   3.578   7.456 -0.3373  1.0433 -0.5175
 3826SOL    HW213156   5.574   3.610   7.563 -0.7427  1.3240 -0.2136
 3827SOL     OW13157   3.589   1.324   2.056 -0.0742  0.2784  0.1869
 3827SOL    HW113158   3.595   1.403   2.003 -0.6451 -0.3777 -0.8750
 3827SOL    HW213159   3.678   1.288   2.055 -0.1101  0.1889 -0.4753
 3828SOL     OW13160   7.704   1.592   3.640  0.6788 -0.3839  0.2056
 3828SOL    HW113161   7.665   1.564   3.723 -0.3468  0.6186  0.0822
 3828SOL    HW213162   7.637   1.573   3.575  0.9760  0.0064 -0.2161
 3829SOL     OW13163   4.926   7.737   7.766  0.6295 -0.1865  0.1734
 3829SOL    HW113164   4.858   7.766   7.827  0.8513  3.3077 -1.0757
 3829SOL    HW213165   4.884   7.669   7.714 -1.0563  0.0221  1.2125
 3830SOL     OW13166   4.264   6.911   6.106  0.1848 -0.1186  0.5185
 3830SOL    HW113167   4.305   6.943   6.025  0.0727 -1.0780  0.0758
 3830SOL    HW213168   4.183   6.870   6.077 -1.1291  1.8096  1.3987
 3831SOL     OW13169   7.999   0.513   0.622  0.3631 -0.2256  0.1305
 3831SOL    HW113170   7.945   0.592   0.611 -0.6895 -1.0649 -0.7776
 3831SOL    HW213171   7.979   0.483   0.711  1.0368  0.7209  0.6126
 3832SOL     OW13172   3.503   1.506   1.637 -0.6200 -0.0083  0.1891
 3832SOL    HW113173   3.545   1.420   1.641 -0.1521  0.1833 -0.4642
 3832SOL    HW213174   3.571   1.563   1.600 -1.4484  0.3205 -0.8433
 3833SOL     OW13175   1.655   4.775   4.150 -0.7559  0.1252 -0.9503
 3833SOL    HW113176   1.630   4.861   4.182 -0.2982 -0.2396  0.4004
 3833SOL    HW213177   1.740   4.788   4.108 -1.0590  0.4803 -1.4581
 3834SOL     OW13178   8.996   3.953   7.994  0.3490 -0.1539 -0.0495
 3834SOL    HW113179   9.077   3.934   8.043 -0.5183 -0.7700  1.1958
 3834SOL    HW213180   8.929   3.962   8.062 -1.1292 -2.1758 -1.1750
 3835SOL     OW13181   4.153   0.799   8.351  0.1555  0.7870 -0.0469
 3835SOL    HW113182   4.224   0.863   8.359  1.6431 -0.6640 -1.4254
 3835SOL    HW213183   4.172   0.734   8.419 -0.4567  0.9510  0.2843
 3836SOL     OW13184   7.147   6.899   7.443 -0.4088  0.1639  0.5486
 3836SOL    HW113185   7.082   6.867   7.381 -1.3512 -0.0716  1.6419
 3836SOL    HW213186   7.225   6.846   7.427 -0.7703 -0.1450 -0.1686
 3837SOL     OW13187   6.204   7.198   6.456  0.0518 -0.2275  0.5071
 3837SOL    HW113188   6.133   7.158   6.506  0.8568  0.2812  2.0912
 3837SOL    HW213189   6.160   7.261   6.398 -0.8695 -0.6826  0.7082
 3838SOL     OW13190   2.497   7.191   2.982  0.2985  0.5186 -0.2894
 3838SOL    HW113191   2.456   7.152   2.905 -1.7481  1.2723  0.3869
 3838SOL    HW213192   2.584   7.151   2.986 -0.3172 -1.0213 -1.8338
 3839SOL     OW13193   8.612   4.641   4.919 -0.3193 -0.0239 -0.2154
 3839SOL    HW113194   8.704   4.667   4.919 -1.1450  3.5112  4.6520
 3839SOL    HW213195   8.597   4.610   4.830  4.9376  1.6475 -1.9022
 3840SOL     OW13196   1.042   6.895   5.642  0.0698  0.6822 -0.1685
 3840SOL    HW113197   1.066   6.983   5.670  0.4671  0.2758  0.7950
 3840SOL    HW213198   1.030   6.902   5.547 -0.1767  1.8266 -0.0533
 3841SOL     OW13199   5.598   3.590   6.465 -0.0143 -0.2345  0.5542
 3841SOL    HW113200   5.631   3.581   6.554 -2.1447 -2.0571  1.1948
 3841SOL    HW213201   5.519   3.643   6.474  0.6322  0.9318 -0.4740
 3842SOL     OW13202   8.696   5.935   3.124 -0.5901 -0.5363  0.0664
 3842SOL    HW113203   8.687   5.877   3.049  2.4464 -3.2500  1.6582
 3842SOL    HW213204   8.652   5.889   3.196 -0.5871  0.4658  0.7260
 3843SOL     OW13205   6.982   7.152   2.370 -0.5660 -0.1248 -0.1423
 3843SOL    HW113206   6.959   7.198   2.451 -0.0432 -1.6712  0.9211
 3843SOL    HW213207   7.010   7.065   2.400  1.6909  0.0024 -1.8050
 3844SOL     OW13208   8.990   3.073   1.446 -0.2317 -0.0770  0.1339
 3844SOL    HW113209   8.922   3.098   1.384 -0.0536  0.7806  0.2713
 3844SOL    HW213210   9.026   3.157   1.476 -0.8696 -0.4437  2.0008
 3845SOL     OW13211   6.427   4.007   8.827 -0.3023 -0.8568 -0.4175
 3845SOL    HW113212   6.348   4.017   8.774  0.7810  0.3914 -1.8641
 3845SOL    HW213213   6.454   3.916   8.813 -1.9621 -1.5550  0.8129
 3846SOL     OW13214   3.490   0.391   0.592  0.5316 -0.0950 -0.3182
 3846SOL    HW113215   3.474   0.299   0.612 -0.9895 -0.3140 -2.3908
 3846SOL    HW213216   3.472   0.399   0.498 -1.0664  2.6663  0.1585
 3847SOL     OW13217   5.491   4.915   6.032  0.0752  0.0382 -0.3287
 3847SOL    HW113218   5.579   4.878   6.038 -0.1292 -0.5086 -0.6735
 3847SOL    HW213219   5.463   4.897   5.943 -0.7611 -0.6350  0.0612
 3848SOL     OW13220   0.598   1.172   6.315 -0.2127  0.1142 -0.4703
 3848SOL    HW113221   0.685   1.211   6.310 -0.6642  1.1125 -0.7284
 3848SOL    HW213222   0.594   1.111   6.241  0.8193 -1.0902  0.4591
 3849SOL     OW13223   2.368   5.959   6.642 -0.1767  0.4029  0.0508
 3849SOL    HW113224   2.346   5.987   6.553 -0.4372 -2.0323 -0.6740
 3849SOL    HW213225   2.359   6.038   6.695 -4.2932  0.9213 -1.3146
 3850SOL     OW13226   8.108   8.947   7.693 -0.3974  0.0254 -0.1607
 3850SOL    HW113227   8.114   8.851   7.692  0.3578  0.0612 -2.5905
 3850SOL    HW213228   8.018   8.966   7.667 -0.3873 -0.0013 -0.2115
 3851SOL     OW13229   8.475   2.907   7.528  0.2762  0.1822  0.5280
 3851SOL    HW113230   8.491   2.966   7.454 -0.7857  0.0942  0.2122
 3851SOL    HW213231   8.438   2.964   7.596 -2.1430 -0.3248 -0.2935
 3852SOL     OW13232   8.214   5.790   2.240 -0.5789  0.2614  0.0253
 3852SOL    HW113233   8.137   5.738   2.219 -0.0030 -0.7788  0.4236
 3852SOL    HW213234   8.244   5.754   2.324  0.8781  0.0034 -0.5951
 3853SOL     OW13235   7.876   8.992   1.621  0.3793 -0.0172  0.4220
 3853SOL    HW113236   7.785   8.971   1.602  0.7652 -2.4797  1.1607
 3853SOL    HW213237   7.873   9.039   1.705 -0.2050  0.0206  0.3802
 3854SOL     OW13238   4.199   8.023   7.329 -0.4938 -0.4619  0.1247
 3854SOL    HW113239   4.215   8.001   7.237 -0.3493 -1.0992  0.3005
 3854SOL    HW213240   4.155   7.946   7.365 -2.0572  0.4307  0.1805
 3855SOL     OW13241   6.975   1.997   3.755  0.6169 -0.2546  0.0005
 3855SOL    HW113242   7.063   1.989   3.792  0.4752 -1.0348  0.1607
 3855SOL    HW213243   6.989   2.004   3.660  0.8566 -0.2121  0.0398
 3856SOL     OW13244   7.572   6.255   9.180  0.0229 -0.1020  0.2169
 3856SOL    HW113245   7.510   6.271   9.251 -0.7378  1.1039 -0.6984
 3856SOL    HW213246   7.649   6.307   9.203 -0.9990  1.9607 -0.8306
 3857SOL     OW13247   6.242   8.502   3.420 -0.2130  0.4136  0.3939
 3857SOL    HW113248   6.168   8.454   3.384  0.5539 -0.4217 -0.1043
 3857SOL    HW213249   6.263   8.569   3.355 -0.4741  0.5881  0.4911
 3858SOL     OW13250   2.594   3.379   5.484  0.1426  0.5304 -0.1158
 3858SOL    HW113251   2.614   3.285   5.488  0.5679  0.5548 -1.5102
 3858SOL    HW213252   2.674   3.422   5.516 -1.0468  0.3636  3.2781
 3859SOL     OW13253   7.417   5.573   9.237 -0.0231  0.0920  0.3336
 3859SOL    HW113254   7.334   5.618   9.224 -1.4678 -1.7181  2.8300
 3859SOL    HW213255   7.401   5.484   9.206  1.4458  0.0974 -0.4966
 3860SOL     OW13256   8.828   5.941   5.368 -0.5709 -0.4574 -0.2475
 3860SOL    HW113257   8.820   5.887   5.289 -4.3809 -0.3519 -0.0481
 3860SOL    HW213258   8.795   6.027   5.342  0.2817  0.2331  0.8945
 3861SOL     OW13259   1.569   3.473   4.100  0.8937 -0.4691  0.1270
 3861SOL    HW113260   1.514   3.400   4.071  0.6855  0.4305 -1.8181
 3861SOL    HW213261   1.656   3.453   4.064  0.4840  0.9802 -1.7338
 3862SOL     OW13262   2.622   7.305   4.362 -0.3351  0.2106  0.0395
 3862SOL    HW113263   2.690   7.238   4.365 -0.1138  0.4694  0.9492
 3862SOL    HW213264   2.566   7.284   4.437 -1.3741 -0.1244 -0.8151
 3863SOL     OW13265   3.127   8.285   4.978 -0.4045 -0.2599 -0.4629
 3863SOL    HW113266   3.077   8.270   5.059  1.5408  0.0709  0.8378
 3863SOL    HW213267   3.088   8.225   4.915 -1.6066 -0.9391  0.8804
 3864SOL     OW13268   6.384   6.326   4.137  0.3043  0.0442  0.6071
 3864SOL    HW113269   6.421   6.393   4.079 -1.7683 -0.6118 -1.5493
 3864SOL    HW213270   6.460   6.273   4.163  1.2361  0.0391 -1.9475
 3865SOL     OW13271   4.920   4.270   3.080  0.6095 -0.3855  0.6176
 3865SOL    HW113272   4.983   4.202   3.057 -0.1846 -1.0370  0.3569
 3865SOL    HW213273   4.838   4.242   3.039 -0.1972 -0.2684  2.1232
 3866SOL     OW13274   4.468   6.532   9.228  0.5252  0.0306  0.2879
 3866SOL    HW113275   4.549   6.548   9.276 -0.3090 -0.7229  1.9956
 3866SOL    HW213276   4.490   6.553   9.137  2.5761  0.0132  0.7410
 3867SOL     OW13277   3.510   1.908   5.078 -0.0538  0.3545  0.0703
 3867SOL    HW113278   3.556   1.976   5.128  0.9484  0.8615 -1.5218
 3867SOL    HW213279   3.439   1.955   5.034 -0.2775  0.0884  0.1461
 3868SOL     OW13280   5.725   1.363   1.794 -0.3084  0.2063  0.2801
 3868SOL    HW113281   5.742   1.272   1.817  1.1948  0.5872  0.7278
 3868SOL    HW213282   5.757   1.372   1.704 -0.1222  0.3835  0.3635
 3869SOL     OW13283   7.305   2.751   5.871 -0.1001 -0.6124 -0.2031
 3869SOL    HW113284   7.390   2.768   5.913  0.2338 -0.9540 -0.7445
 3869SOL    HW213285   7.263   2.837   5.868  1.3733  0.0614 -2.4362
 3870SOL     OW13286   6.085   8.801   0.933  0.3681  0.1796 -0.1696
 3870SOL    HW113287   6.144   8.874   0.914  2.1124 -0.9698  0.6586
 3870SOL    HW213288   6.071   8.806   1.027  0.2704 -0.3839 -0.1528
 3871SOL     OW13289   7.672   6.170   6.400  0.2322 -0.0057  0.0621
 3871SOL    HW113290   7.684   6.192   6.493  0.7131 -1.1827  0.2919
 3871SOL    HW213291   7.578   6.179   6.386 -0.0228 -0.9864  0.9914
 3872SOL     OW13292   8.471   0.222   6.339  0.6161 -0.2895  0.2535
 3872SOL    HW113293   8.428   0.228   6.253  0.9677  0.1404  0.1022
 3872SOL    HW213294   8.535   0.151   6.329  0.3960 -0.4898  0.2748
 3873SOL     OW13295   5.153   8.256   3.717 -0.3703  0.2207  0.4049
 3873SOL    HW113296   5.066   8.294   3.733 -0.2374  0.5291  0.4066
 3873SOL    HW213297   5.162   8.189   3.784 -1.3269 -1.0328 -0.7025
 3874SOL     OW13298   5.072   4.542   4.172  0.3031  0.3155 -0.9476
 3874SOL    HW113299   5.153   4.592   4.181 -1.9427  4.0706 -0.4389
 3874SOL    HW213300   5.055   4.542   4.078 -0.1373  1.3360 -0.8789
 3875SOL     OW13301   5.286   2.421   6.574  0.1272 -0.9426 -0.3289
 3875SOL    HW113302   5.283   2.389   6.484  1.2026 -0.1807 -0.6624
 3875SOL    HW213303   5.359   2.374   6.613 -0.0299 -0.9171 -0.0084
 3876SOL     OW13304   6.503   8.111   4.486  0.3290 -0.2689  0.3310
 3876SOL    HW113305   6.419   8.105   4.531 -0.1717 -0.5905 -0.6225
 3876SOL    HW213306   6.551   8.180   4.533 -0.5981  0.1449  0.6829
 3877SOL     OW13307   4.595   3.977   1.016 -0.3786 -0.3955  0.0318
 3877SOL    HW113308   4.507   4.015   1.022 -0.4993 -0.9975  2.2830
 3877SOL    HW213309   4.609   3.967   0.922 -1.2584  3.0570 -0.5670
 3878SOL     OW13310   3.280   2.327   4.846 -0.0863  0.4371 -0.3495
 3878SOL    HW113311   3.340   2.344   4.919 -1.7496 -0.7097  1.3225
 3878SOL    HW213312   3.240   2.411   4.827 -0.5052  0.5118  0.8472
 3879SOL     OW13313   5.553   2.461   1.196 -0.3017 -0.6186 -0.2521
 3879SOL    HW113314   5.627   2.520   1.182  0.8837 -1.8844  0.6149
 3879SOL    HW213315   5.482   2.519   1.224  0.7179  0.4655  0.1586
 3880SOL     OW13316   1.286   5.176   8.187  0.6276 -0.2351  0.5552
 3880SOL    HW113317   1.194   5.154   8.202  0.0911 -0.7882 -2.9613
 3880SOL    HW213318   1.285   5.268   8.162  0.8963 -0.4400 -0.2447
 3881SOL     OW13319   8.955   3.723   6.196 -0.3595 -0.3163 -0.4434
 3881SOL    HW113320   8.966   3.654   6.130 -0.9730  1.7141 -2.7155
 3881SOL    HW213321   9.030   3.780   6.185 -0.1177 -0.3113  1.1006
 3882SOL     OW13322   1.039   4.820   4.980 -0.2258  0.1606  0.2575
 3882SOL    HW113323   0.960   4.820   5.035 -0.7373 -0.6201 -0.4665
 3882SOL    HW213324   1.011   4.856   4.897  0.4186  0.8028  0.3175
 3883SOL     OW13325   4.995   2.227   2.451 -0.3074 -0.0316 -0.1218
 3883SOL    HW113326   4.978   2.171   2.375  1.8964 -0.1413 -0.5684
 3883SOL    HW213327   5.012   2.314   2.413 -2.9390  0.7812  0.5151
 3884SOL     OW13328   2.139   7.416   1.303 -0.0671  0.0028 -0.6373
 3884SOL    HW113329   2.188   7.338   1.328 -0.7165 -1.0264 -2.4821
 3884SOL    HW213330   2.183   7.448   1.224 -0.4913  0.8258 -0.5415
 3885SOL     OW13331   8.870   7.253   8.327 -0.2709  0.5379 -0.2121
 3885SOL    HW113332   8.863   7.158   8.316 -0.0496  0.4519  0.3693
 3885SOL    HW213333   8.818   7.271   8.405  3.7255  0.2364  2.6560
 3886SOL     OW13334   3.381   5.413   2.877  0.1935  0.0558  0.4869
 3886SOL    HW113335   3.469   5.386   2.902 -0.5785 -2.7301  0.2938
 3886SOL    HW213336   3.392   5.453   2.790  1.2380 -0.3071  0.4498
 3887SOL     OW13337   2.770   6.400   1.031  0.5445 -0.2180 -0.5470
 3887SOL    HW113338   2.806   6.380   0.945  0.7103 -0.5227 -0.4065
 3887SOL    HW213339   2.763   6.315   1.075  0.0702 -0.1104 -0.4130
 3888SOL     OW13340   7.876   3.111   2.225  0.1567 -0.6943 -0.0091
 3888SOL    HW113341   7.801   3.059   2.253  2.0990 -2.9907  1.1457
 3888SOL    HW213342   7.945   3.046   2.208  1.5475  1.2613 -2.1542
 3889SOL     OW13343   1.784   1.207   0.276 -0.4527  0.1073  0.1054
 3889SOL    HW113344   1.815   1.258   0.201  0.8697 -0.5735  0.1794
 3889SOL    HW213345   1.744   1.272   0.334  1.6590  1.1400  0.4281
 3890SOL     OW13346   2.932   1.404   2.735  0.0280  0.1490 -0.8388
 3890SOL    HW113347   2.872   1.426   2.806  1.1843 -1.6668  0.7499
 3890SOL    HW213348   2.885   1.341   2.681  0.3994 -1.1210  0.2939
 3891SOL     OW13349   7.362   3.491   2.851  0.3476  0.1521  0.5816
 3891SOL    HW113350   7.442   3.544   2.854  0.1466  0.5152 -0.2270
 3891SOL    HW213351   7.360   3.456   2.763  0.1850 -0.7636  0.9490
 3892SOL     OW13352   5.224   1.595   3.882 -0.5122 -0.3643  0.0257
 3892SOL    HW113353   5.309   1.579   3.841 -0.0528 -0.3799  0.9797
 3892SOL    HW213354   5.240   1.589   3.976 -1.2580  1.1474  0.2744
 3893SOL     OW13355   8.939   5.517   6.375  0.3504 -0.1850 -0.1892
 3893SOL    HW113356   8.855   5.511   6.329  0.1398  2.5661 -0.2316
 3893SOL    HW213357   8.917   5.496   6.466 -0.0003 -1.4372 -0.5498
 3894SOL     OW13358   7.998   1.016   0.588  0.2753 -0.3487 -0.1395
 3894SOL    HW113359   8.070   0.974   0.636  0.2791 -0.1042  0.0721
 3894SOL    HW213360   7.919   0.973   0.621  0.1638  0.7793  1.1148
 3895SOL     OW13361   9.192   8.780   0.665 -0.3513 -0.1175 -0.2049
 3895SOL    HW113362   9.263   8.791   0.729  0.0760  0.7279 -0.8123
 3895SOL    HW213363   9.219   8.706   0.611 -0.6269 -0.7214  0.4750
 3896SOL     OW13364   1.473   3.310   3.481  0.1034 -0.2731 -0.1860
 3896SOL    HW113365   1.492   3.380   3.419 -1.4728 -0.4240 -0.8694
 3896SOL    HW213366   1.510   3.340   3.564 -0.5067  1.3484 -0.4847
 3897SOL     OW13367   6.145   5.694   8.198  0.2101  0.5833 -0.3321
 3897SOL    HW113368   6.060   5.727   8.171  0.1472  1.5908  0.9941
 3897SOL    HW213369   6.125   5.619   8.254  0.2509 -0.0095 -1.1078
 3898SOL     OW13370   6.002   6.966   5.486 -0.1490  0.2407 -0.1817
 3898SOL    HW113371   6.042   6.954   5.572  1.7280  1.8567 -0.7687
 3898SOL    HW213372   6.070   6.936   5.425 -1.1820 -0.1941 -1.1223
 3899SOL     OW13373   8.033   8.148   4.346 -0.0149  0.1568  0.0919
 3899SOL    HW113374   8.108   8.151   4.404  1.8417 -0.9173 -2.1754
 3899SOL    HW213375   8.047   8.220   4.284  0.0088 -0.9948 -1.2934
 3900SOL     OW13376   5.748   5.698   3.336 -0.0384  0.0263 -0.4846
 3900SOL    HW113377   5.733   5.789   3.312  0.2447  0.6882  1.7378
 3900SOL    HW213378   5.732   5.695   3.431 -0.7227 -2.3769 -0.6422
 3901SOL     OW13379   8.349   9.006   0.432  0.1295 -0.1561  0.1003
 3901SOL    HW113380   8.310   9.092   0.445  1.7859  0.7827 -1.0129
 3901SOL    HW213381   8.443   9.020   0.444  0.5869 -1.4654 -1.7072
 3902SOL     OW13382   0.326   5.085   6.431 -0.2182  0.4021  0.1418
 3902SOL    HW113383   0.259   5.153   6.424 -0.6602  0.3440  3.0870
 3902SOL    HW213384   0.408   5.129   6.410 -0.7544  1.3516  0.0341
 3903SOL     OW13385   0.512   7.553   5.602 -0.3912  0.0015 -0.0402
 3903SOL    HW113386   0.541   7.618   5.538  0.8972  2.2091  2.6794
 3903SOL    HW213387   0.573   7.480   5.590  0.5508  0.8532 -0.5988
 3904SOL     OW13388   0.964   0.269   9.251  0.0501  0.2974  0.0868
 3904SOL    HW113389   1.050   0.226   9.254  0.3776  0.8705 -0.8088
 3904SOL    HW213390   0.905   0.203   9.215 -0.1893 -0.5535  1.9257
 3905SOL     OW13391   4.987   2.461   2.092 -0.5292 -0.7891 -0.0032
 3905SOL    HW113392   4.898   2.429   2.075 -0.4537  0.2742 -2.5158
 3905SOL    HW213393   5.008   2.516   2.017  1.6467  0.3118  1.3636
 3906SOL     OW13394   6.695   4.504   1.301  0.2976 -0.1779 -0.2106
 3906SOL    HW113395   6.634   4.430   1.302 -2.5171  2.0718  0.2841
 3906SOL    HW213396   6.689   4.541   1.389 -0.3480  2.2101 -1.2151
 3907SOL     OW13397   4.257   7.253   8.406  0.2603 -0.2720  0.0058
 3907SOL    HW113398   4.340   7.291   8.434  0.7695 -1.0156 -0.4856
 3907SOL    HW213399   4.207   7.327   8.372 -0.0427  0.5156  2.0740
 3908SOL     OW13400   6.673   6.926   1.559 -0.0433  0.2055 -0.6900
 3908SOL    HW113401   6.666   6.985   1.484 -1.5898  1.4252  0.3870
 3908SOL    HW213402   6.592   6.940   1.608  0.7330 -0.9382  0.9464
 3909SOL     OW13403   5.175   2.652   3.367  0.3099  0.2087 -0.3505
 3909SOL    HW113404   5.123   2.689   3.295 -0.0426 -0.4232 -0.4204
 3909SOL    HW213405   5.208   2.569   3.333  0.8073  0.2860 -0.0643
 3910SOL     OW13406   6.575   3.522   4.109 -0.1198  0.2703  0.0408
 3910SOL    HW113407   6.502   3.462   4.092 -0.5314  0.9484 -0.5978
 3910SOL    HW213408   6.540   3.608   4.087  1.0040  0.5539 -0.6567
 3911SOL     OW13409   5.130   7.376   3.864 -0.1003  0.4693 -0.3074
 3911SOL    HW113410   5.121   7.306   3.928  0.3272  0.1605 -0.5797
 3911SOL    HW213411   5.207   7.426   3.894 -0.8295  1.2629  0.2930
 3912SOL     OW13412   5.866   9.055   5.933 -0.8431 -0.1220  0.0894
 3912SOL    HW113413   5.851   9.145   5.903 -1.7222 -0.4369 -0.4499
 3912SOL    HW213414   5.803   9.042   6.004 -0.7544 -0.3274  0.1311
 3913SOL     OW13415   0.972   0.383   2.890  0.2709 -0.2289  0.2935
 3913SOL    HW113416   0.893   0.417   2.931 -0.9165 -1.6405 -0.7722
 3913SOL    HW213417   1.044   0.427   2.936 -1.1346  1.7709  0.6384
 3914SOL     OW13418   7.977   2.269   0.463 -0.0834  0.3930  0.0045
 3914SOL    HW113419   7.914   2.225   0.520  0.5946 -0.1492  0.3384
 3914SOL    HW213420   8.020   2.333   0.521  0.9621 -0.5053  0.2439
 3915SOL     OW13421   0.767   3.619   1.511  0.0705 -0.4916  0.4427
 3915SOL    HW113422   0.801   3.529   1.502 -1.8108 -1.0276 -1.5184
 3915SOL    HW213423   0.827   3.672   1.459  0.3545 -0.8024  0.4463
 3916SOL     OW13424   1.507   8.149   6.003 -0.0853  0.5156  0.3037
 3916SOL    HW113425   1.504   8.115   5.914  0.8220  1.0912  0.0398
 3916SOL    HW213426   1.601   8.159   6.022 -0.2293 -0.4642  1.6600
 3917SOL     OW13427   3.851   6.474   3.406  0.1633  0.2539  0.0105
 3917SOL    HW113428   3.869   6.392   3.453 -0.7982 -0.4460 -0.8291
 3917SOL    HW213429   3.922   6.533   3.433 -0.6458  0.0487  2.7679
 3918SOL     OW13430   5.209   7.327   2.077 -0.1099 -0.6295 -0.1686
 3918SOL    HW113431   5.301   7.319   2.103  0.6395  1.1239 -2.2027
 3918SOL    HW213432   5.162   7.271   2.139  2.1001 -0.0304  2.1155
 3919SOL     OW13433   8.496   5.896   0.779  0.0429  0.4177  0.0053
 3919SOL    HW113434   8.476   5.922   0.868  2.3265  0.2164  0.6083
 3919SOL    HW213435   8.450   5.960   0.724 -0.2000  1.4065  1.3362
 3920SOL     OW13436   3.433   4.176   4.437 -0.0238 -0.2847  0.2940
 3920SOL    HW113437   3.382   4.115   4.384  0.3910 -0.1580 -0.2501
 3920SOL    HW213438   3.500   4.210   4.378 -1.0313  1.6623  0.2152
 3921SOL     OW13439   3.362   8.942   5.627  0.1032  0.0342  0.0337
 3921SOL    HW113440   3.284   8.895   5.654 -1.6175  1.5589 -2.0970
 3921SOL    HW213441   3.399   8.889   5.556 -0.2110  0.3775 -0.3936
 3922SOL     OW13442   1.321   6.138   3.523  0.4288 -0.6840  0.0194
 3922SOL    HW113443   1.390   6.158   3.586 -0.3436 -1.0082  0.9735
 3922SOL    HW213444   1.353   6.175   3.440  0.8473  0.9131  0.8762
 3923SOL     OW13445   8.798   3.016   5.902 -0.0989 -0.5881  0.2355
 3923SOL    HW113446   8.703   3.010   5.909 -0.2311  1.7794  1.2425
 3923SOL    HW213447   8.813   3.056   5.816  0.0704 -2.3509 -0.5639
 3924SOL     OW13448   4.279   3.463   6.624  0.8072 -0.0649  0.4459
 3924SOL    HW113449   4.357   3.437   6.673 -0.4427 -3.3692  0.8226
 3924SOL    HW213450   4.310   3.475   6.534  1.9955 -0.1236  0.8434
 3925SOL     OW13451   4.902   4.519   2.617  0.5290  0.0029 -0.7751
 3925SOL    HW113452   4.934   4.455   2.554  0.1609 -0.6133 -0.3470
 3925SOL    HW213453   4.940   4.493   2.700 -3.0399 -2.2929  0.2515
 3926SOL     OW13454   4.285   2.281   0.606 -0.3349 -0.0309 -0.2756
 3926SOL    HW113455   4.334   2.272   0.524  0.5382  4.3671 -0.3369
 3926SOL    HW213456   4.350   2.268   0.675 -0.2748  0.0073 -0.3258
 3927SOL     OW13457   7.443   5.572   7.429  0.5429  0.6089  0.2214
 3927SOL    HW113458   7.518   5.516   7.412 -0.2019  0.4954 -3.0076
 3927SOL    HW213459   7.368   5.524   7.392 -0.5228  2.4565 -0.1053
 3928SOL     OW13460   5.044   4.185   0.681  0.0468  0.3191  0.4893
 3928SOL    HW113461   5.032   4.276   0.653 -0.4653 -0.1654 -0.8718
 3928SOL    HW213462   5.136   4.180   0.705  0.4018  0.8557 -0.7098
 3929SOL     OW13463   7.266   3.560   5.569  0.5478 -0.0070  0.1824
 3929SOL    HW113464   7.295   3.478   5.609 -0.3619  0.3521  1.5875
 3929SOL    HW213465   7.332   3.578   5.502  2.3395 -0.3663  1.8167
 3930SOL     OW13466   3.957   6.605   6.383 -0.3694 -0.4495 -0.2664
 3930SOL    HW113467   4.029   6.653   6.424 -1.7366  3.4125 -2.0998
 3930SOL    HW213468   3.997   6.563   6.307  0.8953 -2.3916  1.4500
 3931SOL     OW13469   2.670   2.068   1.614 -0.0909 -0.8082 -0.3199
 3931SOL    HW113470   2.746   2.106   1.569 -0.3981 -0.9499 -0.9567
 3931SOL    HW213471   2.707   1.998   1.668  0.4422  0.2025  0.6478
 3932SOL     OW13472   8.342   5.712   6.506  0.0007  0.0938  0.2529
 3932SOL    HW113473   8.396   5.661   6.447  0.1938  0.9016 -0.2695
 3932SOL    HW213474   8.380   5.800   6.504 -0.3081  0.2533  1.1668
 3933SOL     OW13475   1.627   2.439   2.415 -0.3129  0.5992 -0.3868
 3933SOL    HW113476   1.704   2.493   2.396  0.4944 -0.0305  1.0335
 3933SOL    HW213477   1.625   2.432   2.510 -3.0045  1.8542 -0.3045
 3934SOL     OW13478   0.913   5.556   2.716 -0.5140  0.8552 -0.2377
 3934SOL    HW113479   0.949   5.561   2.804 -0.0748  0.4505 -0.3926
 3934SOL    HW213480   0.851   5.629   2.711 -2.5047 -0.7013  1.2927
 3935SOL     OW13481   0.218   7.160   6.878  0.4447 -0.0204  0.1971
 3935SOL    HW113482   0.185   7.078   6.840  1.0838 -1.7994  3.2420
 3935SOL    HW213483   0.154   7.182   6.946  0.9580  1.2891  0.2572
 3936SOL     OW13484   7.117   0.462   2.301  0.2871  0.0987 -0.5789
 3936SOL    HW113485   7.063   0.453   2.380  0.0353  3.2658 -0.2856
 3936SOL    HW213486   7.194   0.511   2.330  1.1518 -0.4359 -1.9095
 3937SOL     OW13487   7.798   0.452   8.964 -0.1504 -0.8586  0.4954
 3937SOL    HW113488   7.840   0.501   9.034  0.1811  1.3984 -1.2040
 3937SOL    HW213489   7.868   0.437   8.900 -1.3816  1.0034 -1.3501
 3938SOL     OW13490   2.361   7.852   8.815  0.1111 -0.1171 -0.3770
 3938SOL    HW113491   2.339   7.762   8.842  1.2090  0.0763  1.2313
 3938SOL    HW213492   2.277   7.890   8.788 -1.0607 -0.3558  2.7287
 3939SOL     OW13493   8.091   1.856   8.195  0.0154 -0.0710 -0.0219
 3939SOL    HW113494   8.158   1.880   8.258  0.5768 -0.9737 -0.2658
 3939SOL    HW213495   8.117   1.900   8.114  0.1877 -0.2427 -0.0582
 3940SOL     OW13496   5.207   3.011   7.215  0.2691 -0.0739 -0.6399
 3940SOL    HW113497   5.239   2.931   7.172  0.9983 -0.8343  1.2673
 3940SOL    HW213498   5.276   3.075   7.199  0.4437 -0.2968 -0.7909
 3941SOL     OW13499   4.628   7.830   3.835  0.4727 -0.2393  0.2602
 3941SOL    HW113500   4.548   7.857   3.878  1.1284 -0.2051  1.4687
 3941SOL    HW213501   4.660   7.909   3.791  0.0006 -0.1854  0.0084
 3942SOL     OW13502   2.624   6.290   0.500 -0.0548  0.1064  0.6186
 3942SOL    HW113503   2.586   6.332   0.577  2.9438  0.0893  2.1812
 3942SOL    HW213504   2.590   6.341   0.426 -0.0888  2.4405  2.1832
 3943SOL     OW13505   9.188   7.202   0.977 -0.4865 -0.5419  0.0913
 3943SOL    HW113506   9.122   7.218   1.044  1.7527  3.1288  1.6229
 3943SOL    HW213507   9.152   7.241   0.898 -0.2299  1.4422  0.9152
 3944SOL     OW13508   3.599   4.029   0.934  0.5432  0.1321 -0.3219
 3944SOL    HW113509   3.608   3.942   0.973  0.3325 -0.2200 -1.0454
 3944SOL    HW213510   3.507   4.034   0.907 -0.0094  1.4469  1.7229
 3945SOL     OW13511   1.446   0.854   3.496 -0.2378  0.0552 -0.0543
 3945SOL    HW113512   1.423   0.871   3.404  1.1572 -0.2220 -0.4767
 3945SOL    HW213513   1.370   0.810   3.532 -0.5651 -0.4051 -1.2640
 3946SOL     OW13514   0.704   8.425   2.975 -0.0536  0.0789 -0.2304
 3946SOL    HW113515   0.712   8.372   3.054 -0.6334  0.0322 -0.2034
 3946SOL    HW213516   0.707   8.362   2.904  1.5214  0.2021 -0.3041
 3947SOL     OW13517   6.409   1.681   3.099  0.2716 -0.1399 -0.7095
 3947SOL    HW113518   6.487   1.725   3.134  1.9096 -1.0483 -3.0645
 3947SOL    HW213519   6.411   1.595   3.139  0.2203  0.0108 -0.3853
 3948SOL     OW13520   7.191   8.462   8.818 -0.0905 -0.2056 -0.1294
 3948SOL    HW113521   7.145   8.479   8.900  0.0174 -1.4258  0.1985
 3948SOL    HW213522   7.137   8.503   8.751 -0.4403  0.3727  0.4966
 3949SOL     OW13523   6.156   6.197   0.073 -0.1096  0.0529 -0.2862
 3949SOL    HW113524   6.224   6.130   0.065 -0.2318  0.0183 -1.0127
 3949SOL    HW213525   6.180   6.246   0.152  0.8182  0.1160 -0.6053
 3950SOL     OW13526   7.005   2.692   7.709 -0.3672 -0.3889 -0.4738
 3950SOL    HW113527   6.939   2.746   7.753  0.7339 -0.7084  1.6845
 3950SOL    HW213528   7.034   2.744   7.635 -1.7964  0.5015 -0.4280
 3951SOL     OW13529   5.898   6.504   6.171  0.1476 -0.3351  0.4975
 3951SOL    HW113530   5.984   6.462   6.182  0.5635  0.1352 -0.8180
 3951SOL    HW213531   5.892   6.520   6.076 -0.6573  1.1846  0.8049
 3952SOL     OW13532   2.442   2.810   5.598 -0.0777  0.5236  0.0971
 3952SOL    HW113533   2.537   2.796   5.590 -0.1675 -0.1600  0.2306
 3952SOL    HW213534   2.407   2.724   5.623 -0.7833  0.6853 -0.3317
 3953SOL     OW13535   6.943   6.872   0.291  0.4570 -0.0915  0.0711
 3953SOL    HW113536   7.012   6.878   0.226 -1.5040 -3.7072 -2.5122
 3953SOL    HW213537   6.890   6.951   0.278  0.0212 -0.8331 -2.8803
 3954SOL     OW13538   7.845   5.911   1.828 -0.2663 -0.0485  0.1118
 3954SOL    HW113539   7.820   5.822   1.853  1.8913 -0.9019 -0.6264
 3954SOL    HW213540   7.874   5.951   1.911 -0.5601 -0.2790  0.3271
 3955SOL     OW13541   8.014   1.126   5.111  0.1051  0.2635  0.4727
 3955SOL    HW113542   8.083   1.151   5.172 -0.5357 -0.0905  1.3421
 3955SOL    HW213543   8.057   1.126   5.025  1.3552 -0.6316  1.0950
 3956SOL     OW13544   7.187   5.166   6.614  0.7839 -0.1279  0.1087
 3956SOL    HW113545   7.278   5.155   6.586  1.5145  1.3951  1.7762
 3956SOL    HW213546   7.167   5.087   6.664  0.4144 -1.5159 -2.1703
 3957SOL     OW13547   7.079   2.481   8.562 -0.3215 -0.2676  0.1006
 3957SOL    HW113548   7.082   2.414   8.494 -1.6659 -0.9994  0.7323
 3957SOL    HW213549   6.992   2.471   8.601  0.3626  0.2633  1.7903
 3958SOL     OW13550   8.695   1.457   3.474  0.3850 -0.0537  0.1766
 3958SOL    HW113551   8.725   1.386   3.418  1.1936  0.2700  0.1952
 3958SOL    HW213552   8.682   1.531   3.414  2.5138  0.6815  0.5762
 3959SOL     OW13553   8.306   3.799   1.017  0.1342 -0.7887 -0.0418
 3959SOL    HW113554   8.353   3.873   0.979 -0.5406  0.2270  1.0741
 3959SOL    HW213555   8.225   3.837   1.051 -0.9522 -2.3016 -0.8383
 3960SOL     OW13556   8.117   4.069   7.889  0.1769  0.0805 -0.0023
 3960SOL    HW113557   8.197   4.089   7.938  0.3765  1.5174 -0.8482
 3960SOL    HW213558   8.060   4.145   7.905  0.4897  0.8802 -2.4154
 3961SOL     OW13559   0.687   5.118   8.118 -0.3471 -0.0090 -0.3761
 3961SOL    HW113560   0.719   5.134   8.206 -1.3877  1.2818 -0.2356
 3961SOL    HW213561   0.609   5.063   8.130 -0.9675  0.8512 -0.4354
 3962SOL     OW13562   5.619   1.548   2.322  0.3450  1.0314 -0.8589
 3962SOL    HW113563   5.572   1.597   2.255 -1.9412  0.4918  0.3091
 3962SOL    HW213564   5.589   1.458   2.310  0.5833  0.7895  0.3356
 3963SOL     OW13565   2.628   2.479   6.297 -0.0780 -0.2159 -0.4868
 3963SOL    HW113566   2.643   2.417   6.225  0.9230 -0.2458 -0.2557
 3963SOL    HW213567   2.585   2.426   6.365  1.7975 -0.9375  0.1535
 3964SOL     OW13568   7.574   4.652   6.168 -0.3449  0.0206 -0.1274
 3964SOL    HW113569   7.597   4.744   6.185  0.5281 -0.0570 -0.8997
 3964SOL    HW213570   7.657   4.610   6.147 -0.5829 -1.1929  1.2913
 3965SOL     OW13571   8.640   0.542   0.768  0.5365 -0.0857  0.2566
 3965SOL    HW113572   8.649   0.482   0.841  0.6665 -1.7532 -1.0973
 3965SOL    HW213573   8.592   0.617   0.804  0.0025 -1.1784  1.8641
 3966SOL     OW13574   0.688   5.359   7.477 -0.0257  0.4370 -0.3545
 3966SOL    HW113575   0.762   5.417   7.460  0.2543 -0.1939 -1.3205
 3966SOL    HW213576   0.696   5.290   7.412  0.2701 -1.2924  1.4590
 3967SOL     OW13577   5.645   8.308   2.260  0.4877  0.4123 -0.0893
 3967SOL    HW113578   5.674   8.384   2.210  0.9310  0.1114 -0.2943
 3967SOL    HW213579   5.550   8.314   2.260  0.3935 -0.5225 -2.4524
 3968SOL     OW13580   5.299   1.353   8.936 -0.0066  0.0637 -0.3964
 3968SOL    HW113581   5.274   1.387   8.850 -0.0449  2.2098  0.4311
 3968SOL    HW213582   5.365   1.415   8.968 -0.0099 -0.6917  1.1376
 3969SOL     OW13583   4.665   9.279   7.606  0.2567 -0.3701 -0.0852
 3969SOL    HW113584   4.757   9.256   7.596  0.4349 -0.8474  2.4050
 3969SOL    HW213585   4.639   9.240   7.690 -2.2158 -0.2619 -0.7630
 3970SOL     OW13586   0.886   2.482   7.645 -0.1731  0.3511 -0.0395
 3970SOL    HW113587   0.839   2.555   7.606 -0.2632  1.0088  1.2594
 3970SOL    HW213588   0.978   2.511   7.647 -0.4857  1.3070  2.3408
 3971SOL     OW13589   1.838   3.241   3.478  0.0507  0.3403 -0.7796
 3971SOL    HW113590   1.782   3.172   3.441 -2.0228  1.5182  0.0576
 3971SOL    HW213591   1.908   3.193   3.522 -1.7835 -1.3052  0.4564
 3972SOL     OW13592   5.826   5.684   8.227  0.0036  0.1130  0.3807
 3972SOL    HW113593   5.756   5.639   8.180 -0.6645 -0.7760  2.1805
 3972SOL    HW213594   5.796   5.686   8.318  2.1517  0.0146  1.1134
 3973SOL     OW13595   0.515   0.688   2.792 -0.4735  0.2123 -0.2981
 3973SOL    HW113596   0.533   0.671   2.884 -0.8324  2.4275  0.2101
 3973SOL    HW213597   0.600   0.677   2.748 -0.2585 -0.6359  0.3308
 3974SOL     OW13598   6.152   4.695   7.544 -0.2010  0.0274 -0.2789
 3974SOL    HW113599   6.198   4.612   7.560 -0.3487 -0.0517 -0.2561
 3974SOL    HW213600   6.086   4.699   7.613  1.0115  1.0639  0.8224
 3975SOL     OW13601   2.302   1.946   5.417  0.5970  0.5304 -0.2765
 3975SOL    HW113602   2.209   1.957   5.397  0.4941  0.9812  0.4193
 3975SOL    HW213603   2.317   1.851   5.410 -0.2324  0.3009  0.8957
 3976SOL     OW13604   4.888   0.975   4.312 -0.0189  0.3625  0.1072
 3976SOL    HW113605   4.806   1.005   4.350  0.9174  0.8380  1.8164
 3976SOL    HW213606   4.953   1.038   4.343  0.8526  0.5571 -2.0199
 3977SOL     OW13607   7.970   2.396   1.774 -0.3981 -0.1971 -0.0562
 3977SOL    HW113608   7.948   2.302   1.773 -1.3171 -0.0114  1.4788
 3977SOL    HW213609   8.056   2.400   1.816 -0.2420 -0.3608 -0.3535
 3978SOL     OW13610   8.031   6.552   5.220  0.4038 -0.0036 -0.2044
 3978SOL    HW113611   8.102   6.614   5.208  0.0452  1.1294  3.0461
 3978SOL    HW213612   7.951   6.604   5.211  0.0596 -0.4592  0.1640
 3979SOL     OW13613   3.695   8.737   4.495  0.1715  0.3004 -0.8883
 3979SOL    HW113614   3.752   8.779   4.431 -0.6544  0.7586 -1.3343
 3979SOL    HW213615   3.615   8.790   4.495 -0.7839 -1.0986 -1.2520
 3980SOL     OW13616   1.137   3.103   3.126  0.0084  0.0056 -0.2193
 3980SOL    HW113617   1.097   3.023   3.158  1.6575 -1.1868 -1.0571
 3980SOL    HW213618   1.212   3.118   3.185 -0.7535  1.3948  0.4367
 3981SOL     OW13619   2.173   8.127   0.026 -0.0326 -0.4407 -0.1134
 3981SOL    HW113620   2.081   8.107   0.009  0.0382  0.2017 -1.2997
 3981SOL    HW213621   2.170   8.196   0.092 -0.4130 -0.2275 -0.3484
 3982SOL     OW13622   0.707   4.440   6.389 -0.0832  0.0271 -0.5738
 3982SOL    HW113623   0.655   4.519   6.374  1.1800  1.2521  1.1875
 3982SOL    HW213624   0.797   4.467   6.370  1.0320  0.4929  4.4282
 3983SOL     OW13625   2.066   1.583   3.477 -0.5454 -0.5569 -0.4377
 3983SOL    HW113626   2.027   1.497   3.491 -0.6238 -0.5573 -0.6573
 3983SOL    HW213627   2.041   1.633   3.554 -1.0792 -0.5206 -0.6317
 3984SOL     OW13628   2.792   7.364   1.710  0.1789 -0.2523 -0.2794
 3984SOL    HW113629   2.731   7.436   1.695 -0.3432 -1.0026 -1.7587
 3984SOL    HW213630   2.745   7.285   1.683  1.8856 -0.8108 -1.7218
 3985SOL     OW13631   1.921   7.524   8.569  0.0791 -0.4337  0.1694
 3985SOL    HW113632   1.983   7.551   8.637 -0.4242 -0.0206  0.4692
 3985SOL    HW213633   1.835   7.551   8.603 -0.2962 -1.2478 -0.1186
 3986SOL     OW13634   0.473   1.813   5.614 -0.0772  0.2887  0.3603
 3986SOL    HW113635   0.381   1.831   5.592  0.3575  1.2561 -0.7128
 3986SOL    HW213636   0.469   1.766   5.697 -1.5228  0.8202  0.6025
 3987SOL     OW13637   8.597   4.260   2.583  0.0004 -0.0178 -0.3425
 3987SOL    HW113638   8.633   4.347   2.603  0.5869 -0.1711 -0.7093
 3987SOL    HW213639   8.621   4.207   2.659  1.0691 -0.2663 -0.8446
 3988SOL     OW13640   4.030   1.152   3.251 -0.6685 -0.5883  0.2321
 3988SOL    HW113641   3.947   1.168   3.297  0.6328  0.7722  2.1675
 3988SOL    HW213642   4.078   1.234   3.259  0.9404 -1.4198 -0.7246
 3989SOL     OW13643   0.524   8.103   3.381 -0.1865 -0.3649 -0.1509
 3989SOL    HW113644   0.540   8.014   3.349 -1.2341 -0.3222 -0.8240
 3989SOL    HW213645   0.433   8.120   3.359  0.0730  0.9643 -0.2257
 3990SOL     OW13646   2.881   6.233   9.212  0.0696 -0.2202 -0.3398
 3990SOL    HW113647   2.842   6.280   9.287 -0.4943 -0.7725 -0.2750
 3990SOL    HW213648   2.881   6.142   9.240  1.6754 -0.2021 -0.2444
 3991SOL     OW13649   6.605   6.009   7.300 -0.1064 -0.2933  0.2317
 3991SOL    HW113650   6.681   6.054   7.264  1.0466 -1.9436  0.5590
 3991SOL    HW213651   6.594   6.048   7.387  0.3375  0.0013  0.1588
 3992SOL     OW13652   0.453   4.087   2.179  0.5695 -0.0795 -0.2776
 3992SOL    HW113653   0.473   3.998   2.206  0.8273  0.1599  0.3394
 3992SOL    HW213654   0.368   4.081   2.136 -0.0011 -0.4225  0.8849
 3993SOL     OW13655   5.830   8.326   1.749  0.0457  0.1333 -0.0230
 3993SOL    HW113656   5.762   8.380   1.710  0.4022  0.9917  0.5221
 3993SOL    HW213657   5.783   8.268   1.809 -0.2284  0.5776  0.1943
 3994SOL     OW13658   5.338   0.374   5.905  0.2720 -0.3075  0.4761
 3994SOL    HW113659   5.322   0.330   5.822  0.1464  2.0310 -0.7662
 3994SOL    HW213660   5.377   0.458   5.882 -2.0738  1.4825  2.6013
 3995SOL     OW13661   8.138   7.026   5.147 -0.0766  0.2875  0.4892
 3995SOL    HW113662   8.232   7.044   5.148  0.2244 -0.9606 -1.5724
 3995SOL    HW213663   8.123   6.975   5.227  1.0630  0.1660  0.6399
 3996SOL     OW13664   8.992   5.999   8.864 -0.0552 -0.5461  0.4054
 3996SOL    HW113665   9.056   6.068   8.876 -0.0049 -0.3406 -0.9371
 3996SOL    HW213666   9.011   5.963   8.777 -2.4328  0.2518 -0.4951
 3997SOL     OW13667   8.119   1.730   8.998 -0.1568 -0.1686  0.1920
 3997SOL    HW113668   8.122   1.672   9.075 -0.2987  0.3527  0.5975
 3997SOL    HW213669   8.193   1.790   9.011  0.6734 -0.9584 -0.7966
 3998SOL     OW13670   2.484   7.402   7.034 -0.2239  0.2199  0.5006
 3998SOL    HW113671   2.443   7.442   6.957  2.4511  0.1172 -1.0513
 3998SOL    HW213672   2.481   7.308   7.017  1.5253  0.2687 -0.0861
 3999SOL     OW13673   0.097   8.673   1.434  0.4896 -0.4992  0.3484
 3999SOL    HW113674   0.159   8.654   1.505  0.8647 -1.9221 -0.3399
 3999SOL    HW213675   0.151   8.679   1.356  0.0309  0.7162  0.1153
 4000SOL     OW13676   2.680   8.643   6.792 -0.1899  0.5002  0.3606
 4000SOL    HW113677   2.650   8.734   6.791 -0.4755  0.4082 -0.4114
 4000SOL    HW213678   2.757   8.642   6.735  0.8799  0.5991  1.7887
 4001SOL     OW13679   1.195   2.188   5.791 -0.0074  0.7298 -0.0058
 4001SOL    HW113680   1.161   2.271   5.824 -0.0826  0.1590  1.3999
 4001SOL    HW213681   1.120   2.129   5.791 -0.1428  0.8714 -1.7996
 4002SOL     OW13682   6.277   4.261   3.632 -0.0405  0.7560  0.4569
 4002SOL    HW113683   6.317   4.340   3.595  3.0386 -0.3179  1.3322
 4002SOL    HW213684   6.270   4.280   3.726  0.4837  0.1014  0.6342
 4003SOL     OW13685   7.431   4.946   2.627 -0.1435  0.6636  0.4332
 4003SOL    HW113686   7.397   4.912   2.545 -0.3091  0.5161  0.5603
 4003SOL    HW213687   7.526   4.948   2.615  0.1786 -3.1416  1.6089
 4004SOL     OW13688   2.082   3.586   3.561  0.2547  0.1342 -0.5305
 4004SOL    HW113689   2.156   3.575   3.620 -0.1113 -0.8446 -0.2517
 4004SOL    HW213690   2.106   3.536   3.483 -0.7610 -1.4297  0.1516
 4005SOL     OW13691   1.032   4.409   4.852 -0.1598  0.2022 -0.1207
 4005SOL    HW113692   1.106   4.469   4.841 -0.9017  1.1613  0.0554
 4005SOL    HW213693   1.005   4.420   4.944 -0.3328 -0.3677 -0.0988
 4006SOL     OW13694   6.720   2.704   5.445  0.7501  0.1068  0.2230
 4006SOL    HW113695   6.805   2.746   5.429  1.4284 -1.4799 -0.3674
 4006SOL    HW213696   6.667   2.727   5.369  1.6468 -1.4330 -0.8919
 4007SOL     OW13697   6.547   5.664   2.784 -0.1050 -0.1128 -0.0608
 4007SOL    HW113698   6.631   5.659   2.830 -0.2931 -1.8018  0.1289
 4007SOL    HW213699   6.481   5.651   2.853 -0.4258 -1.4623 -0.5995
 4008SOL     OW13700   6.966   9.165   1.270 -0.0705  0.3489 -0.4747
 4008SOL    HW113701   6.897   9.203   1.324  0.8584  0.3710  0.7141
 4008SOL    HW213702   6.999   9.239   1.218 -0.8913  0.3522 -0.9962
 4009SOL     OW13703   2.236   2.413   5.503 -0.1851  0.3394  0.1087
 4009SOL    HW113704   2.307   2.354   5.475  0.3616  0.7858  0.5345
 4009SOL    HW213705   2.158   2.358   5.503  0.4866 -0.6630  1.5179
 4010SOL     OW13706   6.785   2.553   8.106  0.0988  0.0822  0.1659
 4010SOL    HW113707   6.820   2.593   8.186  1.5659 -1.4767  0.3417
 4010SOL    HW213708   6.863   2.530   8.056 -0.7980 -0.0079 -1.1981
 4011SOL     OW13709   3.985   4.213   8.104 -0.2927 -0.6074 -0.6562
 4011SOL    HW113710   4.057   4.259   8.061  0.3382 -0.8053  0.1569
 4011SOL    HW213711   3.923   4.281   8.129  1.2746 -0.0269  1.7568
 4012SOL     OW13712   1.393   6.635   8.647  0.1446  0.2805 -0.6354
 4012SOL    HW113713   1.462   6.698   8.629 -1.5208  2.5079  0.6222
 4012SOL    HW213714   1.324   6.655   8.583 -0.4671 -0.1167 -0.1160
 4013SOL     OW13715   3.636   1.168   5.692 -0.2999 -0.0936  0.1994
 4013SOL    HW113716   3.618   1.158   5.786 -1.7410  2.4371  0.2355
 4013SOL    HW213717   3.731   1.178   5.687 -0.3991  1.9348  1.6445
 4014SOL     OW13718   5.351   1.291   5.339 -0.0082  0.2192 -0.3921
 4014SOL    HW113719   5.373   1.339   5.418 -0.2461 -0.7931  0.2918
 4014SOL    HW213720   5.396   1.338   5.269  0.8495  0.6496  0.4441
 4015SOL     OW13721   1.551   7.597   1.041 -0.1271  0.5995  0.4638
 4015SOL    HW113722   1.460   7.567   1.038 -0.2852  1.1862 -1.3676
 4015SOL    HW213723   1.588   7.555   1.118 -1.9741  0.3985  1.2536
 4016SOL     OW13724   3.635   1.734   6.393 -0.4773  0.7324  0.0777
 4016SOL    HW113725   3.675   1.766   6.473  1.4672  0.8638 -0.9197
 4016SOL    HW213726   3.579   1.662   6.421  1.2832 -0.1570  1.3973
 4017SOL     OW13727   7.248   1.239   2.295  0.4549  0.3056  0.1744
 4017SOL    HW113728   7.306   1.306   2.331  0.9435 -0.0969  0.1361
 4017SOL    HW213729   7.238   1.175   2.365 -0.9179  0.9772  0.6107
 4018SOL     OW13730   6.783   5.752   6.666  0.0543 -0.0916  0.4244
 4018SOL    HW113731   6.843   5.821   6.638 -1.3146  1.2979  0.8244
 4018SOL    HW213732   6.718   5.747   6.596 -0.0918 -0.6858  0.5982
 4019SOL     OW13733   6.191   6.200   3.186  0.2760  0.0835  0.2693
 4019SOL    HW113734   6.184   6.125   3.244  0.7106 -1.2202 -1.3143
 4019SOL    HW213735   6.281   6.230   3.194  0.3264 -0.0751  0.2844
 4020SOL     OW13736   6.968   4.124   7.655 -0.5584  0.0332  0.4174
 4020SOL    HW113737   7.002   4.063   7.720  2.2051 -0.2150 -1.1624
 4020SOL    HW213738   7.023   4.202   7.664 -1.6015  0.8349 -0.1030
 4021SOL     OW13739   7.749   7.347   5.968  0.0491  0.5912 -0.0200
 4021SOL    HW113740   7.771   7.437   5.943 -3.0183  1.6151  0.7213
 4021SOL    HW213741   7.708   7.310   5.889 -3.1120  1.5068  1.0856
 4022SOL     OW13742   5.540   0.727   3.962 -0.5735  0.4433  0.1348
 4022SOL    HW113743   5.594   0.805   3.953 -1.0360  0.6176 -1.1939
 4022SOL    HW213744   5.599   0.661   3.997  0.4430  0.7107 -1.0417
 4023SOL     OW13745   0.761   6.356   4.725 -0.1291  0.0985  0.2033
 4023SOL    HW113746   0.838   6.306   4.700 -2.1066 -1.0739 -4.0185
 4023SOL    HW213747   0.723   6.308   4.798  1.9389 -0.4654  0.9412
 4024SOL     OW13748   1.012   1.492   4.210  0.7271  0.0775 -0.9141
 4024SOL    HW113749   1.033   1.433   4.137 -1.2117 -0.1130 -1.3306
 4024SOL    HW213750   0.925   1.526   4.189  0.9347  1.4538  0.3942
 4025SOL     OW13751   5.477   5.498   7.684 -0.4310  0.1980  0.3249
 4025SOL    HW113752   5.571   5.502   7.702 -0.2416  0.6994 -0.7633
 4025SOL    HW213753   5.448   5.589   7.690 -0.6058  0.2085 -0.6014
 4026SOL     OW13754   7.811   2.123   6.903 -0.1261  0.0418 -0.3523
 4026SOL    HW113755   7.898   2.135   6.867 -0.0230 -0.2477 -0.1978
 4026SOL    HW213756   7.783   2.038   6.871  0.6211 -0.9718  1.5811
 4027SOL     OW13757   3.016   4.715   0.101 -0.3643  0.2991 -0.2709
 4027SOL    HW113758   2.925   4.700   0.074 -0.2403 -0.7317 -0.1381
 4027SOL    HW213759   3.065   4.642   0.062  0.1476 -0.0562  1.0072
 4028SOL     OW13760   0.411   2.746   4.566 -0.0462  0.4962 -0.1233
 4028SOL    HW113761   0.452   2.720   4.483 -1.3955 -0.3901 -0.5363
 4028SOL    HW213762   0.319   2.722   4.555 -0.3922  1.1357  1.3282
 4029SOL     OW13763   1.784   2.427   3.138 -0.0030 -0.2031  0.8502
 4029SOL    HW113764   1.792   2.400   3.046 -0.2589 -1.2060  1.1192
 4029SOL    HW213765   1.836   2.364   3.186 -1.7482 -1.0845  1.6276
 4030SOL     OW13766   1.517   3.458   6.757  0.3920 -0.2082  0.1025
 4030SOL    HW113767   1.570   3.380   6.772  0.3258  0.2872  3.1296
 4030SOL    HW213768   1.431   3.436   6.792  0.1439  0.9341  0.2335
 4031SOL     OW13769   8.072   2.328   4.655 -0.8845  0.2512 -0.3723
 4031SOL    HW113770   8.123   2.303   4.732 -2.5562 -1.0911  0.3187
 4031SOL    HW213771   8.036   2.414   4.677  0.0264  0.6433 -0.3644
 4032SOL     OW13772   5.277   5.444   2.528 -0.2890  0.3052 -0.2853
 4032SOL    HW113773   5.319   5.422   2.611 -1.8927  1.5659  0.9170
 4032SOL    HW213774   5.347   5.476   2.472  0.7184  0.1082  0.8519
 4033SOL     OW13775   2.545   6.434   7.675  0.5593  0.0323 -0.1221
 4033SOL    HW113776   2.466   6.460   7.721  1.3792  1.3931  0.5193
 4033SOL    HW213777   2.586   6.516   7.648  1.9289 -0.6485 -0.1631
 4034SOL     OW13778   8.681   2.983   0.076  0.0639  0.6134 -0.4107
 4034SOL    HW113779   8.762   2.982   0.025 -0.0414  2.4895 -0.6612
 4034SOL    HW213780   8.708   3.011   0.164 -0.5361  3.0095 -0.9640
 4035SOL     OW13781   6.327   7.691   1.643 -0.2675  0.3437 -0.3607
 4035SOL    HW113782   6.287   7.778   1.650  0.2898  0.7204 -1.4983
 4035SOL    HW213783   6.254   7.631   1.636 -0.6534  0.9416 -1.6230
 4036SOL     OW13784   0.576   3.086   2.842 -0.2592  0.1044  0.0674
 4036SOL    HW113785   0.492   3.101   2.798 -0.1235  1.1841  0.1653
 4036SOL    HW213786   0.634   3.057   2.772  0.0328  2.1116 -0.5442
 4037SOL     OW13787   1.231   1.939   2.210 -0.1627  0.2381  0.0826
 4037SOL    HW113788   1.287   1.863   2.222  1.4400  1.4934  0.6801
 4037SOL    HW213789   1.289   2.006   2.173 -1.3734  1.4002  0.2580
 4038SOL     OW13790   4.253   6.429   9.003 -0.6431 -0.1811 -0.1640
 4038SOL    HW113791   4.251   6.342   9.043 -1.9486  0.2265  0.6987
 4038SOL    HW213792   4.164   6.441   8.970 -1.0924  1.6690  1.6079
 4039SOL     OW13793   6.942   3.481   5.493 -0.4951  0.6728 -0.4698
 4039SOL    HW113794   6.867   3.477   5.434 -0.0812 -0.8939 -0.9181
 4039SOL    HW213795   6.955   3.390   5.522 -0.6703  1.3970  2.0094
 4040SOL     OW13796   3.973   2.752   5.239  0.0250 -0.1372  0.3618
 4040SOL    HW113797   4.046   2.813   5.229 -0.5026  0.3257 -0.7168
 4040SOL    HW213798   3.932   2.778   5.322 -0.6575  1.5027 -0.4600
 4041SOL     OW13799   6.057   3.818   0.585 -0.6374 -0.5199 -0.0863
 4041SOL    HW113800   6.034   3.726   0.600 -2.5803  0.2127  1.5701
 4041SOL    HW213801   6.133   3.814   0.527 -0.7049 -3.1712 -0.0532
 4042SOL     OW13802   4.699   3.247   5.232  0.2335  0.0575 -0.0776
 4042SOL    HW113803   4.653   3.323   5.268 -1.6907 -1.3412  0.4994
 4042SOL    HW213804   4.765   3.225   5.297 -1.7514 -1.1017  1.5694
 4043SOL     OW13805   4.355   0.291   3.420 -0.0837  0.3119  0.1920
 4043SOL    HW113806   4.379   0.285   3.328  0.0599  0.6716  0.2026
 4043SOL    HW213807   4.367   0.203   3.455 -2.0260 -0.2713 -0.5886
 4044SOL     OW13808   1.570   4.014   7.904  0.0000 -0.6128  0.6978
 4044SOL    HW113809   1.560   4.080   7.973 -1.2073 -0.0303 -0.0097
 4044SOL    HW213810   1.515   4.046   7.832 -0.7925 -2.5104  0.4345
 4045SOL     OW13811   5.966   8.808   7.047 -0.1682  0.0197  0.2207
 4045SOL    HW113812   5.957   8.734   6.987 -2.2161 -0.4014  1.0159
 4045SOL    HW213813   6.046   8.853   7.018 -0.6586 -0.6489 -2.2422
 4046SOL     OW13814   2.560   8.158   6.007  0.3551  0.4680  0.3157
 4046SOL    HW113815   2.567   8.124   5.918  0.6974 -0.3938  0.6617
 4046SOL    HW213816   2.467   8.178   6.018 -0.1257 -1.7402  0.5801
 4047SOL     OW13817   4.392   2.517   0.322  0.3024 -0.3122  0.5052
 4047SOL    HW113818   4.306   2.549   0.347  0.5915  1.3321 -0.5197
 4047SOL    HW213819   4.445   2.596   0.311  1.6889 -1.2548  0.2266
 4048SOL     OW13820   2.082   3.560   4.440 -0.0752  0.0587 -0.2574
 4048SOL    HW113821   2.029   3.560   4.519 -1.1528 -1.4375 -0.9634
 4048SOL    HW213822   2.064   3.476   4.399  2.2973 -0.1672 -0.8928
 4049SOL     OW13823   7.930   9.045   3.097 -0.2870  0.3875 -0.2433
 4049SOL    HW113824   8.006   9.003   3.057 -0.3360  0.8026 -0.7761
 4049SOL    HW213825   7.966   9.115   3.152 -0.2599  0.2458 -0.0782
 4050SOL     OW13826   2.399   9.028   9.133  0.6967  0.1042 -0.2275
 4050SOL    HW113827   2.472   9.009   9.192  0.4059  0.5709  0.2877
 4050SOL    HW213828   2.333   9.069   9.189  0.2396  0.1395 -0.7894
 4051SOL     OW13829   3.829   0.828   0.923  0.2085 -0.2103  0.2113
 4051SOL    HW113830   3.775   0.763   0.968  0.7397 -0.6949  0.1491
 4051SOL    HW213831   3.776   0.908   0.925 -0.1321 -0.4453  0.9464
 4052SOL     OW13832   0.399   7.601   5.845 -0.5080 -0.2876 -0.2471
 4052SOL    HW113833   0.426   7.531   5.904  1.3967 -0.3439 -1.1417
 4052SOL    HW213834   0.458   7.593   5.770  1.4719  3.7800  0.7365
 4053SOL     OW13835   1.719   6.958   4.589 -0.7602 -0.3619  0.1738
 4053SOL    HW113836   1.798   7.012   4.590  0.7414 -2.4492 -1.3402
 4053SOL    HW213837   1.689   6.959   4.680  1.1650  0.2566  0.8315
 4054SOL     OW13838   8.039   7.906   3.224  0.0837  0.0585 -0.2833
 4054SOL    HW113839   7.997   7.958   3.291 -0.2144  1.5598 -1.6079
 4054SOL    HW213840   8.114   7.865   3.268 -0.6322  0.2994  1.1603
 4055SOL     OW13841   1.221   5.332   1.859 -0.1679  0.2572 -0.2325
 4055SOL    HW113842   1.140   5.297   1.896  0.7189 -2.2215 -0.5197
 4055SOL    HW213843   1.253   5.262   1.801  3.3360  0.1796  1.6555
 4056SOL     OW13844   1.238   2.059   1.269 -0.0841  0.0035  0.4973
 4056SOL    HW113845   1.202   2.092   1.351 -0.4792  2.7123 -0.7096
 4056SOL    HW213846   1.162   2.033   1.217 -0.4358  4.5380 -1.5486
 4057SOL     OW13847   3.105   1.983   1.674 -0.3511 -0.2888  0.0677
 4057SOL    HW113848   3.139   2.018   1.757 -2.0611 -1.1278  1.1572
 4057SOL    HW213849   3.067   1.899   1.698 -0.0715 -0.9396 -1.7615
 4058SOL     OW13850   3.806   6.347   1.855 -0.4208  0.4980  0.3377
 4058SOL    HW113851   3.784   6.339   1.948  0.1573  1.3376  0.5541
 4058SOL    HW213852   3.892   6.389   1.854  0.7424 -1.8301 -0.5050
 4059SOL     OW13853   2.428   4.169   3.326 -0.0527 -0.4381 -0.1409
 4059SOL    HW113854   2.340   4.147   3.293  0.3353 -1.5450 -0.4435
 4059SOL    HW213855   2.430   4.133   3.415 -0.8463  1.9349  0.8899
 4060SOL     OW13856   8.875   7.803   1.027  0.0401  0.4436 -0.2931
 4060SOL    HW113857   8.876   7.719   1.074 -1.3986  0.1490 -0.7717
 4060SOL    HW213858   8.968   7.823   1.013  0.4209 -0.7059  0.4631
 4061SOL     OW13859   1.323   3.510   8.688  0.1356  0.0831  0.1997
 4061SOL    HW113860   1.263   3.465   8.748  1.0650 -1.0014  0.3470
 4061SOL    HW213861   1.358   3.583   8.739  0.3212 -0.3665  0.7232
 4062SOL     OW13862   7.706   3.716   3.510 -0.2235  0.2943  0.4193
 4062SOL    HW113863   7.651   3.641   3.529 -0.6404  0.5481  0.2127
 4062SOL    HW213864   7.792   3.693   3.546 -0.1122 -0.6519 -0.4255
 4063SOL     OW13865   2.912   7.842   3.735  0.7636 -0.2780  0.2904
 4063SOL    HW113866   2.861   7.912   3.696  0.7038 -1.2670 -1.4578
 4063SOL    HW213867   2.912   7.861   3.829 -1.9193  0.3246  0.1988
 4064SOL     OW13868   4.861   8.295   6.358  0.0775 -0.1250  0.0356
 4064SOL    HW113869   4.774   8.274   6.325 -0.0752  0.1635  0.2605
 4064SOL    HW213870   4.868   8.390   6.350  0.1697 -0.0904  0.5161
 4065SOL     OW13871   1.989   7.327   4.306 -0.4593  0.5025  0.3378
 4065SOL    HW113872   1.919   7.344   4.242 -1.5214 -0.5581  1.1839
 4065SOL    HW213873   2.060   7.290   4.254 -1.6177 -1.1182 -0.1638
 4066SOL     OW13874   8.398   7.099   7.074 -0.7310  0.0023 -0.3712
 4066SOL    HW113875   8.339   7.170   7.048 -1.7502 -0.7718 -0.1821
 4066SOL    HW213876   8.366   7.071   7.159 -1.4827 -1.9355 -1.2692
 4067SOL     OW13877   0.439   3.300   5.137 -0.2020  0.1428 -0.3933
 4067SOL    HW113878   0.501   3.356   5.183  1.1499 -0.7906 -1.0409
 4067SOL    HW213879   0.493   3.231   5.098 -1.4312  0.3072 -2.4799
 4068SOL     OW13880   8.929   3.632   5.669  0.4112  0.2861 -0.0709
 4068SOL    HW113881   8.935   3.722   5.699  0.5275  0.7550 -1.4598
 4068SOL    HW213882   9.020   3.605   5.654  0.3069  0.4980 -1.2033
 4069SOL     OW13883   1.485   1.093   3.096 -0.1579 -0.2476 -1.1354
 4069SOL    HW113884   1.435   1.147   3.035 -2.4512 -2.5626 -1.4049
 4069SOL    HW213885   1.560   1.063   3.046  0.2740  1.3603 -1.4677
 4070SOL     OW13886   5.025   7.948   7.378  0.0075  0.2825 -0.0680
 4070SOL    HW113887   4.953   7.987   7.329  0.1628  2.1440  1.1408
 4070SOL    HW213888   5.101   7.955   7.319 -0.4761 -0.4000 -0.7861
 4071SOL     OW13889   3.065   0.245   8.813 -0.3740  0.3347  0.0287
 4071SOL    HW113890   3.044   0.230   8.721 -0.4123 -2.0691  0.3903
 4071SOL    HW213891   3.138   0.307   8.812 -0.4507  0.4229 -1.6043
 4072SOL     OW13892   0.677   8.342   1.837 -0.6642  0.1287 -0.3597
 4072SOL    HW113893   0.758   8.391   1.824 -0.6354 -0.3298 -2.0278
 4072SOL    HW213894   0.684   8.309   1.926  1.1488 -0.1685 -0.5805
 4073SOL     OW13895   5.360   1.739   8.304  0.0928  0.5667 -0.4201
 4073SOL    HW113896   5.322   1.696   8.380  0.6780 -0.3627 -0.6454
 4073SOL    HW213897   5.288   1.746   8.241  0.1639 -0.7275 -0.6548
 4074SOL     OW13898   9.005   7.356   4.295  0.0495  1.0155 -0.1302
 4074SOL    HW113899   8.911   7.338   4.294  0.3307 -0.5780  0.9084
 4074SOL    HW213900   9.041   7.300   4.227  0.7054 -1.2200  1.9762
 4075SOL     OW13901   0.509   7.210   4.073 -0.1404 -0.1362  0.3776
 4075SOL    HW113902   0.455   7.142   4.113 -0.1864  0.6199  1.6084
 4075SOL    HW213903   0.465   7.228   3.989 -0.1430 -1.5810  0.0482
 4076SOL     OW13904   7.329   8.590   9.260 -0.4684 -0.1688 -0.3031
 4076SOL    HW113905   7.236   8.573   9.244 -0.5372 -1.0639  0.9653
 4076SOL    HW213906   7.364   8.615   9.175 -1.3911 -2.1136 -1.2953
 4077SOL     OW13907   2.893   1.382   0.306 -0.2099  0.0959  0.6077
 4077SOL    HW113908   2.894   1.299   0.352  1.4072  0.6224  1.5591
 4077SOL    HW213909   2.947   1.367   0.228 -0.6779 -0.0124  0.3058
 4078SOL     OW13910   1.264   2.061   3.284  0.3498 -0.0224  0.3377
 4078SOL    HW113911   1.215   2.110   3.350  1.4399 -1.7448  2.4921
 4078SOL    HW213912   1.228   1.972   3.288  0.4576 -0.1592 -1.3869
 4079SOL     OW13913   6.611   3.600   6.449 -0.0812 -0.1118 -0.0501
 4079SOL    HW113914   6.560   3.542   6.505 -0.1770  0.8899  0.9259
 4079SOL    HW213915   6.631   3.547   6.372  0.2780 -1.6162  1.0387
 4080SOL     OW13916   3.464   0.148   1.167 -0.2911  0.3858 -0.2489
 4080SOL    HW113917   3.505   0.108   1.090  0.7219 -0.5206  0.7454
 4080SOL    HW213918   3.392   0.200   1.131  0.2982  0.1519 -1.8299
 4081SOL     OW13919   1.929   5.756   9.200 -0.2765  0.3584 -0.4490
 4081SOL    HW113920   1.951   5.803   9.120 -0.7034 -0.2826 -0.9460
 4081SOL    HW213921   1.965   5.810   9.270  0.8938  0.4522 -1.1228
 4082SOL     OW13922   6.275   2.859   6.972  0.5379 -0.3231  0.1497
 4082SOL    HW113923   6.322   2.839   6.891  2.2298 -0.8480  1.2199
 4082SOL    HW213924   6.299   2.949   6.993 -1.8792  0.6732 -1.2196
 4083SOL     OW13925   2.366   3.712   7.096 -0.2393 -0.2498 -0.0658
 4083SOL    HW113926   2.430   3.692   7.164  0.5494  0.7187 -0.5156
 4083SOL    HW213927   2.409   3.777   7.040 -1.1202 -0.5582 -1.1202
 4084SOL     OW13928   1.190   7.735   5.741  0.5882  0.2052 -0.6854
 4084SOL    HW113929   1.237   7.655   5.716  1.0495  0.2717 -0.0332
 4084SOL    HW213930   1.240   7.771   5.814 -0.7616  0.0141  0.3569
 4085SOL     OW13931   3.875   8.223   4.028 -0.6566 -0.4347 -0.5566
 4085SOL    HW113932   3.825   8.184   4.100 -0.5628  0.1235 -0.1874
 4085SOL    HW213933   3.963   8.233   4.063 -0.7560  0.4019 -0.5436
 4086SOL     OW13934   0.628   7.713   4.746 -0.3020 -0.3554  0.7602
 4086SOL    HW113935   0.533   7.712   4.763 -0.6476 -1.2912 -1.1406
 4086SOL    HW213936   0.653   7.621   4.749  0.3530 -0.1933  0.1661
 4087SOL     OW13937   0.878   3.315   2.435 -0.3808 -0.1346  0.2885
 4087SOL    HW113938   0.900   3.250   2.368 -2.6087  1.2178 -1.8609
 4087SOL    HW213939   0.927   3.393   2.410  1.8306 -0.7569  2.5275
 4088SOL     OW13940   8.625   6.456   0.876  0.3957 -0.2891  0.1114
 4088SOL    HW113941   8.569   6.382   0.897 -0.9619 -0.0950 -2.5719
 4088SOL    HW213942   8.698   6.418   0.827  1.6374 -0.2914  1.9205
 4089SOL     OW13943   3.866   4.389   0.116 -0.6541 -0.1102 -0.0582
 4089SOL    HW113944   3.772   4.389   0.134 -0.5634  0.5519  0.4134
 4089SOL    HW213945   3.906   4.358   0.197 -0.3330  1.5817  0.4424
 4090SOL     OW13946   5.919   0.419   7.501 -0.4789 -0.0007 -0.7459
 4090SOL    HW113947   5.998   0.455   7.459  0.1886 -0.4491  0.1086
 4090SOL    HW213948   5.944   0.408   7.592 -2.1653  1.6796 -0.0530
 4091SOL     OW13949   5.667   1.479   8.561 -0.1675  0.3897 -0.5541
 4091SOL    HW113950   5.639   1.391   8.586  1.7272 -0.0399  0.1056
 4091SOL    HW213951   5.754   1.488   8.599  0.3147  1.9613 -1.9879
 4092SOL     OW13952   0.828   3.915   5.740  0.0579 -0.7268 -0.0406
 4092SOL    HW113953   0.882   3.919   5.819  0.4845 -1.8116 -0.2737
 4092SOL    HW213954   0.766   3.987   5.750 -0.1826 -1.1283  1.4875
 4093SOL     OW13955   7.553   1.937   1.825  0.0533 -0.0614  0.0413
 4093SOL    HW113956   7.613   1.929   1.751 -0.9291  0.4805 -0.8275
 4093SOL    HW213957   7.590   2.007   1.879 -0.2917  0.9037 -0.9728
 4094SOL     OW13958   4.462   6.369   7.640  0.0372  0.2793  0.0446
 4094SOL    HW113959   4.549   6.402   7.618 -0.1770  0.6133 -0.2977
 4094SOL    HW213960   4.451   6.389   7.733 -0.1148  1.2177 -0.1739
 4095SOL     OW13961   1.042   7.133   6.070 -0.0373  0.1066  0.4997
 4095SOL    HW113962   1.098   7.199   6.109 -0.4508 -0.3753  1.9404
 4095SOL    HW213963   1.079   7.050   6.099  0.6888 -0.3145 -1.5901
 4096SOL     OW13964   3.550   4.315   8.822  0.1605  0.4272  0.6809
 4096SOL    HW113965   3.615   4.252   8.853 -0.6144 -0.4817  0.4775
 4096SOL    HW213966   3.544   4.380   8.892  1.2882  0.5317  0.6956
 4097SOL     OW13967   2.976   4.321   1.532  0.1360 -0.3757 -0.6299
 4097SOL    HW113968   3.052   4.303   1.587  0.9128  0.7932 -1.2936
 4097SOL    HW213969   3.010   4.372   1.459 -0.8759 -2.0070 -2.2785
 4098SOL     OW13970   3.341   2.922   0.990 -0.5044 -0.0253  0.1307
 4098SOL    HW113971   3.264   2.869   0.971 -0.3343 -0.0653 -0.4547
 4098SOL    HW213972   3.369   2.894   1.077 -0.6807 -0.5716  0.0123
 4099SOL     OW13973   6.047   7.154   4.944 -0.5756  0.2141 -0.0871
 4099SOL    HW113974   5.993   7.075   4.932 -0.0010 -0.2914  0.6612
 4099SOL    HW213975   6.069   7.154   5.037  0.7956  0.3711 -0.4093
 4100SOL     OW13976   8.782   1.160   0.046 -0.4059  0.6341 -0.1788
 4100SOL    HW113977   8.702   1.212   0.038 -2.2151 -2.0097 -0.2808
 4100SOL    HW213978   8.825   1.193   0.125 -1.9512  1.6406  0.2626
 4101SOL     OW13979   5.511   6.970   8.100 -0.9632 -0.1142 -0.1992
 4101SOL    HW113980   5.563   7.024   8.159 -0.0157 -1.8874  0.6287
 4101SOL    HW213981   5.427   6.958   8.145 -0.8456 -0.0875  0.0256
 4102SOL     OW13982   2.578   0.852   2.726  0.0221  0.0055  0.0617
 4102SOL    HW113983   2.564   0.758   2.715  1.1219 -0.3258  1.3728
 4102SOL    HW213984   2.597   0.884   2.638  2.1972 -1.4410 -0.0216
 4103SOL     OW13985   6.760   4.376   8.627  0.0339  0.2297  0.9114
 4103SOL    HW113986   6.697   4.305   8.645  0.9606 -0.8115  0.1273
 4103SOL    HW213987   6.834   4.332   8.585  0.7206  1.6445  0.6153
 4104SOL     OW13988   6.775   6.083   6.254 -0.2464 -0.5005 -0.0065
 4104SOL    HW113989   6.833   6.079   6.330 -2.3176 -2.2354  1.5762
 4104SOL    HW213990   6.718   6.158   6.271 -1.1857 -1.3199  0.5650
 4105SOL     OW13991   4.180   4.992   3.568 -0.2894 -0.1090 -0.1544
 4105SOL    HW113992   4.246   5.044   3.612  0.3805 -0.5351 -0.6512
 4105SOL    HW213993   4.208   4.988   3.477 -0.8642 -0.4991 -0.3219
 4106SOL     OW13994   8.458   1.291   0.279  0.2862 -0.3476 -0.7353
 4106SOL    HW113995   8.498   1.292   0.366  1.3397 -1.4630 -1.1999
 4106SOL    HW213996   8.423   1.203   0.270 -0.5033 -0.0005 -1.1542
 4107SOL     OW13997   8.395   7.316   7.291  0.3809  0.2215  0.2245
 4107SOL    HW113998   8.472   7.292   7.240  0.1910  1.0093 -0.4665
 4107SOL    HW213999   8.373   7.237   7.341  1.0817 -0.2985 -0.2730
 4108SOL     OW14000   6.362   2.666   4.033  0.5145  0.2446 -0.2391
 4108SOL    HW114001   6.353   2.752   3.992  0.1689  0.9110  1.2343
 4108SOL    HW214002   6.275   2.627   4.028  0.4033  0.4457  0.1263
 4109SOL     OW14003   7.946   9.270   3.437  0.5279 -0.5505  0.0164
 4109SOL    HW114004   7.989   9.290   3.520 -0.7610 -0.8442  0.7709
 4109SOL    HW214005   7.865   9.225   3.462  0.2881 -0.9363 -1.4094
 4110SOL     OW14006   5.155   4.351   7.430 -0.2887 -0.3003  0.5109
 4110SOL    HW114007   5.229   4.334   7.489  0.4198  0.1986 -0.2258
 4110SOL    HW214008   5.151   4.273   7.374  1.6919  1.0201 -1.5382
 4111SOL     OW14009   6.235   6.762   8.509 -0.1215  0.0222  0.1862
 4111SOL    HW114010   6.151   6.782   8.469  0.1045 -1.3748 -1.0270
 4111SOL    HW214011   6.279   6.847   8.518 -0.5906  0.4617 -1.5812
 4112SOL     OW14012   3.554   6.203   3.690  0.5931 -0.5639 -0.2496
 4112SOL    HW114013   3.642   6.241   3.692  1.1791 -1.8860 -0.4932
 4112SOL    HW214014   3.518   6.220   3.777  0.4093  1.5219 -0.7085
 4113SOL     OW14015   0.586   3.822   1.667  0.6587 -0.0767  0.1203
 4113SOL    HW114016   0.651   3.756   1.644  0.5501  0.0762 -0.6346
 4113SOL    HW214017   0.621   3.904   1.630 -0.0418 -0.0252 -0.4187
 4114SOL     OW14018   6.523   7.042   6.784 -0.1488 -0.8596 -0.0695
 4114SOL    HW114019   6.459   6.987   6.740  0.1523  0.7881 -2.6928
 4114SOL    HW214020   6.482   7.129   6.787  1.0107 -0.3083  0.2963
 4115SOL     OW14021   7.732   8.166   4.378 -0.7349 -0.1840  0.3779
 4115SOL    HW114022   7.824   8.179   4.355 -0.8189 -0.0063  0.1378
 4115SOL    HW214023   7.734   8.100   4.447 -0.3950  0.1201  0.6652
 4116SOL     OW14024   0.167   7.950   4.982  0.2603  0.2172 -0.1375
 4116SOL    HW114025   0.210   7.962   4.897  3.1573 -1.5053  1.0049
 4116SOL    HW214026   0.142   7.858   4.982  0.5992  0.1195  0.9868
 4117SOL     OW14027   4.448   1.338   0.592 -0.3180  0.4218 -0.3755
 4117SOL    HW114028   4.451   1.395   0.669  0.9849 -1.4320  0.9809
 4117SOL    HW214029   4.361   1.299   0.595  0.4758 -1.2941  1.4147
 4118SOL     OW14030   0.885   8.590   1.709 -0.0767 -0.1614 -0.7667
 4118SOL    HW114031   0.893   8.670   1.761  3.4513 -0.6781 -0.3850
 4118SOL    HW214032   0.912   8.615   1.621 -2.4288 -0.1554 -1.5203
 4119SOL     OW14033   7.214   8.465   8.100  0.2612  0.2304  0.4613
 4119SOL    HW114034   7.199   8.557   8.080  2.0487  0.6474  0.9742
 4119SOL    HW214035   7.199   8.458   8.194  2.1011  0.4194  0.7773
 4120SOL     OW14036   1.794   3.381   0.023 -0.0715 -0.2963 -0.3263
 4120SOL    HW114037   1.706   3.414   0.011 -0.0692  0.0988  0.6914
 4120SOL    HW214038   1.788   3.322   0.098  1.3496  3.1416  2.6668
 4121SOL     OW14039   8.055   0.143   0.440 -0.4558  0.8352  0.2104
 4121SOL    HW114040   8.007   0.213   0.396 -0.4147  1.0718  0.5482
 4121SOL    HW214041   8.014   0.136   0.526 -1.9664 -1.0790 -0.6147
 4122SOL     OW14042   1.298   0.157   1.707  0.2674  0.6479  0.1904
 4122SOL    HW114043   1.233   0.227   1.711  1.5611  1.8020  1.4253
 4122SOL    HW214044   1.297   0.117   1.794  1.2700  0.7543  0.2625
 4123SOL     OW14045   7.258   3.809   2.444  0.3784 -0.2526 -0.3362
 4123SOL    HW114046   7.216   3.879   2.494  1.2625 -0.0423  0.1206
 4123SOL    HW214047   7.248   3.836   2.352 -1.5814 -0.8262 -0.3186
 4124SOL     OW14048   7.864   7.187   6.582 -0.3944  0.0712  0.0686
 4124SOL    HW114049   7.817   7.104   6.577 -2.1954  1.0217  0.7104
 4124SOL    HW214050   7.815   7.238   6.645  1.2245  1.3059  0.3558
 4125SOL     OW14051   5.180   2.858   6.743 -0.3331  0.2184 -0.0653
 4125SOL    HW114052   5.218   2.941   6.714  0.0250  0.1173  0.1040
 4125SOL    HW214053   5.233   2.791   6.700  0.1454  0.0673  0.7360
 4126SOL     OW14054   2.223   1.489   0.649  0.1147 -0.2312 -0.3422
 4126SOL    HW114055   2.284   1.561   0.664  1.0862 -1.3491  1.2826
 4126SOL    HW214056   2.164   1.491   0.725  1.1357 -2.0765  0.5620
 4127SOL     OW14057   6.299   2.424   7.335  0.0431  0.5282  0.0395
 4127SOL    HW114058   6.274   2.513   7.359 -0.0446  0.7487 -0.8807
 4127SOL    HW214059   6.248   2.368   7.394  0.5904  1.0983  1.0729
 4128SOL     OW14060   0.902   1.538   1.039  0.2494 -0.6250  0.5174
 4128SOL    HW114061   0.890   1.475   1.111 -0.2869 -0.3025  0.7130
 4128SOL    HW214062   0.969   1.498   0.983  1.2160 -0.5379  1.5911
 4129SOL     OW14063   4.407   7.269   0.677  0.2262  0.1432  0.3995
 4129SOL    HW114064   4.425   7.198   0.739 -0.0416  0.6763  1.0954
 4129SOL    HW214065   4.312   7.281   0.682  0.2414  0.3958  0.1109
 4130SOL     OW14066   0.702   8.105   0.233  0.0848 -0.7223  0.4018
 4130SOL    HW114067   0.615   8.127   0.200  0.0727  0.8065  1.3919
 4130SOL    HW214068   0.686   8.062   0.317  0.2972  0.0967  0.8658
 4131SOL     OW14069   5.626   8.481   6.880  0.1037  0.4568 -0.4002
 4131SOL    HW114070   5.664   8.445   6.960 -1.0187  1.7777  0.7517
 4131SOL    HW214071   5.539   8.442   6.875  0.3066  0.0972 -1.1805
 4132SOL     OW14072   4.264   7.927   5.773 -0.1366 -0.4800 -0.4868
 4132SOL    HW114073   4.212   7.848   5.786 -0.6152  0.1176  1.4347
 4132SOL    HW214074   4.211   7.981   5.716 -1.7381  0.1664  1.5299
 4133SOL     OW14075   6.660   7.575   3.160  1.5432 -0.5400 -0.1161
 4133SOL    HW114076   6.747   7.535   3.157  2.1067  0.5230  1.2910
 4133SOL    HW214077   6.668   7.645   3.226  0.4406  1.5004 -2.0687
 4134SOL     OW14078   4.792   7.977   9.287  0.0470  0.3450  0.4625
 4134SOL    HW114079   4.801   7.914   9.359 -1.9324  0.0248  0.4347
 4134SOL    HW214080   4.771   8.060   9.331  0.3633  0.4887  0.3442
 4135SOL     OW14081   2.554   0.083   6.432 -0.4811  0.8811 -0.3745
 4135SOL    HW114082   2.471   0.098   6.476 -1.0465 -1.8492 -0.4111
 4135SOL    HW214083   2.614   0.058   6.502 -0.6575 -0.7022 -0.7637
 4136SOL     OW14084   0.221   5.358   2.153 -0.1827  0.2298 -0.5145
 4136SOL    HW114085   0.131   5.391   2.147 -0.5133 -0.2889  1.1689
 4136SOL    HW214086   0.211   5.265   2.176  0.7787  0.1552 -0.3813
 4137SOL     OW14087   1.958   2.855   8.686 -0.0572  0.0406  0.5276
 4137SOL    HW114088   2.043   2.827   8.720  0.2166  0.5594  0.2787
 4137SOL    HW214089   1.896   2.833   8.755  0.4599  0.8526  1.2570
 4138SOL     OW14090   7.066   3.620   0.484  0.0676 -0.5052 -0.1660
 4138SOL    HW114091   7.008   3.673   0.539 -0.6262 -0.6943 -0.6954
 4138SOL    HW214092   7.146   3.610   0.535 -0.4477 -0.4163  0.6673
 4139SOL     OW14093   1.224   1.277   2.144 -0.3365 -0.3467 -0.3381
 4139SOL    HW114094   1.149   1.298   2.199 -0.2735 -1.7762  0.3012
 4139SOL    HW214095   1.199   1.305   2.056 -1.2427  0.0419  0.0485
 4140SOL     OW14096   8.257   0.664   3.248  0.0300  0.4154 -0.0099
 4140SOL    HW114097   8.283   0.712   3.327 -0.0053 -0.8991  0.8171
 4140SOL    HW214098   8.173   0.703   3.224 -0.4983  0.0965  1.2530
 4141SOL     OW14099   6.335   8.380   6.672  0.0286 -0.3456 -0.4637
 4141SOL    HW114100   6.354   8.367   6.765  1.4647 -4.1244 -1.2199
 4141SOL    HW214101   6.387   8.457   6.647  1.9247 -1.0736  1.1614
 4142SOL     OW14102   4.232   7.754   7.411  0.0585  0.5408 -0.0957
 4142SOL    HW114103   4.201   7.669   7.380 -1.3087  1.1254 -0.3725
 4142SOL    HW214104   4.327   7.744   7.418 -0.0775 -0.9636 -0.2484
 4143SOL     OW14105   6.133   3.658   2.189  0.0696 -0.0235 -0.6696
 4143SOL    HW114106   6.065   3.708   2.234  0.3029  0.7244 -1.1463
 4143SOL    HW214107   6.125   3.569   2.224 -0.1007  0.4316  0.4483
 4144SOL     OW14108   3.837   0.595   8.966 -0.1970  0.3566  0.2673
 4144SOL    HW114109   3.912   0.633   9.011 -0.9543  0.3685  1.5387
 4144SOL    HW214110   3.848   0.501   8.976 -0.5747  0.3703  0.8282
 4145SOL     OW14111   8.212   7.317   4.962  0.4739  0.0756  0.0735
 4145SOL    HW114112   8.294   7.344   4.921  0.9452  0.3794  1.1945
 4145SOL    HW214113   8.193   7.231   4.923  1.2293  0.0772 -0.3161
 4146SOL     OW14114   5.517   1.213   2.750 -0.4931 -0.0043  0.0713
 4146SOL    HW114115   5.531   1.307   2.758 -0.6553 -0.0812  1.2949
 4146SOL    HW214116   5.428   1.199   2.783 -0.6162 -0.5376 -0.4734
 4147SOL     OW14117   6.364   4.157   8.107  0.0342  0.0062  0.0786
 4147SOL    HW114118   6.435   4.222   8.110  1.3811 -1.4569  0.7095
 4147SOL    HW214119   6.340   4.153   8.015  1.8982 -0.6289 -0.4130
 4148SOL     OW14120   3.158   5.493   0.428 -0.8185 -0.1976 -0.3558
 4148SOL    HW114121   3.240   5.473   0.384 -0.7596 -0.1514 -0.2672
 4148SOL    HW214122   3.125   5.408   0.459  0.5472  0.0808  1.9947
 4149SOL     OW14123   0.014   0.399   1.049 -0.3896 -0.0437 -0.4386
 4149SOL    HW114124  -0.009   0.398   1.142 -1.2327 -1.7363 -0.6585
 4149SOL    HW214125   0.090   0.457   1.044 -1.9308  2.2023  0.9268
 4150SOL     OW14126   5.642   1.277   7.130 -0.2986  0.3476  0.5085
 4150SOL    HW114127   5.673   1.229   7.206 -1.6073  0.0166  0.8434
 4150SOL    HW214128   5.612   1.361   7.165 -1.2697  0.0432  0.4303
 4151SOL     OW14129   3.966   6.058   1.895 -0.3728 -0.0455 -0.1226
 4151SOL    HW114130   4.037   6.073   1.957  0.1502 -1.1549 -0.4483
 4151SOL    HW214131   3.982   6.120   1.824 -0.0523  0.0918  0.0702
 4152SOL     OW14132   4.335   7.545   1.834  0.2853  0.1408 -0.1285
 4152SOL    HW114133   4.355   7.625   1.786  2.1150 -0.4634 -0.4358
 4152SOL    HW214134   4.413   7.490   1.822 -0.6744 -1.4230  0.6067
 4153SOL     OW14135   4.716   1.467   5.713  0.4922 -0.1486 -0.3869
 4153SOL    HW114136   4.648   1.471   5.647  0.9476 -0.4178 -0.8747
 4153SOL    HW214137   4.670   1.482   5.796 -0.3735 -1.6203 -0.5781
 4154SOL     OW14138   8.170   2.845   1.583 -0.1318  0.3816  0.2173
 4154SOL    HW114139   8.092   2.810   1.541  1.0723 -0.0341 -1.7108
 4154SOL    HW214140   8.145   2.934   1.609 -1.1252  0.3767 -0.6839
 4155SOL     OW14141   1.274   3.769   5.032 -0.3612 -0.0447 -0.3404
 4155SOL    HW114142   1.285   3.758   5.126  0.7902  0.7162 -0.3672
 4155SOL    HW214143   1.281   3.864   5.018  0.1748 -0.2162 -1.2621
 4156SOL     OW14144   7.467   1.106   4.993  0.1116 -0.2642 -0.0135
 4156SOL    HW114145   7.474   1.188   5.042  1.8793 -0.3526 -0.0736
 4156SOL    HW214146   7.525   1.045   5.039  2.3091 -0.1644 -2.5417
 4157SOL     OW14147   7.402   0.497   4.635  0.2865  0.0439 -0.0665
 4157SOL    HW114148   7.431   0.576   4.679  0.1616 -0.9511  1.8476
 4157SOL    HW214149   7.388   0.524   4.544  1.9214  1.7895  0.1689
 4158SOL     OW14150   7.224   7.312   1.990  0.4450 -0.0257 -0.0391
 4158SOL    HW114151   7.142   7.315   1.941  0.4742  0.1427 -0.0778
 4158SOL    HW214152   7.250   7.403   1.998  1.3272 -0.1726 -1.2037
 4159SOL     OW14153   0.592   6.353   0.651 -0.0980  0.1740 -0.4590
 4159SOL    HW114154   0.645   6.328   0.575 -2.7761 -0.4690 -2.1861
 4159SOL    HW214155   0.605   6.448   0.658  0.5345  0.1756 -1.4796
 4160SOL     OW14156   3.307   1.841   6.117 -0.0099  0.3377  0.2751
 4160SOL    HW114157   3.262   1.896   6.053 -0.1271  0.2917  0.3172
 4160SOL    HW214158   3.329   1.761   6.070  1.7842  1.1403 -0.3022
 4161SOL     OW14159   1.503   1.628   0.682  0.5010  0.0409 -0.1507
 4161SOL    HW114160   1.535   1.539   0.692  1.3198  0.5285  1.8506
 4161SOL    HW214161   1.410   1.623   0.701  0.6445 -0.3136  0.4628
 4162SOL     OW14162   5.877   5.141   2.203  0.3021  0.0100  0.7555
 4162SOL    HW114163   5.898   5.221   2.251 -1.6401  0.8260  0.2850
 4162SOL    HW214164   5.874   5.168   2.111  0.3968 -0.7793  0.5172
 4163SOL     OW14165   7.231   2.791   3.516  0.4110 -0.6392  0.4548
 4163SOL    HW114166   7.262   2.841   3.441  1.9876 -1.5805  0.4659
 4163SOL    HW214167   7.211   2.704   3.481 -2.1116 -0.1105  0.4800
 4164SOL     OW14168   1.661   5.985   2.318  0.5862  0.0485 -0.0050
 4164SOL    HW114169   1.646   6.000   2.412 -0.7345 -0.0396 -0.2011
 4164SOL    HW214170   1.585   5.935   2.289  0.8299  0.3579 -1.2057
 4165SOL     OW14171   7.060   3.684   5.772 -0.0860 -0.5174 -0.7899
 4165SOL    HW114172   6.982   3.739   5.786  0.2730 -0.2251  0.1218
 4165SOL    HW214173   7.046   3.609   5.831 -0.3380 -1.1627 -1.6628
 4166SOL     OW14174   1.289   6.793   5.280  0.5967 -0.0926  0.0873
 4166SOL    HW114175   1.323   6.824   5.196 -0.7449 -1.0127 -0.8082
 4166SOL    HW214176   1.357   6.735   5.314  1.7977  1.4212  0.3581
 4167SOL     OW14177   0.557   5.434   4.215 -0.5414 -0.3957  0.1687
 4167SOL    HW114178   0.630   5.379   4.244 -1.0271 -0.4993  1.2127
 4167SOL    HW214179   0.490   5.423   4.283 -1.8217 -0.8931 -1.1572
 4168SOL     OW14180   3.089   4.180   2.614 -0.0577 -0.2447 -0.0473
 4168SOL    HW114181   2.995   4.183   2.594 -0.0888  0.9395  0.2108
 4168SOL    HW214182   3.096   4.117   2.686 -0.7801  0.3246  0.5321
 4169SOL     OW14183   7.840   1.238   0.937  0.1669  0.1057  1.0614
 4169SOL    HW114184   7.899   1.268   0.868 -0.3009 -0.4150  0.4298
 4169SOL    HW214185   7.881   1.158   0.970  0.1245  0.0717  1.0320
 4170SOL     OW14186   6.615   7.181   3.346 -0.7061  0.0918 -0.0974
 4170SOL    HW114187   6.675   7.203   3.275  0.7248 -1.4951  0.5726
 4170SOL    HW214188   6.663   7.204   3.426 -1.0556 -0.9923  0.4393
 4171SOL     OW14189   6.115   2.568   2.898 -0.7192 -0.2642 -0.0860
 4171SOL    HW114190   6.099   2.577   2.804  3.4774 -1.1216 -1.0096
 4171SOL    HW214191   6.141   2.656   2.926  0.1316 -0.4806 -0.1954
 4172SOL     OW14192   3.119   1.905   2.999  0.4275 -0.5502 -0.0570
 4172SOL    HW114193   3.174   1.960   2.944  1.8870 -1.5403  0.3882
 4172SOL    HW214194   3.072   1.967   3.055  0.6053  0.3400 -0.8823
 4173SOL     OW14195   2.719   7.300   6.056 -0.3451 -0.2918  0.1613
 4173SOL    HW114196   2.808   7.289   6.088 -0.2432 -0.9537 -0.3291
 4173SOL    HW214197   2.700   7.393   6.066 -0.0407 -0.3564  1.4080
 4174SOL     OW14198   3.619   0.931   3.469 -0.2344 -0.0753  0.2064
 4174SOL    HW114199   3.549   0.900   3.525 -0.0300  0.3519  0.7031
 4174SOL    HW214200   3.614   1.027   3.474 -1.1830 -0.0022 -1.7157
 4175SOL     OW14201   5.754   2.346   3.960 -0.1351 -0.6180  0.2469
 4175SOL    HW114202   5.834   2.328   3.912  0.8250 -1.1121  1.9947
 4175SOL    HW214203   5.778   2.338   4.052 -1.3868  2.6191  0.9138
 4176SOL     OW14204   4.880   0.180   7.314 -0.0783 -0.3131  0.0307
 4176SOL    HW114205   4.829   0.100   7.306 -0.5715 -0.2658  2.5476
 4176SOL    HW214206   4.841   0.227   7.387  2.0979  0.8178  0.4988
 4177SOL     OW14207   7.893   3.606   8.412  0.2158 -0.2612 -0.3812
 4177SOL    HW114208   7.908   3.666   8.338  0.3601 -0.1295 -0.2466
 4177SOL    HW214209   7.936   3.649   8.486 -0.7409  0.0686 -0.0121
 4178SOL     OW14210   3.988   0.233   3.115  0.0097  0.1134  0.0308
 4178SOL    HW114211   3.912   0.178   3.100 -0.5181  0.6513  0.6804
 4178SOL    HW214212   3.986   0.297   3.044 -0.6485  0.6658  0.5380
 4179SOL     OW14213   2.178   3.245   2.272  0.5176  0.8257 -1.2146
 4179SOL    HW114214   2.266   3.270   2.246  0.0925  0.3853 -3.1130
 4179SOL    HW214215   2.124   3.322   2.252  0.6363  1.5714  1.1098
 4180SOL     OW14216   3.621   7.597   5.285 -0.2711 -0.0349  0.1220
 4180SOL    HW114217   3.601   7.691   5.290 -3.0933 -0.6181  0.7149
 4180SOL    HW214218   3.698   7.592   5.229 -1.0672  2.5199 -1.2962
 4181SOL     OW14219   7.097   0.513   6.839  0.0559 -0.6009  0.1738
 4181SOL    HW114220   7.065   0.524   6.749  0.6388  0.2188  0.0620
 4181SOL    HW214221   7.071   0.594   6.884  2.4429  0.3407 -0.0666
 4182SOL     OW14222   6.060   2.021   7.905 -0.1935 -0.3013 -0.3245
 4182SOL    HW114223   6.008   2.069   7.970  0.5477 -0.3715  0.3226
 4182SOL    HW214224   6.064   1.931   7.939  2.5922  0.2743  1.0244
 4183SOL     OW14225   5.595   3.744   8.537  0.0612  0.2348  0.0787
 4183SOL    HW114226   5.540   3.668   8.521 -0.4031  0.6773 -0.4516
 4183SOL    HW214227   5.682   3.719   8.506 -0.9715  1.3497 -3.9243
 4184SOL     OW14228   4.029   3.275   1.755 -0.2783 -0.0199  0.5553
 4184SOL    HW114229   3.941   3.239   1.765  0.3226 -1.9673 -0.8394
 4184SOL    HW214230   4.078   3.239   1.829 -0.3223 -0.0146  0.5868
 4185SOL     OW14231   0.903   2.180   6.038  0.4676  0.2298 -0.4785
 4185SOL    HW114232   0.853   2.191   5.957  0.3164  1.0893 -0.2724
 4185SOL    HW214233   0.945   2.265   6.052 -1.3449  0.8490  1.5619
 4186SOL     OW14234   9.037   7.134   4.081 -0.2869  0.1820  0.2968
 4186SOL    HW114235   9.098   7.206   4.066 -0.6587 -0.2000 -3.5291
 4186SOL    HW214236   9.086   7.055   4.055 -0.8622 -0.6746  1.7193
 4187SOL     OW14237   6.324   1.309   8.858 -0.0331 -0.4406 -0.7030
 4187SOL    HW114238   6.235   1.277   8.870 -0.3494 -0.0021 -1.8164
 4187SOL    HW214239   6.380   1.234   8.876 -0.6423 -0.7891 -0.2681
 4188SOL     OW14240   6.743   0.115   7.990  0.0481 -0.5389 -0.1281
 4188SOL    HW114241   6.788   0.199   7.997 -0.8487 -0.1464  1.2124
 4188SOL    HW214242   6.702   0.117   7.904  2.4060 -0.8190 -1.2734
 4189SOL     OW14243   0.997   6.837   0.995 -0.3293  0.0823  0.1536
 4189SOL    HW114244   0.933   6.892   1.040  0.9878  1.6891  0.1071
 4189SOL    HW214245   1.057   6.808   1.064  0.7273  1.1922 -0.2824
 4190SOL     OW14246   8.689   0.917   7.785  1.0800  0.1665  0.9110
 4190SOL    HW114247   8.706   0.920   7.879  0.4490 -1.4898  1.1124
 4190SOL    HW214248   8.700   0.824   7.762  2.4553  0.7375 -0.8917
 4191SOL     OW14249   2.387   2.516   7.219 -0.3474 -0.4387  0.0550
 4191SOL    HW114250   2.348   2.545   7.137  1.9700 -1.5138 -1.4968
 4191SOL    HW214251   2.357   2.579   7.284 -0.6899  1.5807 -1.9853
 4192SOL     OW14252   1.645   8.706   7.902  0.0406 -0.1800  0.0325
 4192SOL    HW114253   1.608   8.794   7.892  0.0432 -0.0461  1.1611
 4192SOL    HW214254   1.739   8.719   7.898  0.0697  0.0256  1.4536
 4193SOL     OW14255   3.786   6.250   8.781 -0.1278 -0.3517  0.1077
 4193SOL    HW114256   3.745   6.189   8.842 -0.6851  0.8144  0.9102
 4193SOL    HW214257   3.770   6.336   8.818  0.6509  0.2958 -1.0174
 4194SOL     OW14258   7.865   7.057   5.735 -0.0374  0.2742  0.4624
 4194SOL    HW114259   7.953   7.087   5.758  0.1106  0.3363 -0.1605
 4194SOL    HW214260   7.827   7.027   5.817  0.6934 -0.0727  0.6770
 4195SOL     OW14261   0.173   3.988   5.145 -0.1282 -0.1352 -0.0034
 4195SOL    HW114262   0.167   3.953   5.234  0.7670 -3.0206 -1.0152
 4195SOL    HW214263   0.248   4.047   5.147  0.4335 -0.8643  0.9649
 4196SOL     OW14264   8.534   1.290   0.567 -0.2052  0.1018 -0.5624
 4196SOL    HW114265   8.527   1.383   0.549  0.6705  0.3948  0.5439
 4196SOL    HW214266   8.444   1.261   0.582 -0.4998  0.7100 -1.1827
 4197SOL     OW14267   7.525   5.467   2.635  0.3719 -0.6882 -0.4814
 4197SOL    HW114268   7.497   5.400   2.572 -0.5867 -0.8135  0.0674
 4197SOL    HW214269   7.463   5.459   2.707  1.5183 -0.6065  0.5321
 4198SOL     OW14270   8.709   3.345   5.963 -0.5194  0.1677 -0.1356
 4198SOL    HW114271   8.731   3.424   6.012  0.8373 -0.1286 -0.2572
 4198SOL    HW214272   8.732   3.365   5.872  0.7824 -0.6951 -0.0193
 4199SOL     OW14273   4.832   0.692   4.410 -0.1353 -0.3820  0.3248
 4199SOL    HW114274   4.860   0.773   4.368  1.3054 -0.7949  0.4690
 4199SOL    HW214275   4.895   0.679   4.482 -0.5933 -1.4172  0.5471
 4200SOL     OW14276   4.419   7.320   7.263 -0.2056  0.2094  0.2217
 4200SOL    HW114277   4.447   7.346   7.175  1.2550  0.9023  0.8749
 4200SOL    HW214278   4.444   7.228   7.271 -3.0419 -0.7425 -1.1503
 4201SOL     OW14279   3.962   5.773   0.425 -0.2180  0.2568  0.1302
 4201SOL    HW114280   3.869   5.791   0.435 -0.6880 -1.5246 -0.7475
 4201SOL    HW214281   3.983   5.712   0.496  0.2946  0.7141  0.3757
 4202SOL     OW14282   0.258   6.610   0.609  0.0026 -0.1752 -0.6226
 4202SOL    HW114283   0.274   6.569   0.523  1.6672 -0.7164 -0.0671
 4202SOL    HW214284   0.251   6.536   0.669 -2.5530  0.1340 -0.4703
 4203SOL     OW14285   0.122   7.761   4.687 -0.2925 -0.0740  0.1141
 4203SOL    HW114286   0.048   7.770   4.627 -0.7907 -1.9031  0.4354
 4203SOL    HW214287   0.083   7.765   4.774  0.2674  1.2024  0.3116
 4204SOL     OW14288   7.494   1.269   2.719 -0.3400  0.1684 -0.0461
 4204SOL    HW114289   7.407   1.269   2.679  0.0442  2.1549 -0.9389
 4204SOL    HW214290   7.543   1.336   2.671  2.1071 -1.8027 -0.4008
 4205SOL     OW14291   3.422   0.791   6.856 -0.8035 -0.4003 -0.0177
 4205SOL    HW114292   3.487   0.772   6.924 -2.0390  1.4797  1.7595
 4205SOL    HW214293   3.412   0.708   6.809  1.9958 -1.0337  0.3881
 4206SOL     OW14294   4.899   0.365   1.351  0.1953  0.5267  0.0651
 4206SOL    HW114295   4.928   0.275   1.366  1.6739  1.2940  1.9704
 4206SOL    HW214296   4.865   0.364   1.261 -0.9236 -2.1949  0.4517
 4207SOL     OW14297   8.551   1.553   6.554  0.2296 -0.1392 -0.4186
 4207SOL    HW114298   8.579   1.624   6.612  2.1704 -0.5663 -0.8154
 4207SOL    HW214299   8.612   1.556   6.480 -0.1695 -1.6942 -0.8392
 4208SOL     OW14300   6.628   0.523   3.739 -0.6216 -0.3205 -0.1459
 4208SOL    HW114301   6.711   0.558   3.707 -0.8949  0.2196 -0.2577
 4208SOL    HW214302   6.567   0.533   3.666 -1.5462  1.9902  0.9173
 4209SOL     OW14303   4.419   7.363   5.017  0.1020 -0.0660 -0.1037
 4209SOL    HW114304   4.414   7.295   4.950  0.2510  0.5753 -0.7722
 4209SOL    HW214305   4.421   7.445   4.968  2.5579  0.3167  0.5976
 4210SOL     OW14306   0.127   1.739   6.442  0.4691 -0.1546 -0.2384
 4210SOL    HW114307   0.055   1.703   6.494  1.3832 -2.0192 -0.2352
 4210SOL    HW214308   0.193   1.764   6.506 -0.5664  2.6223 -0.1515
 4211SOL     OW14309   1.011   6.639   7.719  0.3168  0.1691 -0.1699
 4211SOL    HW114310   0.927   6.629   7.764  0.6689  0.6823  0.6210
 4211SOL    HW214311   1.035   6.550   7.694 -0.4936  0.0262 -0.4610
 4212SOL     OW14312   5.051   2.495   6.656  0.0774 -0.1062  0.1997
 4212SOL    HW114313   5.027   2.402   6.665 -0.4691  0.1530  1.5154
 4212SOL    HW214314   5.146   2.494   6.642  0.6830 -0.7149  3.8369
 4213SOL     OW14315   7.534   1.135   7.243  0.5470  0.1360  0.3984
 4213SOL    HW114316   7.524   1.208   7.305 -0.4945  0.9144 -0.6395
 4213SOL    HW214317   7.619   1.150   7.201  0.1700  1.0102 -0.0887
 4214SOL     OW14318   0.246   7.390   5.692  0.1690 -0.5203  0.2088
 4214SOL    HW114319   0.309   7.333   5.649  2.4855  2.3834 -0.4158
 4214SOL    HW214320   0.299   7.457   5.736 -2.4031  1.7739  0.0133
 4215SOL     OW14321   0.715   6.623   8.438 -0.2375 -0.2654 -0.4937
 4215SOL    HW114322   0.768   6.587   8.366 -0.3597  0.9664 -1.2108
 4215SOL    HW214323   0.773   6.686   8.481 -0.6872  0.1514 -0.4941
 4216SOL     OW14324   7.288   2.440   0.939 -0.3103 -0.0483  0.0599
 4216SOL    HW114325   7.383   2.447   0.924 -0.1781  0.6721  1.1681
 4216SOL    HW214326   7.265   2.521   0.984 -1.7092  0.4055 -1.4145
 4217SOL     OW14327   5.176   3.878   6.557 -0.2656 -0.1818  0.3593
 4217SOL    HW114328   5.110   3.870   6.488 -1.2399 -0.6550  1.3355
 4217SOL    HW214329   5.125   3.889   6.637  0.8441 -0.8749  1.1608
 4218SOL     OW14330   0.806   6.485   8.209  0.2280  0.0720 -0.5048
 4218SOL    HW114331   0.851   6.401   8.222 -1.0978 -0.4404  0.9527
 4218SOL    HW214332   0.758   6.473   8.127  1.2623 -0.0265 -1.1119
 4219SOL     OW14333   9.126   1.103   1.903 -0.4029 -0.1183  0.4622
 4219SOL    HW114334   9.144   1.019   1.861  0.8490  0.9105 -1.1357
 4219SOL    HW214335   9.209   1.126   1.945 -0.5377  0.6229  0.3222
 4220SOL     OW14336   7.984   8.874   3.452 -0.3577  0.1504  0.1862
 4220SOL    HW114337   7.900   8.834   3.475 -0.0842 -0.4201  0.1883
 4220SOL    HW214338   8.041   8.853   3.526 -0.8164  2.4071  1.2305
 4221SOL     OW14339   7.136   2.942   7.159 -0.3713 -0.6200 -0.1173
 4221SOL    HW114340   7.125   3.036   7.168  2.5249 -0.3870  1.9314
 4221SOL    HW214341   7.087   2.905   7.233  1.2890 -0.4583  1.0941
 4222SOL     OW14342   0.259   5.169   4.912 -0.4107  0.6056  0.1841
 4222SOL    HW114343   0.223   5.091   4.870 -0.6362  0.4740  0.6213
 4222SOL    HW214344   0.332   5.194   4.856 -0.4625  0.1984 -0.0702
 4223SOL     OW14345   4.950   4.467   3.249  0.3062 -0.7873  0.0474
 4223SOL    HW114346   4.938   4.391   3.192 -1.5578 -0.5924  0.1658
 4223SOL    HW214347   4.972   4.538   3.189  0.2256 -1.0049 -0.2448
 4224SOL     OW14348   2.689   6.300   7.451 -0.3572 -0.4112  0.0009
 4224SOL    HW114349   2.618   6.316   7.514 -0.6190  0.7303 -0.5773
 4224SOL    HW214350   2.766   6.341   7.490 -0.7370  1.1565 -0.8690
 4225SOL     OW14351   4.970   5.983   5.800  0.4011 -0.3009 -0.2179
 4225SOL    HW114352   5.048   5.936   5.828  0.9766 -0.2777 -1.7224
 4225SOL    HW214353   4.922   6.001   5.881  0.8449 -2.2636  0.4973
 4226SOL     OW14354   7.461   6.034   2.575  0.0340 -0.4479  0.3166
 4226SOL    HW114355   7.520   6.085   2.519 -1.2113 -0.9470 -1.4974
 4226SOL    HW214356   7.381   6.085   2.579 -0.7077 -1.5451 -0.2892
 4227SOL     OW14357   5.786   0.889   2.260 -0.1963 -0.6685  0.3699
 4227SOL    HW114358   5.718   0.826   2.283 -0.9938 -0.0473 -0.2525
 4227SOL    HW214359   5.845   0.842   2.202  0.7986 -1.6894  2.1783
 4228SOL     OW14360   7.743   0.565   2.897 -0.4590 -0.1385  0.5780
 4228SOL    HW114361   7.649   0.568   2.881 -0.4843 -2.1572  0.2092
 4228SOL    HW214362   7.752   0.580   2.992 -1.0095  1.6856  0.3575
 4229SOL     OW14363   0.476   8.193   5.103 -0.1552  0.5358  0.0736
 4229SOL    HW114364   0.383   8.209   5.118 -0.4576 -1.6542  0.6976
 4229SOL    HW214365   0.482   8.167   5.011 -0.5482 -1.7197  0.6380
 4230SOL     OW14366   0.292   3.962   8.763  0.2451 -0.1860  0.0963
 4230SOL    HW114367   0.381   3.939   8.736 -0.0476 -0.1022 -0.9709
 4230SOL    HW214368   0.243   3.970   8.681 -0.8784 -0.7703  0.6925
 4231SOL     OW14369   3.823   6.848   6.198  0.5759  0.0001  0.2815
 4231SOL    HW114370   3.732   6.840   6.169  0.0699  1.7373  1.3647
 4231SOL    HW214371   3.836   6.772   6.255  0.5922 -1.6409 -1.8473
 4232SOL     OW14372   3.564   7.911   8.423  0.1173  0.3396 -0.0111
 4232SOL    HW114373   3.538   7.853   8.352  0.8118  0.0024  0.0007
 4232SOL    HW214374   3.525   7.873   8.502  1.2521 -0.5872  0.1172
 4233SOL     OW14375   8.718   7.017   5.201 -0.7159 -0.1831  0.3435
 4233SOL    HW114376   8.750   6.973   5.122 -0.4695 -0.1958  0.4493
 4233SOL    HW214377   8.769   7.098   5.205  0.3684 -0.8929  1.3218
 4234SOL     OW14378   5.894   3.211   5.762 -0.0008 -0.2811  0.0644
 4234SOL    HW114379   5.798   3.208   5.768  0.0488 -1.9105  0.1311
 4234SOL    HW214380   5.911   3.281   5.698 -1.2428 -0.3991 -0.4170
 4235SOL     OW14381   5.867   6.358   4.865 -0.3790  0.4821 -0.5527
 4235SOL    HW114382   5.821   6.283   4.901 -1.3267  0.4148 -1.8369
 4235SOL    HW214383   5.947   6.366   4.917 -1.8007  0.5338  1.6429
 4236SOL     OW14384   0.631   3.857   8.981  0.5440  0.1085  0.1433
 4236SOL    HW114385   0.589   3.771   8.977  3.1840 -1.3085  1.5982
 4236SOL    HW214386   0.697   3.855   8.912  1.4439  0.4887  0.9769
 4237SOL     OW14387   2.954   0.984   0.716  0.1138  0.1906 -0.3826
 4237SOL    HW114388   2.958   1.058   0.655  0.3606 -1.1404 -2.0248
 4237SOL    HW214389   2.987   1.019   0.798 -0.8741  2.2191 -0.8136
 4238SOL     OW14390   2.700   8.624   1.536  0.5135  0.0364 -0.4191
 4238SOL    HW114391   2.627   8.642   1.597  0.6394  0.8542 -0.5076
 4238SOL    HW214392   2.771   8.594   1.593  0.0087 -1.0550 -0.3629
 4239SOL     OW14393   0.202   7.098   5.514 -0.5015 -0.7346 -0.0647
 4239SOL    HW114394   0.285   7.138   5.541 -1.3689  1.7814 -1.0424
 4239SOL    HW214395   0.190   7.026   5.576  2.5767 -1.3717 -0.1219
 4240SOL     OW14396   0.563   5.253   1.073  1.0567  0.1413 -0.5274
 4240SOL    HW114397   0.539   5.346   1.072 -0.1611 -0.1430  0.7098
 4240SOL    HW214398   0.622   5.245   1.149  1.3883 -0.0418 -0.8051
 4241SOL     OW14399   3.420   9.261   4.484  0.2676 -0.2532 -0.0871
 4241SOL    HW114400   3.330   9.230   4.497 -0.1392  0.5693 -0.8624
 4241SOL    HW214401   3.409   9.351   4.451  1.3714 -0.2722 -0.4944
 4242SOL     OW14402   8.998   7.535   9.146  0.9734  0.6522 -0.3202
 4242SOL    HW114403   8.953   7.476   9.207 -0.0781  0.9072 -0.8379
 4242SOL    HW214404   8.998   7.487   9.063  0.0576  1.4006 -0.7587
 4243SOL     OW14405   2.933   0.775   1.889  0.1340  0.1913  0.0050
 4243SOL    HW114406   3.004   0.776   1.954  1.6529 -0.7414 -1.6091
 4243SOL    HW214407   2.853   0.783   1.941  1.4565  2.3378  1.7813
 4244SOL     OW14408   1.640   5.861   0.552  0.1156 -0.2214 -0.0183
 4244SOL    HW114409   1.578   5.871   0.480  0.8180  0.7338 -0.5058
 4244SOL    HW214410   1.677   5.773   0.541 -0.8750 -0.6548  0.0693
 4245SOL     OW14411   0.671   4.277   2.882  0.4379  0.1205  0.5833
 4245SOL    HW114412   0.692   4.198   2.833  0.9550 -1.0459  2.6084
 4245SOL    HW214413   0.747   4.334   2.870 -0.2139  0.6122 -1.4153
 4246SOL     OW14414   5.705   1.114   1.483  0.0219 -0.2739  0.1470
 4246SOL    HW114415   5.620   1.159   1.484  0.4735  0.6126  2.6853
 4246SOL    HW214416   5.684   1.022   1.498 -0.5114 -0.0862  0.5685
 4247SOL     OW14417   3.828   5.631   7.405  0.3358 -0.4130 -0.2791
 4247SOL    HW114418   3.748   5.580   7.421  0.3398 -0.2484  0.2939
 4247SOL    HW214419   3.797   5.717   7.379  0.3282 -0.6011 -0.8902
 4248SOL     OW14420   3.986   4.202   8.922  0.4459  0.3750  0.1831
 4248SOL    HW114421   3.990   4.260   8.997 -1.6244  0.0037  0.6291
 4248SOL    HW214422   4.077   4.191   8.894  0.9664  2.7237  0.9071
 4249SOL     OW14423   7.511   3.354   3.789  0.5279 -0.1773  0.4872
 4249SOL    HW114424   7.602   3.327   3.792  0.8473  0.3832 -2.7310
 4249SOL    HW214425   7.462   3.273   3.775  0.8075 -0.1564 -0.7118
 4250SOL     OW14426   1.378   7.378   7.352  0.1855 -0.5997  0.1969
 4250SOL    HW114427   1.355   7.455   7.300  0.9548 -1.1091 -0.9334
 4250SOL    HW214428   1.315   7.376   7.423 -0.5737  0.4069 -0.4469
 4251SOL     OW14429   7.699   0.383   6.847 -0.3378  0.3164  0.3343
 4251SOL    HW114430   7.731   0.425   6.927  2.2867  2.9051 -1.9948
 4251SOL    HW214431   7.612   0.422   6.834 -0.4528  0.4771  1.4864
 4252SOL     OW14432   1.968   5.295   8.811 -0.1192  0.2126  0.2811
 4252SOL    HW114433   1.981   5.328   8.722  1.7032  0.4426  0.6210
 4252SOL    HW214434   1.980   5.371   8.867  0.1944 -0.2257  0.8122
 4253SOL     OW14435   5.482   0.295   6.554  0.2726  0.0179 -1.1641
 4253SOL    HW114436   5.504   0.385   6.532 -0.1370 -0.1605 -2.3651
 4253SOL    HW214437   5.498   0.288   6.648  2.3835  0.7326 -1.4448
 4254SOL     OW14438   5.142   4.736   8.544 -0.0294  0.0010 -0.8721
 4254SOL    HW114439   5.204   4.727   8.616  0.4029  0.7753 -1.1378
 4254SOL    HW214440   5.139   4.650   8.503  1.2263  0.0908 -1.1504
 4255SOL     OW14441   5.378   5.508   0.376  0.7940  0.2655 -0.4630
 4255SOL    HW114442   5.385   5.416   0.403  1.0729  1.3656  3.4412
 4255SOL    HW214443   5.299   5.511   0.322  0.6936 -2.2236 -0.5184
 4256SOL     OW14444   4.477   4.307   0.274  0.3026 -0.0738  0.3098
 4256SOL    HW114445   4.386   4.335   0.287 -0.1460 -1.2111 -0.3312
 4256SOL    HW214446   4.528   4.388   0.281 -0.8566  0.7368 -0.4112
 4257SOL     OW14447   7.985   5.180   9.228  0.1647  0.5116 -0.0692
 4257SOL    HW114448   8.032   5.193   9.146 -0.6023 -0.4441 -0.6697
 4257SOL    HW214449   8.017   5.250   9.285  3.3422 -0.8585 -0.0191
 4258SOL     OW14450   0.967   0.503   3.161 -0.4575  0.8255 -0.3636
 4258SOL    HW114451   1.029   0.515   3.233  0.8391 -2.4996 -0.8317
 4258SOL    HW214452   0.885   0.479   3.204 -0.0531  0.2083  0.0729
 4259SOL     OW14453   7.934   6.848   7.503  0.0531 -0.2711  0.4407
 4259SOL    HW114454   7.956   6.856   7.410  0.2850  0.0190  0.5226
 4259SOL    HW214455   7.971   6.926   7.544 -1.6560  0.5363  0.4807
 4260SOL     OW14456   8.249   3.734   3.948 -0.0010  0.2804  0.6213
 4260SOL    HW114457   8.224   3.644   3.968 -0.0259  0.5758  2.0057
 4260SOL    HW214458   8.174   3.787   3.975 -0.4501  0.6235 -1.2736
 4261SOL     OW14459   7.531   6.249   7.885  0.1717 -0.0203  0.5411
 4261SOL    HW114460   7.625   6.227   7.883  0.1953  0.1296 -0.9318
 4261SOL    HW214461   7.530   6.345   7.895  0.2435  0.2353 -1.5768
 4262SOL     OW14462   8.800   8.761   5.785  0.4034 -0.2991 -0.4189
 4262SOL    HW114463   8.812   8.840   5.732 -1.9730  0.5164  0.2028
 4262SOL    HW214464   8.753   8.700   5.727  0.6113 -0.5823 -0.2912
 4263SOL     OW14465   7.146   4.529   8.376 -0.2085  0.2929 -0.3602
 4263SOL    HW114466   7.120   4.524   8.284  0.8815  0.2622 -0.6713
 4263SOL    HW214467   7.155   4.438   8.403  0.4692  0.3131 -0.5131
 4264SOL     OW14468   6.515   4.530   2.579  0.0660  0.2975  0.9315
 4264SOL    HW114469   6.542   4.600   2.638  1.1191 -1.9409  3.1766
 4264SOL    HW214470   6.595   4.506   2.532 -0.0556 -0.0567  0.9022
 4265SOL     OW14471   6.610   4.283   0.853 -0.1049  0.6167  0.4854
 4265SOL    HW114472   6.532   4.250   0.808  1.2958 -1.4693 -0.4617
 4265SOL    HW214473   6.646   4.207   0.898  1.6659  1.4607  0.5309
 4266SOL     OW14474   7.535   6.559   3.238 -0.2167 -0.4127  0.5937
 4266SOL    HW114475   7.549   6.624   3.307 -0.7922  0.6011 -0.2171
 4266SOL    HW214476   7.440   6.559   3.225 -0.0756 -0.3352 -0.4388
 4267SOL     OW14477   4.462   2.303   7.086 -0.1116  0.1927  0.4938
 4267SOL    HW114478   4.492   2.264   7.169 -1.3583  0.1420  0.9256
 4267SOL    HW214479   4.397   2.367   7.112  0.8283  1.5101 -0.3332
 4268SOL     OW14480   0.175   5.034   6.651  0.6106 -0.1646  0.2786
 4268SOL    HW114481   0.161   4.946   6.687  0.4457 -0.6201 -0.8811
 4268SOL    HW214482   0.245   5.023   6.587  1.7463  0.8762  1.3183
 4269SOL     OW14483   7.797   1.282   1.347 -0.3400  0.4219 -0.6609
 4269SOL    HW114484   7.755   1.323   1.272  0.7839 -0.1728 -1.6337
 4269SOL    HW214485   7.744   1.309   1.422 -3.6211 -1.8357 -2.0163
 4270SOL     OW14486   7.787   5.633   2.591  0.3336 -0.6026  0.1999
 4270SOL    HW114487   7.842   5.655   2.516  0.2715  0.5419  0.4703
 4270SOL    HW214488   7.703   5.676   2.573  0.2353 -0.5343  0.7857
 4271SOL     OW14489   6.256   1.742   1.930  0.9267 -0.0442  0.6166
 4271SOL    HW114490   6.242   1.804   2.001  0.1917  0.0129  0.4223
 4271SOL    HW214491   6.240   1.792   1.850 -1.6308 -0.9705  0.5118
 4272SOL     OW14492   8.406   6.063   7.840 -0.8610 -0.0871  0.9064
 4272SOL    HW114493   8.436   6.015   7.763  0.1767  0.2536  1.0839
 4272SOL    HW214494   8.374   5.996   7.900 -0.3579 -0.4782  0.7420
 4273SOL     OW14495   7.987   3.526   4.250  0.0700 -0.1024 -0.3711
 4273SOL    HW114496   7.971   3.432   4.252  0.1059 -0.1196 -0.8749
 4273SOL    HW214497   8.074   3.536   4.291  0.2793 -0.3338 -0.7556
 4274SOL     OW14498   7.580   2.955   4.272  0.6924  0.0310  0.2549
 4274SOL    HW114499   7.613   3.018   4.209 -1.9743 -1.9208 -3.2478
 4274SOL    HW214500   7.619   2.872   4.247 -0.6526 -0.8474  0.9467
 4275SOL     OW14501   4.114   1.910   8.089 -0.0526  0.4121  0.5092
 4275SOL    HW114502   4.201   1.899   8.051  0.3361  2.7209  0.6793
 4275SOL    HW214503   4.107   1.839   8.152  1.8642  0.4254  0.7737
 4276SOL     OW14504   8.348   2.464   1.286  0.0561 -0.7184 -0.2040
 4276SOL    HW114505   8.388   2.443   1.202  1.5416  0.5659  0.1424
 4276SOL    HW214506   8.420   2.455   1.350 -0.7063 -0.3652  0.7182
 4277SOL     OW14507   2.442   9.060   3.864  0.4074  0.1054 -0.0647
 4277SOL    HW114508   2.424   8.969   3.886  1.2899 -0.2706 -0.9036
 4277SOL    HW214509   2.511   9.087   3.925 -0.1731  0.3626  0.4920
 4278SOL     OW14510   1.961   6.763   8.763 -0.0931 -0.0588 -0.4279
 4278SOL    HW114511   1.928   6.835   8.817  1.1762  1.3055 -1.4253
 4278SOL    HW214512   1.921   6.684   8.800 -1.9751  1.2143  0.3184
 4279SOL     OW14513   4.260   8.294   9.184 -0.3820  0.4983  0.3657
 4279SOL    HW114514   4.191   8.245   9.230  0.0792  0.3802  0.9389
 4279SOL    HW214515   4.265   8.253   9.098 -1.4917  0.9428  0.0857
 4280SOL     OW14516   2.904   7.263   3.009  0.1994  0.4519 -0.2138
 4280SOL    HW114517   2.882   7.355   3.016 -1.3268  0.1898 -1.2733
 4280SOL    HW214518   2.821   7.217   3.021  1.0264 -0.8190  0.8547
 4281SOL     OW14519   2.609   8.674   4.021 -0.1193  0.2455  0.0198
 4281SOL    HW114520   2.607   8.677   4.117 -1.4426 -1.8429  0.0714
 4281SOL    HW214521   2.591   8.583   3.999  0.4136  0.6559 -2.2264
 4282SOL     OW14522   7.410   7.329   8.348  0.3820 -0.3632 -0.6214
 4282SOL    HW114523   7.440   7.398   8.406  0.0191  1.0772 -2.1242
 4282SOL    HW214524   7.351   7.373   8.286 -0.9820 -2.2562 -0.7174
 4283SOL     OW14525   5.971   3.017   5.326 -0.3743 -0.3085 -0.0075
 4283SOL    HW114526   5.954   2.985   5.237 -0.4681 -0.7536  0.1707
 4283SOL    HW214527   5.926   3.101   5.330  0.2486  0.0615 -0.6269
 4284SOL     OW14528   3.650   4.700   5.447  0.3237 -0.0731 -0.4143
 4284SOL    HW114529   3.595   4.773   5.419 -1.9228 -1.7975 -0.6955
 4284SOL    HW214530   3.727   4.704   5.391 -1.1178  0.3692 -2.4337
 4285SOL     OW14531   3.495   5.545   4.348 -0.0016  0.7015 -0.3289
 4285SOL    HW114532   3.498   5.636   4.377 -0.9758  0.2240  1.3256
 4285SOL    HW214533   3.573   5.534   4.293  0.8137  2.1682  0.5311
 4286SOL     OW14534   0.106   3.378   1.966  0.1025 -0.3515 -0.2955
 4286SOL    HW114535   0.082   3.404   2.055  1.8730 -0.3646  0.2018
 4286SOL    HW214536   0.054   3.299   1.949 -0.0016 -0.5383  0.8514
 4287SOL     OW14537   6.475   5.027   9.167 -0.6584  0.2986 -0.5654
 4287SOL    HW114538   6.461   5.063   9.255  2.2158 -2.2528  1.0359
 4287SOL    HW214539   6.402   4.966   9.155 -0.8668  0.3783  0.2260
 4288SOL     OW14540   1.645   5.586   3.320 -0.1616 -0.1431 -0.4111
 4288SOL    HW114541   1.698   5.582   3.240  0.2716  0.2108 -0.1484
 4288SOL    HW214542   1.676   5.665   3.365 -0.6546 -0.1421 -0.0707
 4289SOL     OW14543   8.060   1.189   6.176  0.0962 -0.4964  0.1656
 4289SOL    HW114544   8.111   1.168   6.097  0.4592  0.1238  0.2366
 4289SOL    HW214545   8.065   1.109   6.229  2.1301  0.0311  0.7841
 4290SOL     OW14546   2.235   1.338   7.776  0.1298  0.1520 -0.7268
 4290SOL    HW114547   2.150   1.352   7.817  0.6178 -0.1806  0.4298
 4290SOL    HW214548   2.215   1.313   7.686 -0.9679  0.8127 -0.6700
 4291SOL     OW14549   6.381   2.399   6.365 -0.1436  0.1942 -0.2460
 4291SOL    HW114550   6.415   2.309   6.368  0.6890  0.5122  0.0016
 4291SOL    HW214551   6.406   2.431   6.278 -0.9961 -0.0248 -0.5748
 4292SOL     OW14552   5.527   4.214   5.087  0.3364  0.8430  0.4055
 4292SOL    HW114553   5.462   4.154   5.122  1.2045 -0.6238 -0.4476
 4292SOL    HW214554   5.525   4.289   5.147 -2.2046  0.8789  0.2980
 4293SOL     OW14555   0.095   7.001   1.377 -0.3876 -0.1143 -0.0429
 4293SOL    HW114556   0.127   6.911   1.384  2.1324  0.6833 -0.7919
 4293SOL    HW214557   0.012   6.993   1.331 -0.2147 -2.0695 -0.0680
 4294SOL     OW14558   1.168   4.383   6.551  0.2504 -0.2714  0.5364
 4294SOL    HW114559   1.250   4.414   6.513  0.5467  0.3512  1.6489
 4294SOL    HW214560   1.194   4.338   6.631 -0.3866 -1.3169  0.1642
 4295SOL     OW14561   6.222   2.629   7.533  0.0738 -0.5872 -0.1890
 4295SOL    HW114562   6.308   2.602   7.564 -0.5384 -0.6305  1.5350
 4295SOL    HW214563   6.205   2.711   7.578 -1.2982 -1.1922  0.4186
 4296SOL     OW14564   4.728   8.665   8.592 -0.1767 -0.2358 -0.4327
 4296SOL    HW114565   4.745   8.733   8.656  1.8320 -1.0212 -0.0741
 4296SOL    HW214566   4.633   8.651   8.595 -0.6136  2.5263 -0.5491
 4297SOL     OW14567   2.646   4.917   7.071  0.3560 -0.1152 -0.0886
 4297SOL    HW114568   2.720   4.903   7.012  0.4503  2.0732 -0.5480
 4297SOL    HW214569   2.678   4.888   7.156  1.1539 -0.7766 -0.6041
 4298SOL     OW14570   9.137   8.041   8.881 -0.4906  0.4688 -0.0509
 4298SOL    HW114571   9.050   8.076   8.863 -0.5955  1.0249  1.4398
 4298SOL    HW214572   9.197   8.107   8.848 -0.6395  0.3931 -0.4758
 4299SOL     OW14573   2.127   3.029   2.774  0.0436 -0.4226  0.8932
 4299SOL    HW114574   2.062   3.091   2.740  0.8020  0.6274  1.3116
 4299SOL    HW214575   2.141   3.057   2.864  0.9048 -0.7858  0.8753
 4300SOL     OW14576   4.983   1.769   0.016  0.0155  0.6771  0.2528
 4300SOL    HW114577   5.039   1.842  -0.012  0.1697  0.2955 -0.4485
 4300SOL    HW214578   4.971   1.782   0.110  2.1208  0.1618  0.6103
 4301SOL     OW14579   2.555   6.115   2.410  0.5183  0.3196 -0.3684
 4301SOL    HW114580   2.469   6.115   2.367  0.1244  0.0287  0.4223
 4301SOL    HW214581   2.592   6.029   2.390  0.3810  0.2243 -0.2052
 4302SOL     OW14582   2.658   1.159   1.142 -0.2127 -0.3963  0.0065
 4302SOL    HW114583   2.588   1.095   1.125  0.0643 -0.5012 -0.7309
 4302SOL    HW214584   2.729   1.107   1.180 -0.5594 -0.2769  0.8318
 4303SOL     OW14585   8.800   7.995   4.664  0.0509  0.3151 -0.1333
 4303SOL    HW114586   8.768   7.980   4.575  0.3778  1.8730 -0.5177
 4303SOL    HW214587   8.756   7.928   4.717 -2.1177  1.0037 -1.0296
 4304SOL     OW14588   4.532   6.540   1.457 -0.1644 -0.2225 -0.5643
 4304SOL    HW114589   4.614   6.586   1.440  1.6719 -3.1421  0.0035
 4304SOL    HW214590   4.495   6.583   1.534  2.7583 -1.1959  1.4721
 4305SOL     OW14591   5.040   5.252   9.170  0.5816  0.0604  0.1691
 4305SOL    HW114592   5.110   5.313   9.148  1.9180 -0.9151  1.6155
 4305SOL    HW214593   5.072   5.167   9.140 -1.1980  0.0119 -1.6856
 4306SOL     OW14594   8.437   1.240   5.620 -0.1571 -0.8552  0.3223
 4306SOL    HW114595   8.511   1.217   5.564  0.7459 -0.8333  1.4907
 4306SOL    HW214596   8.462   1.208   5.707 -0.4824  1.2625  1.2237
 4307SOL     OW14597   0.604   0.624   6.103  0.1379  0.0363 -0.4548
 4307SOL    HW114598   0.648   0.547   6.068 -0.5433 -0.5033 -0.1426
 4307SOL    HW214599   0.648   0.640   6.187  0.0266 -0.2391 -0.3444
 4308SOL     OW14600   7.145   0.064   7.352  0.1184  0.1854  0.4835
 4308SOL    HW114601   7.064   0.042   7.398  0.5853  0.1768  1.3025
 4308SOL    HW214602   7.214   0.052   7.417  0.7967  0.0383 -0.2566
 4309SOL     OW14603   3.683   9.173   0.104  0.9370  0.1818 -0.0294
 4309SOL    HW114604   3.698   9.177   0.198  0.5318  1.9584 -0.0300
 4309SOL    HW214605   3.770   9.161   0.065  1.1194 -0.3923  0.5549
 4310SOL     OW14606   5.866   5.862   1.014  0.0474  0.3205  0.1995
 4310SOL    HW114607   5.809   5.938   1.004  0.6915  0.5318 -2.0194
 4310SOL    HW214608   5.809   5.787   1.001 -0.2979  0.4515  0.9209
 4311SOL     OW14609   4.503   6.524   4.189  0.3029 -0.2232  0.0684
 4311SOL    HW114610   4.457   6.573   4.257 -1.4232 -1.3657 -0.2443
 4311SOL    HW214611   4.595   6.548   4.200 -0.3098  1.8991  0.8912
 4312SOL     OW14612   1.022   5.138   8.214 -0.4450  0.6549  0.1641
 4312SOL    HW114613   0.988   5.217   8.171 -0.6306  0.2981 -0.3370
 4312SOL    HW214614   0.954   5.114   8.277 -0.2466  1.0775  0.5444
 4313SOL     OW14615   1.306   2.288   3.023 -0.1788  0.1349  0.1441
 4313SOL    HW114616   1.282   2.198   3.004 -2.0802 -0.0203  2.9684
 4313SOL    HW214617   1.399   2.284   3.046 -0.9901 -1.6839  3.4200
 4314SOL     OW14618   8.870   2.064   3.168  0.4340  0.0608  0.1152
 4314SOL    HW114619   8.956   2.071   3.209  0.3731  2.0929 -0.0432
 4314SOL    HW214620   8.873   2.127   3.096 -1.0352 -0.1847 -0.1739
 4315SOL     OW14621   7.829   2.677   0.589  0.0540  0.5480  0.2081
 4315SOL    HW114622   7.749   2.700   0.543 -0.2819 -0.6683  0.1770
 4315SOL    HW214623   7.885   2.754   0.579 -0.6701  0.9617 -0.7495
 4316SOL     OW14624   6.093   3.985   7.563  0.1436  0.2647  0.8355
 4316SOL    HW114625   6.053   3.898   7.556  0.2256  0.2372  0.7097
 4316SOL    HW214626   6.083   4.009   7.655 -2.0971  1.1863  0.3715
 4317SOL     OW14627   0.292   5.523   0.206 -0.3712  0.1802 -0.0653
 4317SOL    HW114628   0.249   5.438   0.217 -1.8907  0.8338 -0.7787
 4317SOL    HW214629   0.366   5.520   0.266 -0.9962 -1.2597  0.6718
 4318SOL     OW14630   3.429   4.337   6.643 -0.2410 -0.1528 -0.0882
 4318SOL    HW114631   3.418   4.279   6.567 -1.7938  0.5109 -0.3848
 4318SOL    HW214632   3.523   4.356   6.645 -0.4282  1.3610 -2.9967
 4319SOL     OW14633   4.520   6.931   4.815  0.7538  0.2466 -0.0120
 4319SOL    HW114634   4.459   6.856   4.812  0.3344  0.4304  2.8466
 4319SOL    HW214635   4.599   6.896   4.855  1.4624  0.7458 -0.9671
 4320SOL     OW14636   1.645   2.551   5.789 -0.3462 -0.2411 -0.6569
 4320SOL    HW114637   1.713   2.484   5.800 -0.0151  0.3088  0.8041
 4320SOL    HW214638   1.566   2.511   5.826  0.4562  1.1110  2.6792
 4321SOL     OW14639   3.533   3.610   2.104 -0.0414  0.1784 -0.1921
 4321SOL    HW114640   3.600   3.542   2.097  2.2379  2.3468 -0.2519
 4321SOL    HW214641   3.462   3.569   2.152  0.2512 -2.9871 -2.2968
 4322SOL     OW14642   5.140   4.391   2.508 -0.2630 -0.2406 -0.3390
 4322SOL    HW114643   5.130   4.477   2.550 -0.5024 -0.2973 -0.2825
 4322SOL    HW214644   5.225   4.396   2.464  1.3786 -1.2106  2.6026
 4323SOL     OW14645   0.073   4.494   7.167  0.5290  0.2125 -0.0714
 4323SOL    HW114646   0.016   4.430   7.209  1.6168 -1.1147 -0.5762
 4323SOL    HW214647   0.057   4.484   7.074  0.1801  1.1856 -0.1200
 4324SOL     OW14648   3.893   1.511   8.432 -0.2115 -0.4422 -0.6337
 4324SOL    HW114649   3.913   1.441   8.370  0.8388 -2.5191  1.9538
 4324SOL    HW214650   3.978   1.540   8.464 -0.7504  0.3427  0.1099
 4325SOL     OW14651   1.194   2.196   9.275 -0.0357 -0.2544  0.4036
 4325SOL    HW114652   1.144   2.173   9.353 -0.3657  0.5026  0.4138
 4325SOL    HW214653   1.180   2.122   9.215  0.1904 -0.8190  1.0435
 4326SOL     OW14654   1.009   4.922   6.392  0.2438  0.5640 -0.2964
 4326SOL    HW114655   1.020   4.841   6.443  1.6150  2.0186  1.7832
 4326SOL    HW214656   1.038   4.899   6.304  3.8400 -0.3691  1.0409
 4327SOL     OW14657   0.378   7.901   0.887 -0.1325 -0.1897  0.1566
 4327SOL    HW114658   0.364   7.861   0.801 -0.2514  0.7030 -0.2381
 4327SOL    HW214659   0.379   7.995   0.870 -0.7195  0.0095  1.2088
 4328SOL     OW14660   9.186   5.513   7.082  0.4242  0.3189 -0.2441
 4328SOL    HW114661   9.264   5.487   7.034  0.8954  0.1211  0.6066
 4328SOL    HW214662   9.113   5.487   7.027  0.9586  0.4895 -1.0396
 4329SOL     OW14663   3.163   7.384   1.414  0.3757 -0.4829 -0.2611
 4329SOL    HW114664   3.102   7.409   1.483  0.9111 -0.3526  0.1759
 4329SOL    HW214665   3.145   7.444   1.342 -0.2952 -0.7201 -0.2869
 4330SOL     OW14666   7.267   5.201   3.218  0.2053  0.2904  0.3377
 4330SOL    HW114667   7.336   5.205   3.152  1.3688 -2.3007  1.3225
 4330SOL    HW214668   7.232   5.113   3.210 -0.3051  0.2733  2.5100
 4331SOL     OW14669   0.417   3.947   3.615  0.1790 -0.1495  0.5319
 4331SOL    HW114670   0.370   3.882   3.563  2.6729 -0.4666 -1.3905
 4331SOL    HW214671   0.417   4.027   3.562  4.7480 -1.1194 -1.1707
 4332SOL     OW14672   8.850   2.180   0.526  0.1863 -0.1382 -0.0258
 4332SOL    HW114673   8.897   2.260   0.502  1.0853 -0.9184 -0.9093
 4332SOL    HW214674   8.919   2.120   0.553 -0.1496 -1.7280 -2.5644
 4333SOL     OW14675   8.866   8.400   8.767  0.6721 -0.4197  0.5326
 4333SOL    HW114676   8.900   8.318   8.730 -0.7210 -0.8888  0.2356
 4333SOL    HW214677   8.805   8.432   8.701 -0.3760 -0.2401  1.5667
 4334SOL     OW14678   0.738   0.046   7.267  0.0283  0.2582 -0.8186
 4334SOL    HW114679   0.715   0.108   7.198 -1.0928  0.0276 -0.6705
 4334SOL    HW214680   0.741   0.098   7.347 -2.9795 -0.2023 -0.3526
 4335SOL     OW14681   7.246   6.900   3.191 -0.2781 -0.1425  0.1818
 4335SOL    HW114682   7.299   6.944   3.126 -0.4940  1.1600  0.8660
 4335SOL    HW214683   7.155   6.915   3.163 -0.3351 -0.6547  0.0911
 4336SOL     OW14684   0.731   1.476   1.579  0.2058 -0.4853  0.1534
 4336SOL    HW114685   0.651   1.467   1.631  0.9693  2.2031  1.8910
 4336SOL    HW214686   0.705   1.448   1.491 -2.5333 -0.1736  0.8075
 4337SOL     OW14687   3.135   7.988   9.091 -0.4317  0.2680 -0.3200
 4337SOL    HW114688   3.171   7.982   9.180  0.5558  1.0818 -0.6651
 4337SOL    HW214689   3.202   8.032   9.040 -1.3983  0.6752 -1.2650
 4338SOL     OW14690   3.437   9.134   4.735  0.4958  0.0821  0.0339
 4338SOL    HW114691   3.512   9.084   4.766  0.3026  0.1330  0.5888
 4338SOL    HW214692   3.463   9.167   4.649 -0.1254 -2.6843 -1.2581
 4339SOL     OW14693   4.790   9.167   5.195 -0.2303  0.2850  0.0972
 4339SOL    HW114694   4.735   9.137   5.123  1.4082 -2.1376 -0.2063
 4339SOL    HW214695   4.778   9.262   5.197 -1.0584  0.2727 -2.7224
 4340SOL     OW14696   7.605   1.962   0.155 -1.0858  0.1787 -0.0521
 4340SOL    HW114697   7.655   1.911   0.219 -1.0340  1.2740  0.7967
 4340SOL    HW214698   7.586   1.900   0.085 -0.3932 -0.8156  0.6201
 4341SOL     OW14699   1.424   3.250   4.029 -0.3349 -0.3971 -0.4057
 4341SOL    HW114700   1.329   3.237   4.031 -0.3669 -0.6208 -2.5420
 4341SOL    HW214701   1.459   3.165   4.002  0.5070 -0.4040  0.6630
 4342SOL     OW14702   8.345   7.561   6.393  0.4864 -0.2949  0.0862
 4342SOL    HW114703   8.295   7.612   6.457 -1.1737  0.1727 -1.5193
 4342SOL    HW214704   8.433   7.598   6.396 -0.3196  1.7127  0.0292
 4343SOL     OW14705   1.134   8.372   1.358  0.2551 -0.3403  0.3371
 4343SOL    HW114706   1.224   8.341   1.372  0.4395 -0.2570 -0.6265
 4343SOL    HW214707   1.080   8.294   1.367  0.3013 -0.1832  2.1074
 4344SOL     OW14708   5.303   0.535   5.444 -0.0742 -0.1269  0.0790
 4344SOL    HW114709   5.299   0.621   5.487 -2.7712 -0.3690  0.3741
 4344SOL    HW214710   5.335   0.554   5.356  0.6291  1.0130  0.5649
 4345SOL     OW14711   4.238   5.087   6.083  0.2325 -0.0190  0.1132
 4345SOL    HW114712   4.267   5.135   6.005  1.1005 -1.8545 -0.7267
 4345SOL    HW214713   4.315   5.083   6.139  0.2295 -0.6712  0.0666
 4346SOL     OW14714   3.431   8.625   5.948 -0.2580 -0.0067 -0.0591
 4346SOL    HW114715   3.512   8.663   5.983  0.4480 -0.7298 -0.8617
 4346SOL    HW214716   3.433   8.647   5.855 -0.9970 -0.0170 -0.0739
 4347SOL     OW14717   5.223   7.620   1.607 -0.3821 -0.0746 -0.2473
 4347SOL    HW114718   5.286   7.580   1.666 -1.2121  1.0103  1.4100
 4347SOL    HW214719   5.150   7.558   1.602 -0.4717  0.0019  0.1493
 4348SOL     OW14720   1.109   7.825   8.045 -0.0534  0.1166  0.1325
 4348SOL    HW114721   1.132   7.804   7.954  0.6715 -1.1063  0.5896
 4348SOL    HW214722   1.093   7.740   8.086  0.5866  0.6084  1.4110
 4349SOL     OW14723   7.670   5.642   8.470 -0.0972  0.1821 -0.0063
 4349SOL    HW114724   7.715   5.559   8.452 -0.9480  0.1235 -1.9505
 4349SOL    HW214725   7.737   5.696   8.513  0.9935 -0.8932 -0.2996
 4350SOL     OW14726   7.248   0.959   7.890  0.0730  0.3721 -0.8361
 4350SOL    HW114727   7.194   0.966   7.968  2.4472 -1.6643  1.0739
 4350SOL    HW214728   7.194   0.911   7.827 -1.4549  1.1163 -0.1137
 4351SOL     OW14729   5.407   3.096   7.474  0.0159 -0.4166  0.0852
 4351SOL    HW114730   5.382   3.012   7.437 -2.0748 -0.8522  2.3654
 4351SOL    HW214731   5.458   3.139   7.405 -1.7853 -2.1096 -2.3629
 4352SOL     OW14732   8.461   6.214   0.656  0.9717  0.1067 -0.2073
 4352SOL    HW114733   8.438   6.304   0.636 -0.7145 -0.2725 -0.0221
 4352SOL    HW214734   8.469   6.212   0.752 -3.7466 -0.9665  0.2939
 4353SOL     OW14735   5.527   1.410   0.260 -0.5723  0.5809 -0.3028
 4353SOL    HW114736   5.547   1.408   0.353  0.7732 -0.8583 -0.5917
 4353SOL    HW214737   5.437   1.442   0.254 -0.4566  1.2345  1.4442
 4354SOL     OW14738   8.655   2.648   2.164  0.0236 -0.3578  0.2498
 4354SOL    HW114739   8.641   2.737   2.196 -0.0975  0.3149 -1.5795
 4354SOL    HW214740   8.581   2.633   2.104 -1.1424 -2.4964  2.1739
 4355SOL     OW14741   5.662   8.222   4.341  0.0181 -0.4329 -0.2895
 4355SOL    HW114742   5.650   8.144   4.394 -0.4145 -0.8989 -1.0548
 4355SOL    HW214743   5.713   8.281   4.396  0.4437 -1.2961  0.2576
 4356SOL     OW14744   6.706   6.920   4.145 -0.1158 -0.0317  0.1023
 4356SOL    HW114745   6.788   6.880   4.116  0.3396  0.6675  0.4317
 4356SOL    HW214746   6.718   6.936   4.238 -0.4981  0.3829  0.0823
 4357SOL     OW14747   2.805   9.285   8.941  0.5531 -0.0136 -0.0398
 4357SOL    HW114748   2.771   9.338   8.869 -1.3158 -1.0445  0.0543
 4357SOL    HW214749   2.847   9.210   8.898 -0.0300 -0.3207 -0.0780
 4358SOL     OW14750   6.507   2.427   6.131  0.2131  0.1717 -0.2674
 4358SOL    HW114751   6.526   2.412   6.038  0.5515  2.2198 -0.5660
 4358SOL    HW214752   6.579   2.483   6.160 -0.9378  1.1479  0.7272
 4359SOL     OW14753   5.880   5.822   3.876 -0.1995 -0.2661  0.3762
 4359SOL    HW114754   5.864   5.742   3.926  0.1013  1.1137  2.7581
 4359SOL    HW214755   5.926   5.880   3.937 -0.4992  1.7592 -1.2556
 4360SOL     OW14756   9.090   6.356   7.838  0.6612  0.4626  0.1378
 4360SOL    HW114757   9.176   6.362   7.796  0.8552 -1.8669  0.1494
 4360SOL    HW214758   9.027   6.368   7.767  1.0014 -1.4901 -0.5299
 4361SOL     OW14759   9.157   0.356   2.363  0.2116  0.4179 -0.7191
 4361SOL    HW114760   9.174   0.263   2.351 -1.4953 -0.1614  1.1544
 4361SOL    HW214761   9.217   0.383   2.432 -0.2447  0.3743 -0.2983
 4362SOL     OW14762   5.035   6.438   6.756 -0.0052 -0.9279  0.4691
 4362SOL    HW114763   5.009   6.378   6.686  0.7943 -1.6886  0.8313
 4362SOL    HW214764   5.110   6.397   6.797  1.0974  0.7355  0.1624
 4363SOL     OW14765   1.099   7.991   9.094 -0.4601  0.0545 -0.5602
 4363SOL    HW114766   1.084   7.957   9.182  0.2344  2.1802  0.4001
 4363SOL    HW214767   1.013   7.989   9.053 -0.9460 -0.1353  0.4506
 4364SOL     OW14768   6.182   4.591   6.970 -0.2029 -0.1027  0.3240
 4364SOL    HW114769   6.186   4.525   7.039 -0.1443 -0.9024 -0.4397
 4364SOL    HW214770   6.185   4.675   7.017  0.0903 -0.6372  1.2683
 4365SOL     OW14771   6.280   0.653   4.308 -0.1409 -0.3003  0.0181
 4365SOL    HW114772   6.244   0.730   4.263  0.3844  0.4882  0.9251
 4365SOL    HW214773   6.356   0.628   4.256  1.1561  1.3191  1.0993
 4366SOL     OW14774   8.738   2.577   7.562  0.0479 -0.2315 -0.2505
 4366SOL    HW114775   8.725   2.502   7.504 -2.5416 -0.9253  1.1675
 4366SOL    HW214776   8.650   2.607   7.582  0.9716  1.1066  1.9070
 4367SOL     OW14777   2.684   3.118   9.108  0.5572 -0.0488 -0.5387
 4367SOL    HW114778   2.630   3.047   9.143 -0.8121  1.1449 -0.2150
 4367SOL    HW214779   2.725   3.158   9.184  3.7225 -2.3334 -0.9258
 4368SOL     OW14780   7.759   8.538   4.744  0.7746 -0.0455  0.5135
 4368SOL    HW114781   7.783   8.630   4.761  0.7170 -0.0610  0.6791
 4368SOL    HW214782   7.799   8.519   4.659  0.4518  0.2553  0.2922
 4369SOL     OW14783   6.288   7.400   4.590  0.0209  0.3712  0.5636
 4369SOL    HW114784   6.327   7.464   4.651 -2.6504  2.4921  0.1526
 4369SOL    HW214785   6.331   7.418   4.507 -0.7923  1.7804  0.4211
 4370SOL     OW14786   4.585   4.457   1.266  0.6928  0.3932  0.5528
 4370SOL    HW114787   4.624   4.515   1.332  0.7652  0.6725  0.2683
 4370SOL    HW214788   4.525   4.514   1.217  0.0509  0.0057  0.8797
 4371SOL     OW14789   4.069   5.228   8.987  0.5610  0.7535  0.1589
 4371SOL    HW114790   4.079   5.300   9.048  0.4116 -0.0721  1.1743
 4371SOL    HW214791   3.988   5.247   8.940  0.6922  1.4077  0.1938
 4372SOL     OW14792   0.143   6.540   0.873 -0.0487  0.1588  0.6105
 4372SOL    HW114793   0.102   6.599   0.937  0.0795  0.9765 -0.0500
 4372SOL    HW214794   0.237   6.551   0.886 -0.0245  0.0799  0.5071
 4373SOL     OW14795   9.244   7.525   0.816  0.4446 -0.2065 -0.1346
 4373SOL    HW114796   9.231   7.556   0.727 -0.0568  0.6457  0.2262
 4373SOL    HW214797   9.218   7.433   0.813  1.0161 -0.3455 -0.9984
 4374SOL     OW14798   6.339   2.347   5.244 -0.5428  0.0475 -0.0675
 4374SOL    HW114799   6.283   2.418   5.276 -0.2467  0.9651 -1.5614
 4374SOL    HW214800   6.406   2.338   5.312 -1.5320  0.0551  0.9358
 4375SOL     OW14801   6.777   1.390   3.215 -0.1405 -0.1638  0.0046
 4375SOL    HW114802   6.844   1.321   3.215 -0.7429 -0.7452 -0.3190
 4375SOL    HW214803   6.770   1.416   3.123  1.4610  1.6816  0.3403
 4376SOL     OW14804   0.234   9.160   5.189  0.0125 -0.0232 -0.0713
 4376SOL    HW114805   0.293   9.212   5.244  0.5364 -0.7515  0.0612
 4376SOL    HW214806   0.271   9.071   5.192 -0.7092 -0.3374 -0.5321
 4377SOL     OW14807   5.984   2.039   9.017  0.2539  0.0050 -0.3750
 4377SOL    HW114808   5.914   2.097   9.046  1.5785  1.1739  0.5859
 4377SOL    HW214809   6.002   1.983   9.092  1.3586  0.7282 -0.0836
 4378SOL     OW14810   5.246   1.833   5.236 -0.5073 -0.4479 -0.1854
 4378SOL    HW114811   5.183   1.848   5.306  1.1624  0.1023  1.2404
 4378SOL    HW214812   5.302   1.910   5.238  0.5410 -1.1825 -1.0645
 4379SOL     OW14813   1.789   0.805   9.180  0.2378  0.3113  0.6255
 4379SOL    HW114814   1.855   0.818   9.112  1.2258 -2.8963  0.8948
 4379SOL    HW214815   1.837   0.766   9.253 -2.1313 -3.4433  0.3113
 4380SOL     OW14816   0.864   0.643   2.179  0.5820  0.2861 -0.5107
 4380SOL    HW114817   0.833   0.654   2.269  0.7612  0.5052 -0.4753
 4380SOL    HW214818   0.959   0.632   2.188  0.5131 -0.4189 -0.6168
 4381SOL     OW14819   1.654   6.924   4.840 -0.1150 -0.3023 -0.1291
 4381SOL    HW114820   1.716   6.906   4.911  0.0242 -1.3623 -0.5131
 4381SOL    HW214821   1.571   6.887   4.871 -0.4517  0.6782  0.1711
 4382SOL     OW14822   3.390   8.646   7.522  0.6474  0.5227  0.3498
 4382SOL    HW114823   3.388   8.629   7.428  3.0645 -2.0332  0.6963
 4382SOL    HW214824   3.477   8.682   7.538  0.6094  0.0250  1.7322
 4383SOL     OW14825   6.244   8.211   0.225  0.4561  0.6285 -0.5656
 4383SOL    HW114826   6.205   8.134   0.185  2.2523 -0.1155 -0.9459
 4383SOL    HW214827   6.266   8.183   0.314  2.7244  0.1209 -1.2612
 4384SOL     OW14828   3.625   5.439   3.252 -0.7271  0.2072 -0.5743
 4384SOL    HW114829   3.536   5.423   3.284 -0.3753  1.1692  0.9723
 4384SOL    HW214830   3.673   5.359   3.273 -0.4871  0.8391  1.4763
 4385SOL     OW14831   2.362   5.895   4.438 -0.5023  0.1626 -0.0930
 4385SOL    HW114832   2.346   5.929   4.526  0.5981  1.8988 -0.5478
 4385SOL    HW214833   2.437   5.836   4.448 -0.9560 -0.3582  0.2834
 4386SOL     OW14834   0.324   3.852   1.551  0.1678  0.0438 -0.5288
 4386SOL    HW114835   0.289   3.787   1.490  0.4278 -0.7487  0.1560
 4386SOL    HW214836   0.398   3.808   1.593 -1.0645 -0.0633  1.6134
 4387SOL     OW14837   7.173   1.695   5.786  0.0342 -0.3910 -0.7826
 4387SOL    HW114838   7.129   1.618   5.821  0.0311  0.1256  0.3610
 4387SOL    HW214839   7.106   1.764   5.790  0.5125  0.0492 -0.3663
 4388SOL     OW14840   0.954   8.530   1.225 -0.1225 -0.2126  0.0161
 4388SOL    HW114841   0.991   8.608   1.184 -1.1122 -0.0374 -0.5692
 4388SOL    HW214842   1.029   8.486   1.266  0.4965  0.8520  0.0474
 4389SOL     OW14843   6.058   5.991   4.923  0.0247 -0.6352  0.2039
 4389SOL    HW114844   6.144   5.951   4.920  0.4473  0.2227  0.7296
 4389SOL    HW214845   6.047   6.017   5.014  0.1468  1.2750 -0.3101
 4390SOL     OW14846   1.959   5.609   4.219  0.0423  0.4559 -0.2335
 4390SOL    HW114847   1.887   5.637   4.275  1.0070  0.3473  1.0741
 4390SOL    HW214848   1.948   5.514   4.211  0.5721  0.3092  0.7340
 4391SOL     OW14849   8.613   4.776   5.900  0.6965  0.2005  0.4530
 4391SOL    HW114850   8.587   4.868   5.903 -1.7984 -0.3428 -1.6425
 4391SOL    HW214851   8.691   4.775   5.845  0.8817  1.1042  0.6911
 4392SOL     OW14852   5.958   7.096   9.252 -0.5996  0.3953 -0.5754
 4392SOL    HW114853   5.993   7.179   9.284  0.8371 -0.1793 -0.6042
 4392SOL    HW214854   5.893   7.121   9.186  0.7506  1.4806 -1.5166
 4393SOL     OW14855   2.486   4.748   5.453 -0.5218  0.1266  0.2861
 4393SOL    HW114856   2.518   4.827   5.408 -0.6878 -1.0946 -2.0628
 4393SOL    HW214857   2.395   4.741   5.427 -0.0721 -1.7363 -0.9005
 4394SOL     OW14858   6.938   6.289   9.087 -0.2331 -0.3506  0.6034
 4394SOL    HW114859   6.848   6.324   9.085 -0.5612 -1.2248  0.1321
 4394SOL    HW214860   6.992   6.363   9.057 -1.0553 -0.6153 -1.6693
 4395SOL     OW14861   7.132   3.547   5.288  0.4978 -0.0218  0.6846
 4395SOL    HW114862   7.090   3.465   5.260  0.1749 -0.1099  1.4021
 4395SOL    HW214863   7.225   3.530   5.279  0.3877  0.1393 -0.8364
 4396SOL     OW14864   7.469   4.152   2.667 -0.3339 -0.1625  0.1259
 4396SOL    HW114865   7.436   4.190   2.585 -0.2931  0.1161  0.2418
 4396SOL    HW214866   7.531   4.085   2.638  1.4212  1.5051 -0.0147
 4397SOL     OW14867   0.023   5.863   5.478  0.4589 -0.0523 -0.5106
 4397SOL    HW114868  -0.005   5.778   5.512  0.0720  0.4883  0.5371
 4397SOL    HW214869  -0.033   5.878   5.402 -1.0952  0.3415  0.6900
 4398SOL     OW14870   6.290   3.193   6.929  0.1492  0.1026 -0.2005
 4398SOL    HW114871   6.322   3.282   6.915  1.1233 -0.4787 -1.9028
 4398SOL    HW214872   6.352   3.156   6.992  0.5457  0.2238 -0.5083
 4399SOL     OW14873   8.086   7.885   8.621  0.0057 -0.1832 -1.1666
 4399SOL    HW114874   8.110   7.972   8.589  0.5861 -0.4787 -1.5738
 4399SOL    HW214875   7.998   7.894   8.655  0.5868  0.8906  0.0885
 4400SOL     OW14876   2.542   5.674   8.938  0.1109 -0.2540 -0.3645
 4400SOL    HW114877   2.521   5.581   8.947 -1.0811  0.1523  1.2686
 4400SOL    HW214878   2.477   5.708   8.877 -0.5225 -0.1513  0.3595
 4401SOL     OW14879   3.556   3.694   2.925  0.0670 -0.2306 -0.2593
 4401SOL    HW114880   3.642   3.680   2.884  0.0693  2.6512 -1.3639
 4401SOL    HW214881   3.553   3.788   2.943 -2.6643 -0.3702  0.2464
 4402SOL     OW14882   0.595   5.713   3.538 -0.1640  0.3736  0.1864
 4402SOL    HW114883   0.682   5.734   3.505 -1.0132  0.3058 -2.1942
 4402SOL    HW214884   0.562   5.796   3.572  0.6263  0.5065  0.6401
 4403SOL     OW14885   1.810   4.690   5.080  0.1757  0.4335 -0.1657
 4403SOL    HW114886   1.746   4.651   5.140 -0.9046  0.0359 -1.5495
 4403SOL    HW214887   1.881   4.626   5.076  0.6484  0.8494  1.3311
 4404SOL     OW14888   0.530   6.104   0.783  0.0502 -0.3723 -0.2092
 4404SOL    HW114889   0.618   6.082   0.814 -0.4336 -1.3514  0.4851
 4404SOL    HW214890   0.545   6.160   0.707  1.2789  1.2606  1.1762
 4405SOL     OW14891   6.598   6.815   8.125 -0.2352  0.1503  0.4584
 4405SOL    HW114892   6.658   6.842   8.194 -0.6614 -0.9195  1.2550
 4405SOL    HW214893   6.571   6.896   8.083 -1.0897  0.9343  2.4667
 4406SOL     OW14894   8.657   4.585   4.640  0.1032  0.2389 -0.5634
 4406SOL    HW114895   8.726   4.615   4.699  0.1456 -0.6008 -0.1774
 4406SOL    HW214896   8.704   4.540   4.569 -0.0866 -1.1409  0.1727
 4407SOL     OW14897   1.687   4.799   2.592 -0.0778  0.2560  0.4669
 4407SOL    HW114898   1.626   4.738   2.551  1.0265  0.0899 -0.9232
 4407SOL    HW214899   1.774   4.767   2.570  0.5407  0.9734  1.7347
 4408SOL     OW14900   0.595   0.948   8.391 -0.0601  0.1599  0.5171
 4408SOL    HW114901   0.593   0.927   8.297 -0.2576 -1.6291  0.9074
 4408SOL    HW214902   0.675   0.907   8.423 -0.9214 -0.7908  1.4751
 4409SOL     OW14903   7.342   0.578   4.384  0.1512  0.2837  0.3151
 4409SOL    HW114904   7.283   0.586   4.309  0.4876  0.8641  0.1166
 4409SOL    HW214905   7.415   0.636   4.364  1.2003 -1.0599  0.1714
 4410SOL     OW14906   3.877   4.804   7.401  0.1976  0.0965  0.2295
 4410SOL    HW114907   3.824   4.746   7.456  0.2725  1.1584  1.4573
 4410SOL    HW214908   3.967   4.773   7.413  0.1247 -0.1668  0.0895
 4411SOL     OW14909   0.130   4.581   5.879  0.3360 -0.2405 -0.1637
 4411SOL    HW114910   0.063   4.634   5.923 -0.2653 -0.4421 -0.8314
 4411SOL    HW214911   0.171   4.641   5.817  1.7738  0.2834  1.2475
 4412SOL     OW14912   3.856   8.055   0.808  0.4113 -0.3320 -0.4762
 4412SOL    HW114913   3.841   7.963   0.786  2.0191 -0.7237  0.0170
 4412SOL    HW214914   3.847   8.101   0.724  0.3056 -1.0185 -0.8461
 4413SOL     OW14915   1.930   3.737   5.227 -0.0920  0.2228 -0.0137
 4413SOL    HW114916   1.945   3.737   5.133  0.1901 -1.2854  0.0278
 4413SOL    HW214917   2.018   3.733   5.265 -0.2647 -0.6547  0.2956
 4414SOL     OW14918   0.156   8.775   8.223  0.6528  0.6994 -1.2912
 4414SOL    HW114919   0.174   8.848   8.281  3.2485 -0.3323 -0.7177
 4414SOL    HW214920   0.229   8.774   8.161 -0.2412 -0.3537 -2.3731
 4415SOL     OW14921   7.852   1.115   7.392 -0.0987 -0.3690 -0.8292
 4415SOL    HW114922   7.943   1.121   7.419 -0.2544  2.9216 -0.7723
 4415SOL    HW214923   7.817   1.203   7.408 -2.8720 -1.1590 -2.2554
 4416SOL     OW14924   2.800   0.445   6.346  0.2367  0.0491 -0.2820
 4416SOL    HW114925   2.800   0.535   6.380  0.0883 -0.6358  1.5878
 4416SOL    HW214926   2.782   0.455   6.252 -1.1060  1.8888  0.1317
 4417SOL     OW14927   6.470   2.307   8.944 -1.1951 -0.2106 -1.0370
 4417SOL    HW114928   6.437   2.356   8.869 -0.0858  2.2137  0.0007
 4417SOL    HW214929   6.422   2.342   9.019  0.0826 -0.2142 -0.1985
 4418SOL     OW14930   7.968   0.762   8.573 -0.3387 -0.0887 -0.2432
 4418SOL    HW114931   8.035   0.819   8.610 -0.6673  0.8010 -1.0105
 4418SOL    HW214932   7.902   0.754   8.641 -1.7201  2.8380 -1.1978
 4419SOL     OW14933   7.705   6.943   5.165 -0.6023 -0.1033 -0.1984
 4419SOL    HW114934   7.771   7.013   5.159 -1.5073  0.8946  1.0994
 4419SOL    HW214935   7.683   6.923   5.075  0.6384  0.3651 -0.6214
 4420SOL     OW14936   6.156   5.810   1.057 -0.2862 -0.2944  0.3152
 4420SOL    HW114937   6.078   5.813   1.002 -0.7459 -2.3774  0.8174
 4420SOL    HW214938   6.160   5.720   1.089  0.2074  0.7432  3.3480
 4421SOL     OW14939   8.104   3.860   6.742  0.1154  0.2434 -0.2238
 4421SOL    HW114940   8.080   3.872   6.834  0.7700  1.4100 -0.1921
 4421SOL    HW214941   8.187   3.812   6.745 -0.4675 -0.7641 -0.2382
 4422SOL     OW14942   4.237   2.813   8.722  0.3290 -0.4929 -0.1432
 4422SOL    HW114943   4.320   2.776   8.752  0.5169 -1.4567 -1.8106
 4422SOL    HW214944   4.259   2.900   8.689  0.1943  0.4023  1.9877
 4423SOL     OW14945   8.589   8.260   2.216  0.6288  0.0671 -0.3113
 4423SOL    HW114946   8.566   8.264   2.123  1.3692  0.5506 -0.4836
 4423SOL    HW214947   8.531   8.325   2.257  0.6486  0.2140 -0.5125
 4424SOL     OW14948   1.896   6.841   3.298 -0.4066 -0.1780  0.7112
 4424SOL    HW114949   1.872   6.884   3.216 -0.1463 -0.7500  0.3432
 4424SOL    HW214950   1.884   6.748   3.282  1.0239 -0.4011  0.8739
 4425SOL     OW14951   4.749   2.417   3.972  0.2924 -0.5648  0.1241
 4425SOL    HW114952   4.719   2.394   3.884 -0.9123 -0.2981  0.4568
 4425SOL    HW214953   4.779   2.508   3.964 -0.1745 -0.4152  0.0781
 4426SOL     OW14954   2.512   3.330   8.457  0.3441 -0.5803 -0.3532
 4426SOL    HW114955   2.595   3.367   8.428  0.8375 -1.0212  0.4579
 4426SOL    HW214956   2.455   3.406   8.471  0.2758 -0.3360 -1.8986
 4427SOL     OW14957   8.299   5.020   7.828 -0.2588 -0.1575 -0.8014
 4427SOL    HW114958   8.369   5.073   7.791  0.9546  0.1494  1.8041
 4427SOL    HW214959   8.235   5.083   7.861 -1.3265 -0.4230 -2.3169
 4428SOL     OW14960   0.694   4.163   8.015 -0.6497 -0.2908 -0.3165
 4428SOL    HW114961   0.658   4.247   7.987  0.1239 -0.0731 -0.6780
 4428SOL    HW214962   0.674   4.159   8.108 -0.1174  0.6023 -0.1517
 4429SOL     OW14963   4.617   1.041   8.002  0.0019 -0.1444 -0.1138
 4429SOL    HW114964   4.695   1.067   8.050 -0.0473 -2.2463  1.1339
 4429SOL    HW214965   4.643   1.047   7.910  1.8063 -1.3817  0.3005
 4430SOL     OW14966   6.088   3.103   2.398  0.1737  0.2877 -0.1010
 4430SOL    HW114967   6.087   3.149   2.482 -1.6937  0.3467 -0.1295
 4430SOL    HW214968   6.170   3.054   2.398  0.4880  0.8012  1.4729
 4431SOL     OW14969   1.136   1.156   6.852 -0.2916  0.0497 -0.2211
 4431SOL    HW114970   1.200   1.175   6.921 -0.1059  0.0233 -0.3878
 4431SOL    HW214971   1.068   1.222   6.864 -0.2362  0.0773 -0.0435
 4432SOL     OW14972   7.698   1.430   2.558  0.1167  0.3907  0.7110
 4432SOL    HW114973   7.746   1.489   2.617 -1.2394  0.7916  1.4301
 4432SOL    HW214974   7.759   1.413   2.487  1.4411  0.6695  1.7556
 4433SOL     OW14975   8.781   6.725   5.586 -0.4202  0.1877  0.6590
 4433SOL    HW114976   8.744   6.637   5.589 -2.3456  1.0038  1.9628
 4433SOL    HW214977   8.865   6.717   5.632 -0.0840 -1.1798 -0.1688
 4434SOL     OW14978   2.007   0.446   5.009  0.3866  0.2399  0.5443
 4434SOL    HW114979   1.944   0.517   5.020 -0.9572 -0.8722  0.2258
 4434SOL    HW214980   1.995   0.417   4.918  0.4793 -0.7873  0.8535
 4435SOL     OW14981   7.549   4.719   0.108 -0.0297 -0.4737 -0.4395
 4435SOL    HW114982   7.464   4.683   0.131 -1.3806  1.0917 -2.7064
 4435SOL    HW214983   7.572   4.776   0.181 -0.7389 -1.1952  0.3518
 4436SOL     OW14984   1.091   5.528   7.580 -0.0846  0.5218 -0.6125
 4436SOL    HW114985   1.099   5.616   7.617 -0.0080  0.6466 -0.9272
 4436SOL    HW214986   1.161   5.523   7.515 -0.6734  0.5588 -1.2535
 4437SOL     OW14987   4.443   5.966   8.552 -0.2074 -0.0998  0.2981
 4437SOL    HW114988   4.387   5.977   8.475  0.5797  1.3478 -0.0975
 4437SOL    HW214989   4.496   6.046   8.554  0.9140 -0.8552  1.4136
 4438SOL     OW14990   0.313   3.545   7.961 -0.0250  0.1066 -0.3751
 4438SOL    HW114991   0.239   3.498   7.923 -0.6581  1.5940 -1.0334
 4438SOL    HW214992   0.301   3.536   8.056 -0.1704 -0.9756 -0.4865
 4439SOL     OW14993   1.199   3.269   6.644 -1.0412  0.4494 -0.1059
 4439SOL    HW114994   1.210   3.331   6.717  0.1898  1.3043 -1.0035
 4439SOL    HW214995   1.157   3.192   6.684 -0.6676  1.0375  1.4423
 4440SOL     OW14996   0.282   3.709   8.612  0.3157 -0.9042  0.2768
 4440SOL    HW114997   0.369   3.699   8.651  0.4662  2.2900  0.9006
 4440SOL    HW214998   0.221   3.689   8.684  0.4926 -3.4868 -0.2561
 4441SOL     OW14999   8.384   8.115   3.403  0.5034  0.6427 -0.1793
 4441SOL    HW115000   8.345   8.122   3.489 -1.4486  1.2938 -1.0896
 4441SOL    HW215001   8.340   8.041   3.362  1.4443  0.3100 -0.6211
 4442SOL     OW15002   0.920   0.243   5.304 -0.4410 -0.1982  0.4536
 4442SOL    HW115003   1.000   0.260   5.255  0.0956  0.7921  1.6483
 4442SOL    HW215004   0.919   0.148   5.317 -1.3913 -0.6899 -2.7940
 4443SOL     OW15005   6.834   6.493   3.781 -0.3286  0.4096 -0.1375
 4443SOL    HW115006   6.753   6.533   3.747 -1.8134 -0.3918  2.3150
 4443SOL    HW215007   6.829   6.507   3.876  1.7172 -0.9550  0.1942
 4444SOL     OW15008   3.219   3.198   0.320  0.0460  0.1800  0.3829
 4444SOL    HW115009   3.223   3.284   0.279 -1.2174  0.2644  0.4112
 4444SOL    HW215010   3.275   3.206   0.398 -0.4781  1.1383  0.6710
 4445SOL     OW15011   3.132   3.289   5.420  0.0574  0.3646 -0.3886
 4445SOL    HW115012   3.218   3.258   5.449  0.4380  2.8650  1.3783
 4445SOL    HW215013   3.069   3.242   5.475  0.3261 -0.9167 -1.1675
 4446SOL     OW15014   5.721   6.382   1.865  0.4947 -0.1113 -0.2322
 4446SOL    HW115015   5.806   6.412   1.832  0.5926  0.0212  0.1400
 4446SOL    HW215016   5.742   6.326   1.939  0.2853 -0.6617 -0.5917
 4447SOL     OW15017   1.045   5.384   2.260 -0.2899 -0.3843  0.3638
 4447SOL    HW115018   1.009   5.459   2.306 -0.1147  1.7647 -2.8153
 4447SOL    HW215019   1.139   5.385   2.280 -0.2051  0.5681 -0.0714
 4448SOL     OW15020   0.793   4.101   8.519 -0.1753  0.1548 -0.4921
 4448SOL    HW115021   0.803   4.172   8.582 -2.6019  1.3738 -1.4414
 4448SOL    HW215022   0.753   4.030   8.570 -1.2747  0.8102 -0.4469
 4449SOL     OW15023   4.514   5.853   5.012  0.0846 -0.2275  0.2784
 4449SOL    HW115024   4.497   5.758   5.014 -1.1977 -0.1281 -2.6194
 4449SOL    HW215025   4.546   5.869   4.923 -0.7778  2.2216  0.3901
 4450SOL     OW15026   5.121   4.130   8.349  0.0145  0.0095 -0.0031
 4450SOL    HW115027   5.075   4.179   8.418 -0.2736 -0.8005  0.3813
 4450SOL    HW215028   5.148   4.198   8.287 -1.3919  0.5382 -0.0629
 4451SOL     OW15029   8.268   7.850   3.373  0.0830 -0.2304  0.3414
 4451SOL    HW115030   8.253   7.877   3.463 -0.7529  0.1953  0.0829
 4451SOL    HW215031   8.363   7.845   3.365  0.3182  2.9326  0.3518
 4452SOL     OW15032   9.261   5.867   8.467 -0.3637  0.0091  0.0543
 4452SOL    HW115033   9.245   5.784   8.423  1.5102  0.8115 -2.2584
 4452SOL    HW215034   9.354   5.863   8.490 -0.4033  1.2512  0.4366
 4453SOL     OW15035   0.490   3.842   2.237  0.2558  0.3733 -0.7158
 4453SOL    HW115036   0.582   3.836   2.263  0.1018  0.8782 -0.0189
 4453SOL    HW215037   0.480   3.778   2.166  1.1271  0.2778 -0.7575
 4454SOL     OW15038   3.354   4.524   5.924 -0.2751  0.6060  1.1294
 4454SOL    HW115039   3.431   4.561   5.966 -1.4478  1.4944  2.5183
 4454SOL    HW215040   3.365   4.429   5.932 -0.1370  0.7614  2.7739
 4455SOL     OW15041   7.835   4.612   0.901  0.7729 -0.1242 -0.5650
 4455SOL    HW115042   7.840   4.593   0.807 -0.1349 -2.8022 -0.1140
 4455SOL    HW215043   7.894   4.549   0.941  1.0861  0.9518  0.6841
 4456SOL     OW15044   1.476   4.928   2.737  0.6229 -0.4798  0.0095
 4456SOL    HW115045   1.471   4.876   2.817 -0.1996 -0.3888  0.0228
 4456SOL    HW215046   1.554   4.896   2.693 -0.1573 -2.1148 -0.2372
 4457SOL     OW15047   6.243   5.866   8.443  0.1148 -0.3753  0.6156
 4457SOL    HW115048   6.274   5.914   8.367 -0.4247 -0.4112  0.3732
 4457SOL    HW215049   6.212   5.783   8.407 -0.8758 -0.0762  0.7751
 4458SOL     OW15050   1.564   8.279   1.319  0.6138 -0.6504 -0.1938
 4458SOL    HW115051   1.545   8.215   1.250 -0.9134  0.3710 -0.7558
 4458SOL    HW215052   1.482   8.286   1.368  0.6868  1.0603 -0.2901
 4459SOL     OW15053   3.044   8.201   7.247  0.6235  0.5950 -0.4777
 4459SOL    HW115054   2.966   8.211   7.193  0.6508  0.3151 -0.5713
 4459SOL    HW215055   3.085   8.121   7.216  0.2422  0.0224  0.4546
 4460SOL     OW15056   2.477   2.883   2.147 -0.1493  0.0404  0.0219
 4460SOL    HW115057   2.434   2.936   2.080  0.0829  0.8555  0.5118
 4460SOL    HW215058   2.472   2.936   2.227 -0.4682 -0.9445  0.6608
 4461SOL     OW15059   0.108   4.226   3.294  0.1732 -0.1365  0.2774
 4461SOL    HW115060   0.123   4.192   3.206  0.4009 -0.5389  0.4732
 4461SOL    HW215061   0.099   4.321   3.281 -1.3159 -0.3444 -0.3815
 4462SOL     OW15062   3.484   6.790   4.718  0.0358  0.3284  0.4368
 4462SOL    HW115063   3.551   6.735   4.677  0.2715  0.3595  0.7772
 4462SOL    HW215064   3.412   6.792   4.654  0.0403 -0.3399  0.4072
 4463SOL     OW15065   4.801   1.153   5.422  0.5495  0.4972 -0.2557
 4463SOL    HW115066   4.880   1.207   5.432  1.9875 -1.5715 -0.2096
 4463SOL    HW215067   4.779   1.126   5.511  0.4572  0.1350 -0.3882
 4464SOL     OW15068   2.316   4.691   7.948  0.1717  0.6289 -0.0875
 4464SOL    HW115069   2.308   4.681   8.043 -0.9829  0.9105 -0.1379
 4464SOL    HW215070   2.399   4.650   7.926 -1.1499 -2.6372  0.6164
 4465SOL     OW15071   6.729   0.622   4.298  0.1382  0.3188  0.2717
 4465SOL    HW115072   6.773   0.707   4.290  2.5795 -0.8300  0.9090
 4465SOL    HW215073   6.696   0.621   4.387 -2.6969  1.8397 -0.6935
 4466SOL     OW15074   4.484   3.774   8.283  0.5287 -0.1167 -0.0403
 4466SOL    HW115075   4.501   3.733   8.198  3.0939 -0.8427  0.7792
 4466SOL    HW215076   4.558   3.833   8.296  0.3052 -0.2284  1.8360
 4467SOL     OW15077   7.727   8.995   2.375  0.1084 -0.7393 -0.4781
 4467SOL    HW115078   7.635   9.014   2.395  0.5230  0.2125  0.5828
 4467SOL    HW215079   7.770   8.994   2.460  0.7317 -3.2025 -0.7892
 4468SOL     OW15080   3.496   1.380   6.831 -0.3670  0.2271  0.0383
 4468SOL    HW115081   3.540   1.300   6.802  1.2994  1.8028 -2.0003
 4468SOL    HW215082   3.406   1.371   6.800 -0.2086 -0.8868 -0.1143
 4469SOL     OW15083   0.416   8.834   4.870 -0.3348 -0.2900 -0.3627
 4469SOL    HW115084   0.464   8.826   4.788  0.2038  0.0168 -0.0774
 4469SOL    HW215085   0.413   8.745   4.905 -2.2854 -0.7788 -1.6788
 4470SOL     OW15086   1.888   2.222   7.469 -0.4881  0.2626  0.2404
 4470SOL    HW115087   1.945   2.297   7.452  0.6996 -0.7952 -0.5106
 4470SOL    HW215088   1.802   2.250   7.439 -0.2338  1.6284  0.7425
 4471SOL     OW15089   1.170   0.048   8.098 -0.2570  0.3602 -0.1627
 4471SOL    HW115090   1.142   0.000   8.020  0.9195  0.9364 -0.9584
 4471SOL    HW215091   1.133  -0.001   8.171  0.3236 -1.3468 -0.9916
 4472SOL     OW15092   5.953   6.428   0.217  0.1987 -0.3361 -0.2021
 4472SOL    HW115093   5.885   6.471   0.166  0.1989  0.8324  0.7454
 4472SOL    HW215094   6.014   6.393   0.153 -0.0222  0.7391 -0.9993
 4473SOL     OW15095   1.982   1.655   3.846 -0.5862  1.4848  0.0553
 4473SOL    HW115096   1.984   1.559   3.847 -2.4327  1.3773 -1.6172
 4473SOL    HW215097   1.911   1.678   3.907  0.9962  1.8777  1.7763
 4474SOL     OW15098   3.628   1.576   0.451  0.3993  0.4283 -0.4318
 4474SOL    HW115099   3.582   1.641   0.397  0.1865  2.1308  1.7149
 4474SOL    HW215100   3.711   1.619   0.473  0.4468 -0.2161  0.6432
 4475SOL     OW15101   5.414   0.252   3.442 -0.0336  0.5435  0.3952
 4475SOL    HW115102   5.389   0.160   3.433  0.1347  0.4431  0.9189
 4475SOL    HW215103   5.504   0.249   3.475 -1.1423  0.8738  3.5876
 4476SOL     OW15104   8.450   2.377   3.515 -0.3000 -0.0311 -0.0954
 4476SOL    HW115105   8.433   2.324   3.594  0.3530  0.1136  0.1420
 4476SOL    HW215106   8.383   2.445   3.518 -0.6438 -0.3704  0.0234
 4477SOL     OW15107   3.137   7.115   1.998  0.1602 -0.1584 -0.5595
 4477SOL    HW115108   3.160   7.063   1.921 -0.5540 -1.0322 -0.1944
 4477SOL    HW215109   3.092   7.192   1.962  1.6573  0.4646 -1.1334
 4478SOL     OW15110   1.464   7.327   1.277 -0.1501  0.1356  0.5202
 4478SOL    HW115111   1.396   7.356   1.337 -1.4986  2.0121 -1.8417
 4478SOL    HW215112   1.531   7.396   1.282  0.1139 -0.1187  0.4796
 4479SOL     OW15113   4.732   4.749   4.801 -0.0107  0.0717  0.1410
 4479SOL    HW115114   4.772   4.831   4.771 -2.4976  0.8511 -1.1952
 4479SOL    HW215115   4.781   4.681   4.755  0.5474  0.9176 -0.5565
 4480SOL     OW15116   4.223   2.969   8.217 -0.2055 -0.6646 -0.4527
 4480SOL    HW115117   4.183   2.930   8.296 -0.5076 -1.1012 -0.8153
 4480SOL    HW215118   4.182   3.055   8.210  0.0527 -0.5017  0.0480
 4481SOL     OW15119   0.765   1.047   8.102  0.1807  0.3446  0.0233
 4481SOL    HW115120   0.800   0.977   8.157 -1.3919  0.7723  1.6181
 4481SOL    HW215121   0.786   1.127   8.150  2.9310  1.1026 -2.3100
 4482SOL     OW15122   1.896   1.009   3.597 -0.1732  0.5820  0.2113
 4482SOL    HW115123   1.982   0.976   3.570 -0.0216  1.5422 -0.4875
 4482SOL    HW215124   1.835   0.972   3.533  0.1055  2.3285 -1.1100
 4483SOL     OW15125   1.279   1.871   7.161 -0.1064 -0.3219  0.5067
 4483SOL    HW115126   1.360   1.889   7.210 -0.2071 -0.8706  0.8879
 4483SOL    HW215127   1.289   1.780   7.132 -0.2192 -0.1230 -0.1678
 4484SOL     OW15128   8.497   0.788   2.982  0.3699  0.1296 -0.1830
 4484SOL    HW115129   8.436   0.733   2.932  0.8756  0.7353 -1.5019
 4484SOL    HW215130   8.440   0.845   3.034 -0.1562 -1.6951  1.2708
 4485SOL     OW15131   5.278   5.845   6.725 -0.2202  0.5953 -0.6159
 4485SOL    HW115132   5.203   5.903   6.739 -1.1757 -0.4376 -1.3502
 4485SOL    HW215133   5.268   5.815   6.635  0.7409 -0.0322 -0.5145
 4486SOL     OW15134   4.943   2.359   3.186  0.3847 -0.6820 -0.0112
 4486SOL    HW115135   4.874   2.316   3.134 -0.3465  0.5529 -0.0978
 4486SOL    HW215136   4.935   2.452   3.163 -1.1346  0.1512  3.6168
 4487SOL     OW15137   0.480   2.121   8.341  0.4276 -0.4511  0.6149
 4487SOL    HW115138   0.401   2.123   8.288  0.0653 -0.0413  1.1566
 4487SOL    HW215139   0.509   2.030   8.338 -0.8676 -0.9048  1.5748
 4488SOL     OW15140   5.384   4.447   0.098  0.0360 -0.5496 -0.3501
 4488SOL    HW115141   5.385   4.533   0.055 -3.9764 -0.0023  0.4666
 4488SOL    HW215142   5.420   4.463   0.185  1.5226 -0.2058 -1.0145
 4489SOL     OW15143   9.188   6.524   2.231 -0.0444 -0.3557  0.2542
 4489SOL    HW115144   9.267   6.508   2.179  0.1240 -0.5009  0.5530
 4489SOL    HW215145   9.116   6.511   2.170  0.1636 -0.1589 -0.0383
 4490SOL     OW15146   0.355   6.030   3.099 -0.7232 -0.1032 -0.4187
 4490SOL    HW115147   0.293   6.103   3.104  0.7433  1.3368 -2.1300
 4490SOL    HW215148   0.432   6.060   3.148 -0.4536 -0.8741 -0.3624
 4491SOL     OW15149   2.095   3.834   7.227 -0.4602 -0.5490 -0.1979
 4491SOL    HW115150   2.147   3.794   7.156  1.1089 -0.0212  0.6286
 4491SOL    HW215151   2.033   3.891   7.181 -1.2050 -2.2003 -1.2744
 4492SOL     OW15152   1.421   2.707   0.032  0.0151  0.7382  0.4640
 4492SOL    HW115153   1.506   2.708   0.076  0.4617  1.9892 -0.3787
 4492SOL    HW215154   1.367   2.649   0.085  0.5306  2.1914  2.6546
 4493SOL     OW15155   3.869   5.687   0.976  0.2922 -0.3320 -0.0558
 4493SOL    HW115156   3.943   5.627   0.988  1.0115  0.9398  2.1227
 4493SOL    HW215157   3.905   5.758   0.924  0.1970 -0.4262 -0.2504
 4494SOL     OW15158   9.000   8.627   4.675  0.1684  0.3584  0.1101
 4494SOL    HW115159   8.916   8.651   4.637 -0.2549  0.1403  0.9127
 4494SOL    HW215160   9.064   8.654   4.609 -0.7806 -4.2828 -2.9858
 4495SOL     OW15161   1.534   7.845   0.933 -0.0168 -0.0593 -0.2441
 4495SOL    HW115162   1.542   7.755   0.964  0.6777 -0.0127 -0.2680
 4495SOL    HW215163   1.617   7.862   0.888 -1.0915 -0.1975 -2.3163
 4496SOL     OW15164   8.160   5.741   1.473  0.0386  0.5424 -0.3021
 4496SOL    HW115165   8.246   5.702   1.456  0.0543 -0.2770  1.4879
 4496SOL    HW215166   8.178   5.831   1.498  0.4001  0.3646  0.0896
 4497SOL     OW15167   2.819   2.194   6.421  0.5109 -0.0107  0.5500
 4497SOL    HW115168   2.774   2.127   6.370  0.4850  0.7576 -0.4401
 4497SOL    HW215169   2.819   2.271   6.365  3.0377  0.0215  0.5327
 4498SOL     OW15170   1.899   6.075   1.224 -0.5928  0.2340  0.2329
 4498SOL    HW115171   1.851   6.001   1.185  2.6414 -0.3015 -3.1135
 4498SOL    HW215172   1.851   6.152   1.195 -0.9635 -0.3846 -0.8652
 4499SOL     OW15173   7.802   1.776   0.301  0.6310  0.1174  0.3226
 4499SOL    HW115174   7.871   1.726   0.258  0.6657 -1.6146  2.2993
 4499SOL    HW215175   7.848   1.837   0.359  0.5417  0.8744 -0.3943
 4500SOL     OW15176   2.034   3.486   6.198  0.0020  0.5621 -0.2587
 4500SOL    HW115177   2.063   3.418   6.138 -1.1746  0.1609 -0.3861
 4500SOL    HW215178   2.082   3.565   6.171  1.1677 -0.1408 -0.2744
 4501SOL     OW15179   1.381   8.496   8.704  0.1140 -0.5680  0.4005
 4501SOL    HW115180   1.305   8.478   8.760 -0.9947  1.3011 -0.4780
 4501SOL    HW215181   1.428   8.566   8.749 -0.6848  0.8174 -0.8860
 4502SOL     OW15182   6.034   4.937   2.315 -0.3573 -0.2662  0.0827
 4502SOL    HW115183   5.955   4.981   2.282 -1.2326 -1.2412  0.8454
 4502SOL    HW215184   6.067   4.996   2.384 -0.9181 -0.2770  0.3628
 4503SOL     OW15185   0.208   2.323   6.738 -0.4386  0.4227 -1.0597
 4503SOL    HW115186   0.281   2.261   6.742 -0.8979 -0.0425  0.4075
 4503SOL    HW215187   0.130   2.269   6.746 -0.8251  1.2200  0.8790
 4504SOL     OW15188   3.827   4.851   3.583 -0.1489 -0.6789  0.4450
 4504SOL    HW115189   3.731   4.846   3.586 -0.1993  0.3288  0.8866
 4504SOL    HW215190   3.849   4.922   3.643  0.8539 -0.6517  0.0575
 4505SOL     OW15191   1.515   6.818   3.730  0.1250 -0.5826  0.8409
 4505SOL    HW115192   1.560   6.843   3.649 -0.0727 -0.5736  0.7341
 4505SOL    HW215193   1.585   6.804   3.793  0.2921 -0.8659  0.5906
 4506SOL     OW15194   6.285   1.429   4.494  0.0008 -0.6015 -0.1422
 4506SOL    HW115195   6.206   1.414   4.442  0.3482  0.6905 -1.0550
 4506SOL    HW215196   6.357   1.403   4.436  0.2775 -1.2752  0.4972
 4507SOL     OW15197   7.341   9.195   5.470  0.1710 -0.0490  0.2313
 4507SOL    HW115198   7.364   9.103   5.480 -2.5948 -0.9306 -0.9945
 4507SOL    HW215199   7.375   9.237   5.549  0.8374 -2.2304  1.1394
 4508SOL     OW15200   0.292   0.791   0.798 -0.1589  0.4457 -0.3717
 4508SOL    HW115201   0.303   0.699   0.773 -1.1639  0.6616 -1.6149
 4508SOL    HW215202   0.208   0.817   0.762 -1.2308  1.0629  2.4334
 4509SOL     OW15203   2.897   0.910   0.371  0.3861  0.0134 -0.5954
 4509SOL    HW115204   2.984   0.883   0.403  0.0877 -0.6813 -0.3580
 4509SOL    HW215205   2.861   0.963   0.442  0.6111  0.2895 -0.6872
 4510SOL     OW15206   7.506   6.258   1.561  0.1939 -0.6247 -0.0867
 4510SOL    HW115207   7.523   6.294   1.648  2.0191  0.6415 -0.9363
 4510SOL    HW215208   7.414   6.280   1.543  0.0446 -0.2017  1.1797
 4511SOL     OW15209   1.403   0.115   0.269  0.0007 -1.0118  0.2768
 4511SOL    HW115210   1.492   0.130   0.238  0.0523  0.2815  0.9933
 4511SOL    HW215211   1.412   0.109   0.364 -1.0482  2.2802  0.6349
 4512SOL     OW15212   6.798   7.145   2.594  0.1116 -0.3958 -0.0862
 4512SOL    HW115213   6.821   7.054   2.577  0.1860 -0.3306 -0.3424
 4512SOL    HW215214   6.715   7.158   2.549  0.5823 -0.0691 -0.8921
 4513SOL     OW15215   3.527   0.594   2.290  0.4051  0.0646  0.1003
 4513SOL    HW115216   3.492   0.506   2.301 -0.9452  0.6471  0.6197
 4513SOL    HW215217   3.568   0.614   2.374  0.8585 -0.1189 -0.0729
 4514SOL     OW15218   4.641   6.343   6.365 -0.0670 -0.0112 -0.2974
 4514SOL    HW115219   4.679   6.411   6.310 -0.8767 -1.1716 -2.3264
 4514SOL    HW215220   4.691   6.264   6.343 -0.0841 -0.3908  0.9848
 4515SOL     OW15221   7.493   8.305   0.426 -0.0329  0.1397 -0.1984
 4515SOL    HW115222   7.530   8.338   0.508  2.0907 -0.3602 -0.9231
 4515SOL    HW215223   7.511   8.374   0.362  0.7366 -0.6265 -0.8239
 4516SOL     OW15224   7.053   4.669   7.580  0.0368  0.0714 -0.1476
 4516SOL    HW115225   6.961   4.651   7.561 -0.0468 -1.4180  1.5553
 4516SOL    HW215226   7.085   4.589   7.621  1.4044  1.4894  1.5981
 4517SOL     OW15227   9.049   0.996   6.625  0.3478 -0.0931 -0.5783
 4517SOL    HW115228   9.099   0.939   6.683 -0.8356 -0.3636  0.2042
 4517SOL    HW215229   8.993   0.937   6.575 -0.0646  0.2853 -0.5718
 4518SOL     OW15230   3.116   1.765   7.425 -0.5803 -0.5125  0.0540
 4518SOL    HW115231   3.046   1.783   7.488 -1.4335  0.5636 -1.1884
 4518SOL    HW215232   3.196   1.790   7.471 -1.2409  0.7167  0.5570
 4519SOL     OW15233   6.672   5.314   3.105 -0.0031  0.2859 -0.4579
 4519SOL    HW115234   6.722   5.270   3.174  1.2295  0.9018 -0.9397
 4519SOL    HW215235   6.733   5.320   3.031 -0.7744  1.1070 -1.0429
 4520SOL     OW15236   7.266   2.354   6.386 -0.2620  0.0798  0.3593
 4520SOL    HW115237   7.203   2.311   6.443 -0.4821  1.4119  1.1553
 4520SOL    HW215238   7.214   2.411   6.330  0.1897  0.8936  0.7555
 4521SOL     OW15239   5.503   1.583   3.781  0.3062  0.0431 -0.1922
 4521SOL    HW115240   5.565   1.523   3.821  0.0953 -0.1363 -0.1337
 4521SOL    HW215241   5.542   1.606   3.697  2.5226  3.2663  1.6234
 4522SOL     OW15242   6.645   0.511   8.110  0.5444 -0.0038  0.2409
 4522SOL    HW115243   6.565   0.551   8.076  0.2454 -0.5982  0.2221
 4522SOL    HW215244   6.715   0.571   8.085  0.2161  0.0469 -0.5767
 4523SOL     OW15245   1.026   3.328   0.156  0.3313 -0.6333 -0.6889
 4523SOL    HW115246   0.999   3.411   0.196 -1.1324 -0.7380 -1.4166
 4523SOL    HW215247   1.037   3.269   0.230 -0.9377 -0.4266 -0.3192
 4524SOL     OW15248   2.199   5.931   4.208  0.0598  0.0253 -0.1687
 4524SOL    HW115249   2.249   5.917   4.289 -0.6311 -0.0221  0.2575
 4524SOL    HW215250   2.234   6.012   4.171 -0.5658  0.8101  0.9143
 4525SOL     OW15251   3.382   2.104   5.277  0.4072  0.1249  0.0861
 4525SOL    HW115252   3.394   2.078   5.368  2.3032  0.1790 -0.1166
 4525SOL    HW215253   3.467   2.141   5.252 -0.6709  1.8649 -1.1346
 4526SOL     OW15254   8.575   3.287   7.510 -0.2408 -0.5548  0.0670
 4526SOL    HW115255   8.581   3.192   7.501 -0.9287 -0.4548 -1.6188
 4526SOL    HW215256   8.541   3.317   7.426 -0.2914  1.1641  0.6810
 4527SOL     OW15257   0.988   6.701   2.737 -0.3373 -0.0543  0.1629
 4527SOL    HW115258   0.954   6.779   2.782 -0.2687 -0.5922  1.1432
 4527SOL    HW215259   1.076   6.689   2.772  0.6077  0.8524 -1.7818
 4528SOL     OW15260   7.264   4.746   0.201  0.6013  0.0488  0.1782
 4528SOL    HW115261   7.228   4.820   0.251 -1.0000 -1.0927  0.7427
 4528SOL    HW215262   7.244   4.767   0.110  1.3741  0.9700  0.2138
 4529SOL     OW15263   6.895   0.812   0.732  0.6343 -0.0842 -0.3272
 4529SOL    HW115264   6.853   0.767   0.659 -0.3031 -0.9591  0.7134
 4529SOL    HW215265   6.847   0.894   0.741 -0.2618 -0.6625  0.2639
 4530SOL     OW15266   5.329   2.688   5.348  0.2504 -0.4190 -0.2128
 4530SOL    HW115267   5.348   2.610   5.296  0.1559 -0.7085  0.1843
 4530SOL    HW215268   5.275   2.656   5.420  0.4113 -0.0281  0.0841
 4531SOL     OW15269   5.126   3.036   9.050  0.4020  0.0719 -0.2734
 4531SOL    HW115270   5.140   3.019   8.957 -0.1169 -1.7552 -0.0282
 4531SOL    HW215271   5.032   3.048   9.058  0.2478 -1.4015  0.2595
 4532SOL     OW15272   3.349   0.420   8.252  0.4738 -0.6653 -0.1134
 4532SOL    HW115273   3.419   0.461   8.303 -0.2484 -0.8089  1.0132
 4532SOL    HW215274   3.272   0.473   8.271 -0.0798 -1.4787 -0.0756
 4533SOL     OW15275   5.917   5.344   7.037 -0.3380 -0.3648  0.9472
 4533SOL    HW115276   5.874   5.305   7.114  0.5339  0.7188  2.0204
 4533SOL    HW215277   5.985   5.400   7.075  0.8523 -0.6969 -0.6774
 4534SOL     OW15278   8.779   7.322   1.215  0.5258 -0.3631 -0.1056
 4534SOL    HW115279   8.818   7.279   1.292 -0.5399  0.5738  0.9823
 4534SOL    HW215280   8.785   7.256   1.146 -1.7599 -2.5755  1.7228
 4535SOL     OW15281   3.254   0.102   0.122  0.7725  0.4938  0.2965
 4535SOL    HW115282   3.305   0.022   0.108 -2.5715 -1.2855 -2.6839
 4535SOL    HW215283   3.295   0.167   0.066  2.2654  0.3155  1.1495
 4536SOL     OW15284   5.812   2.252   8.796  0.1297 -0.4956 -0.5815
 4536SOL    HW115285   5.727   2.282   8.764 -0.5946 -0.6348  1.1695
 4536SOL    HW215286   5.809   2.157   8.789  0.2839 -0.4811 -0.8581
 4537SOL     OW15287   2.337   6.832   5.054  0.2686  0.3266 -0.6339
 4537SOL    HW115288   2.294   6.775   4.991  0.6051 -0.4926 -0.1321
 4537SOL    HW215289   2.348   6.915   5.008 -1.6666  0.5009 -0.8426
 4538SOL     OW15290   8.173   5.858   4.520  0.0624  0.0241  0.3349
 4538SOL    HW115291   8.173   5.953   4.520 -1.9566  0.0329  1.1090
 4538SOL    HW215292   8.134   5.833   4.604  0.9902 -1.4992  0.3524
 4539SOL     OW15293   3.605   6.643   8.613  0.0378  0.0372 -0.1767
 4539SOL    HW115294   3.557   6.722   8.639  1.7886  1.1207 -0.1437
 4539SOL    HW215295   3.649   6.669   8.532  0.5778 -0.9329 -0.1904
 4540SOL     OW15296   3.656   3.771   2.522 -0.1346 -0.7040 -0.3042
 4540SOL    HW115297   3.681   3.829   2.449  0.1038 -0.0238  0.3132
 4540SOL    HW215298   3.561   3.783   2.529 -0.2701 -1.3700 -1.0162
 4541SOL     OW15299   8.230   0.797   7.123 -0.1127 -0.2481  0.2373
 4541SOL    HW115300   8.230   0.707   7.092  3.5029 -0.4178  0.4494
 4541SOL    HW215301   8.203   0.790   7.215  0.8322 -1.2186  0.4554
 4542SOL     OW15302   4.824   1.582   2.113  0.0457  0.5919 -0.3305
 4542SOL    HW115303   4.858   1.670   2.133  0.4287  0.0493  1.5443
 4542SOL    HW215304   4.852   1.529   2.188 -0.7600 -0.9778 -1.1341
 4543SOL     OW15305   6.399   8.459   1.820  0.1276 -0.2520  0.3049
 4543SOL    HW115306   6.384   8.516   1.895  1.9896 -0.7398  1.0849
 4543SOL    HW215307   6.316   8.413   1.808  0.4213 -1.7168  3.4159
 4544SOL     OW15308   4.583   2.003   6.499 -0.0039  0.2378  0.0403
 4544SOL    HW115309   4.670   2.032   6.524 -0.3340  0.1806  1.2740
 4544SOL    HW215310   4.565   1.928   6.555 -0.6365 -0.0818 -0.5754
 4545SOL     OW15311   2.406   6.078   1.133  0.5912  0.1334 -0.0135
 4545SOL    HW115312   2.382   5.986   1.126  1.0950  0.0788 -1.1515
 4545SOL    HW215313   2.429   6.104   1.044  0.1946  1.4350  0.2476
 4546SOL     OW15314   0.769   2.800   5.387  0.2719  0.1886  0.5124
 4546SOL    HW115315   0.744   2.854   5.312  0.3742  1.0142  1.0683
 4546SOL    HW215316   0.713   2.832   5.458  0.6190 -0.1713  0.9450
 4547SOL     OW15317   7.441   7.226   3.058 -1.0647 -0.4670 -0.4299
 4547SOL    HW115318   7.495   7.194   3.130 -0.6684 -1.2311 -1.0677
 4547SOL    HW215319   7.351   7.216   3.090 -0.8967 -0.9216 -0.0919
 4548SOL     OW15320   9.175   4.311   9.289 -0.2246  0.0307  0.3978
 4548SOL    HW115321   9.111   4.244   9.314 -0.7348  0.2818 -0.2135
 4548SOL    HW215322   9.135   4.393   9.317  1.1181 -0.0290  2.6083
 4549SOL     OW15323   1.772   6.540   5.878 -0.1910  0.3120  0.5410
 4549SOL    HW115324   1.800   6.584   5.958 -0.0252  0.6151  0.3203
 4549SOL    HW215325   1.849   6.544   5.821 -0.1673 -0.2871  0.5256
 4550SOL     OW15326   1.597   4.321   5.441 -0.2375 -0.4629 -0.5273
 4550SOL    HW115327   1.675   4.285   5.484 -1.9421 -2.8971  0.6559
 4550SOL    HW215328   1.603   4.291   5.350  1.8249  2.1355 -1.3119
 4551SOL     OW15329   7.554   8.747   5.685  0.0704 -0.3881 -0.3901
 4551SOL    HW115330   7.470   8.702   5.681 -0.7588  1.1074 -0.0186
 4551SOL    HW215331   7.574   8.755   5.778  0.5108 -0.5409 -0.4694
 4552SOL     OW15332   5.301   3.795   6.056 -0.5745 -0.3210  0.4732
 4552SOL    HW115333   5.341   3.811   6.142 -0.7136 -0.1099  0.4994
 4552SOL    HW215334   5.221   3.849   6.057  0.2446  0.9303 -0.3939
 4553SOL     OW15335   2.916   8.425   7.602  0.7170  0.3704  0.2897
 4553SOL    HW115336   2.896   8.434   7.508  1.8174  2.6828  0.2443
 4553SOL    HW215337   2.860   8.489   7.645 -0.2774 -1.1644  1.2918
 4554SOL     OW15338   5.093   4.553   5.883  0.6808  0.2257 -0.4252
 4554SOL    HW115339   5.019   4.613   5.875  0.3908  0.2887  2.4112
 4554SOL    HW215340   5.104   4.516   5.795  0.3556  3.8062 -2.0413
 4555SOL     OW15341   4.063   3.594   4.347 -0.1580  0.2154  0.0215
 4555SOL    HW115342   4.106   3.520   4.388 -1.0342 -0.0273  0.4995
 4555SOL    HW215343   4.052   3.658   4.417 -1.1134  0.0394  0.0318
 4556SOL     OW15344   5.223   2.523   6.996  0.4220 -0.1071 -0.1325
 4556SOL    HW115345   5.158   2.569   6.941  0.7586  0.4623 -0.0497
 4556SOL    HW215346   5.272   2.469   6.934  0.8157  0.5527 -0.4009
 4557SOL     OW15347   8.430   4.413   4.563  0.0102 -0.4731  0.1973
 4557SOL    HW115348   8.466   4.348   4.623  1.4062  0.4333  0.3582
 4557SOL    HW215349   8.475   4.494   4.585  0.8173 -0.1894 -2.3014
 4558SOL     OW15350   3.411   8.330   0.672  0.2153 -0.2943 -0.1220
 4558SOL    HW115351   3.456   8.263   0.724 -1.3325  0.3587  2.1371
 4558SOL    HW215352   3.440   8.413   0.709 -1.9987  0.1595  0.6953
 4559SOL     OW15353   1.706   6.167   2.106 -0.6016 -0.7219  0.8774
 4559SOL    HW115354   1.737   6.109   2.176  0.7699 -1.3108 -0.2064
 4559SOL    HW215355   1.706   6.113   2.027 -2.2096 -0.0815  0.4035
 4560SOL     OW15356   4.633   1.757   3.595 -0.1194 -0.2214  0.3423
 4560SOL    HW115357   4.728   1.763   3.580 -0.3239  0.3753 -0.8380
 4560SOL    HW215358   4.624   1.741   3.689  1.0912  1.7976  0.8238
 4561SOL     OW15359   8.489   7.471   5.868 -0.4728  0.4531  0.2900
 4561SOL    HW115360   8.494   7.555   5.822  0.2873  0.8517  1.0872
 4561SOL    HW215361   8.445   7.491   5.950  1.0937  0.3840  1.1648
 4562SOL     OW15362   4.333   2.725   5.024 -0.5132 -0.2774  0.4011
 4562SOL    HW115363   4.270   2.781   5.070 -0.3100  0.7993 -0.5929
 4562SOL    HW215364   4.408   2.782   5.007  0.3318 -1.2809  0.7207
 4563SOL     OW15365   6.213   0.658   3.156  0.3055 -0.0185 -0.2137
 4563SOL    HW115366   6.214   0.613   3.240  1.2694  0.3181 -0.0461
 4563SOL    HW215367   6.198   0.750   3.177 -0.3059 -0.0506 -0.4730
 4564SOL     OW15368   8.591   3.640   5.196 -0.5374 -0.0196 -0.2218
 4564SOL    HW115369   8.686   3.645   5.209 -0.6454  1.6837 -0.0166
 4564SOL    HW215370   8.579   3.563   5.140  0.9930 -0.0500 -0.5355
 4565SOL     OW15371   5.261   9.217   8.987  0.0145 -0.0013 -0.1616
 4565SOL    HW115372   5.335   9.188   8.932  0.6681  0.9702  0.1973
 4565SOL    HW215373   5.299   9.229   9.074 -0.2729  1.7886 -0.2704
 4566SOL     OW15374   6.427   3.757   7.974 -0.0212 -0.0836  0.4220
 4566SOL    HW115375   6.450   3.776   7.883  0.7555  1.7374  0.9705
 4566SOL    HW215376   6.436   3.662   7.982  1.4628 -0.0815 -0.9764
 4567SOL     OW15377   3.866   8.608   8.582  0.2425 -0.0307 -0.3100
 4567SOL    HW115378   3.798   8.637   8.521  2.6111  1.0012 -2.5388
 4567SOL    HW215379   3.849   8.515   8.595 -0.4352 -0.2071 -2.3924
 4568SOL     OW15380   0.240   7.157   0.572  0.2809  0.0810  0.0622
 4568SOL    HW115381   0.183   7.200   0.507 -0.5349 -0.1775  0.6036
 4568SOL    HW215382   0.194   7.077   0.595  1.6482 -0.9584 -0.7118
 4569SOL     OW15383   6.669   8.368   3.929  0.0959  0.3481  0.4777
 4569SOL    HW115384   6.639   8.279   3.911  2.3956 -0.0306 -1.7743
 4569SOL    HW215385   6.701   8.365   4.019  0.5058 -1.1901  0.2854
 4570SOL     OW15386   7.343   2.127   3.351  0.0040 -0.1615  0.1147
 4570SOL    HW115387   7.363   2.037   3.380  0.5354  0.0058  0.2745
 4570SOL    HW215388   7.412   2.180   3.390  0.2968  0.1734 -0.8542
 4571SOL     OW15389   0.605   2.941   3.423  0.0093 -0.2081 -0.1038
 4571SOL    HW115390   0.549   2.894   3.361  0.3003  1.1096 -1.3974
 4571SOL    HW215391   0.631   2.874   3.487  0.4972 -1.8680 -1.9648
 4572SOL     OW15392   5.330   4.287   1.003 -0.2352 -0.1170 -0.2126
 4572SOL    HW115393   5.346   4.231   1.080 -0.9531  0.6364  0.4911
 4572SOL    HW215394   5.405   4.271   0.946 -1.4580 -3.4304 -0.9985
 4573SOL     OW15395   9.281   0.914   3.550  0.0689 -0.4473  0.3031
 4573SOL    HW115396   9.264   0.821   3.544 -0.1148 -0.3781 -0.2164
 4573SOL    HW215397   9.332   0.924   3.631  0.9924 -1.1190 -0.1979
 4574SOL     OW15398   1.279   0.837   0.007  0.4338  0.9428  0.1606
 4574SOL    HW115399   1.363   0.841   0.051  0.6784 -2.0709  0.0563
 4574SOL    HW215400   1.214   0.836   0.077  0.6414 -0.0709  0.3351
 4575SOL     OW15401   3.144   3.927   5.082  0.5171  0.2882 -0.1613
 4575SOL    HW115402   3.097   3.898   5.160  1.7655 -0.4122  0.3397
 4575SOL    HW215403   3.148   4.022   5.091 -1.2788  0.4217 -0.4960
 4576SOL     OW15404   4.789   4.445   2.313  0.4607  0.0324  0.7124
 4576SOL    HW115405   4.715   4.454   2.253 -1.2445 -1.5348  2.5132
 4576SOL    HW215406   4.865   4.431   2.256 -1.2680 -2.5434 -1.0656
 4577SOL     OW15407   8.825   2.359   9.266 -0.5587  0.3529  0.3381
 4577SOL    HW115408   8.836   2.453   9.249 -0.1053  0.6157  2.0487
 4577SOL    HW215409   8.777   2.354   9.348 -2.0174 -0.9270 -0.5599
 4578SOL     OW15410   8.734   0.074   1.817 -0.0574 -0.2457  0.3213
 4578SOL    HW115411   8.651   0.047   1.775 -0.2262 -0.4740  0.7972
 4578SOL    HW215412   8.798   0.010   1.785  0.1876  0.6304 -0.9761
 4579SOL     OW15413   5.066   3.551   1.059 -0.7527 -0.2600  0.1872
 4579SOL    HW115414   5.104   3.494   1.126  0.6290 -0.0911 -0.4300
 4579SOL    HW215415   5.117   3.632   1.065 -1.9683  0.5135  0.3007
 4580SOL     OW15416   1.815   6.583   2.353  0.3882  0.2265  0.3208
 4580SOL    HW115417   1.835   6.533   2.274 -0.9196 -0.8311  0.6360
 4580SOL    HW215418   1.780   6.519   2.414  0.2155  1.2511  1.3230
 4581SOL     OW15419   3.064   9.069   4.696 -0.2307 -0.3927 -0.5137
 4581SOL    HW115420   3.112   8.987   4.693 -1.9794 -1.4334 -0.8259
 4581SOL    HW215421   3.051   9.086   4.789  0.7056 -0.1184 -0.4298
 4582SOL     OW15422   1.409   7.088   4.848 -0.0075  0.1103 -0.4707
 4582SOL    HW115423   1.439   7.091   4.939  0.3042  0.9855 -0.5895
 4582SOL    HW215424   1.424   7.177   4.815 -0.4079 -0.1132 -1.2848
 4583SOL     OW15425   4.992   6.528   5.222  0.4959 -0.2998 -0.4321
 4583SOL    HW115426   4.982   6.464   5.152 -2.6665 -0.8936  0.4890
 4583SOL    HW215427   4.906   6.534   5.262  1.5984  1.9522  1.7741
 4584SOL     OW15428   2.755   8.933   1.474  0.0673 -0.3590  0.2131
 4584SOL    HW115429   2.760   8.968   1.563 -0.1394  1.5036 -0.4736
 4584SOL    HW215430   2.843   8.948   1.438  0.1963 -1.2472  0.1520
 4585SOL     OW15431   6.377   3.228   6.608 -0.0330  1.2063  0.3838
 4585SOL    HW115432   6.312   3.243   6.539 -1.9791 -0.7899  1.7038
 4585SOL    HW215433   6.324   3.210   6.686  2.1121 -1.0835  1.3669
 4586SOL     OW15434   5.442   5.255   2.793 -0.4142  0.1926  0.0778
 4586SOL    HW115435   5.422   5.186   2.856  0.1052  0.9000  1.0380
 4586SOL    HW215436   5.507   5.310   2.837 -1.6474  1.9345 -0.2243
 4587SOL     OW15437   5.421   5.546   2.233  0.0760 -0.5252 -0.5107
 4587SOL    HW115438   5.472   5.522   2.310  0.5635 -1.4276 -1.1150
 4587SOL    HW215439   5.451   5.487   2.164 -1.1908 -0.5098 -1.0916
 4588SOL     OW15440   6.172   3.322   0.710  0.6713 -0.5006  0.0315
 4588SOL    HW115441   6.199   3.238   0.673  1.6330 -0.3942  0.4751
 4588SOL    HW215442   6.207   3.322   0.799  3.6274  1.7524 -1.0296
 4589SOL     OW15443   1.226   3.508   1.809  0.4949  0.5705 -0.0439
 4589SOL    HW115444   1.286   3.490   1.882  0.0994  0.2489  0.2032
 4589SOL    HW215445   1.277   3.487   1.731  0.7347  0.3776  0.1624
 4590SOL     OW15446   2.780   1.903   3.249  0.0906 -0.6168  0.3262
 4590SOL    HW115447   2.744   1.862   3.328  0.2222 -0.5805  0.4066
 4590SOL    HW215448   2.862   1.855   3.234  0.0495 -0.6455  0.1923
 4591SOL     OW15449   8.195   6.461   2.161  0.1925 -0.3541 -0.2492
 4591SOL    HW115450   8.271   6.500   2.118  0.0805 -0.7441 -0.8070
 4591SOL    HW215451   8.140   6.536   2.187  0.8617 -0.0640  0.3444
 4592SOL     OW15452   7.672   2.943   6.206 -0.3452  0.5056 -0.0692
 4592SOL    HW115453   7.715   2.998   6.140 -1.3989  0.2174 -1.0152
 4592SOL    HW215454   7.734   2.872   6.222 -0.5506 -0.0399 -1.5971
 4593SOL     OW15455   3.610   3.765   6.684  0.1850 -0.0474  0.2307
 4593SOL    HW115456   3.599   3.770   6.779 -0.2224 -0.7952  0.2222
 4593SOL    HW215457   3.535   3.716   6.653  1.0949 -1.1085 -0.3228
 4594SOL     OW15458   0.455   2.336   0.470 -0.4939 -0.1253 -0.0364
 4594SOL    HW115459   0.494   2.414   0.511 -1.1245 -0.1824  0.6807
 4594SOL    HW215460   0.413   2.369   0.391  0.1713  0.0889 -0.3052
 4595SOL     OW15461   8.059   4.567   2.871  0.3288  0.2427 -0.1393
 4595SOL    HW115462   8.136   4.597   2.920 -0.0353 -0.1846  0.7024
 4595SOL    HW215463   8.038   4.639   2.812  0.1603  1.1663  1.0488
 4596SOL     OW15464   7.593   7.055   6.147 -0.0825  0.2544 -0.2812
 4596SOL    HW115465   7.523   6.990   6.149 -0.4810  0.6991  0.2276
 4596SOL    HW215466   7.633   7.051   6.234  0.0724  0.4921 -0.3383
 4597SOL     OW15467   9.226   7.585   1.585 -0.2806  0.0580 -0.2229
 4597SOL    HW115468   9.262   7.569   1.498  0.3764 -3.1347  0.5582
 4597SOL    HW215469   9.131   7.577   1.574 -0.2815  0.8423 -0.8364
 4598SOL     OW15470   1.988   5.448   0.009  0.2531 -0.2624  0.2373
 4598SOL    HW115471   1.974   5.535  -0.028 -0.2635  0.3303  1.7910
 4598SOL    HW215472   1.904   5.425   0.049 -0.0758 -2.1107 -1.4119
 4599SOL     OW15473   8.651   1.681   8.995  0.6994 -0.0495 -0.0899
 4599SOL    HW115474   8.713   1.672   9.067 -0.5797 -1.4314  0.8682
 4599SOL    HW215475   8.596   1.602   9.000 -0.8600  0.9299 -1.1557
 4600SOL     OW15476   9.149   5.234   8.011 -0.4748 -0.0795  0.1761
 4600SOL    HW115477   9.059   5.264   8.023 -0.6301 -0.3971 -0.1833
 4600SOL    HW215478   9.144   5.139   8.017  0.0076 -0.0370  1.2437
 4601SOL     OW15479   3.422   2.639   1.776 -0.5729 -0.7518 -0.6576
 4601SOL    HW115480   3.394   2.727   1.751 -2.3129 -1.5417 -1.6022
 4601SOL    HW215481   3.514   2.648   1.799 -1.2423  1.7365  1.3092
 4602SOL     OW15482   6.654   5.119   6.933  0.2827 -0.0164 -0.1858
 4602SOL    HW115483   6.693   5.033   6.916  1.0199  0.4653 -1.0155
 4602SOL    HW215484   6.639   5.156   6.846 -2.2488 -0.2593  0.1045
 4603SOL     OW15485   8.711   4.413   3.448  0.4432 -0.0030  0.3199
 4603SOL    HW115486   8.639   4.356   3.475  0.8413 -0.5076  0.3347
 4603SOL    HW215487   8.747   4.447   3.529  1.1343 -0.8912  0.3961
 4604SOL     OW15488   7.963   6.690   4.037  0.3023  0.3280  0.0504
 4604SOL    HW115489   7.998   6.606   4.006 -2.7173 -0.6711 -0.8033
 4604SOL    HW215490   8.002   6.701   4.123  0.0440 -2.4428  0.5744
 4605SOL     OW15491   5.366   4.183   8.788  0.4646  0.2334 -0.3206
 4605SOL    HW115492   5.327   4.122   8.725  0.3145  1.6175 -1.5708
 4605SOL    HW215493   5.342   4.147   8.874 -0.8079 -0.7036 -1.0519
 4606SOL     OW15494   8.664   7.654   4.711 -0.2219 -0.0197  0.7338
 4606SOL    HW115495   8.574   7.644   4.680 -0.2819  3.4247 -0.4098
 4606SOL    HW215496   8.656   7.701   4.794  0.5414  0.5482  0.4869
 4607SOL     OW15497   2.126   4.563   4.695  0.2383  0.8071  0.5573
 4607SOL    HW115498   2.211   4.580   4.654 -0.0224 -1.6833 -1.0840
 4607SOL    HW215499   2.062   4.577   4.624 -0.7289  2.3838  1.7031
 4608SOL     OW15500   9.170   6.237   4.254 -0.0062  0.6230  0.3693
 4608SOL    HW115501   9.089   6.273   4.288  0.4261  2.8436 -0.8056
 4608SOL    HW215502   9.224   6.314   4.236  0.7985 -0.5822 -2.6644
 4609SOL     OW15503   6.852   6.789   7.643 -0.3540  0.2356  0.0748
 4609SOL    HW115504   6.932   6.836   7.620  0.3100 -0.8954  0.0183
 4609SOL    HW215505   6.784   6.856   7.643  0.6956  1.3230  0.7358
 4610SOL     OW15506   8.649   2.101   2.946  0.0788 -0.0699  0.0101
 4610SOL    HW115507   8.597   2.124   3.023 -0.8842  1.4216 -1.0410
 4610SOL    HW215508   8.707   2.176   2.933 -0.6912  0.2929 -1.4669
 4611SOL     OW15509   0.961   5.735   2.257  0.4329  0.1967 -0.1589
 4611SOL    HW115510   0.916   5.717   2.174  0.0397  1.6041 -0.2667
 4611SOL    HW215511   0.940   5.660   2.313 -0.7239  0.0724 -0.7473
 4612SOL     OW15512   2.038   2.650   8.174 -0.1300 -0.4073  0.1744
 4612SOL    HW115513   1.981   2.727   8.168  0.1974 -0.1627  0.1710
 4612SOL    HW215514   1.989   2.580   8.133 -0.5377 -0.2561  0.4049
 4613SOL     OW15515   1.864   5.427   0.661 -0.3852  0.1171  0.3261
 4613SOL    HW115516   1.877   5.461   0.750 -0.6103  0.2032  0.3286
 4613SOL    HW215517   1.787   5.371   0.668 -1.6288  1.7043 -0.2172
 4614SOL     OW15518   1.948   3.825   0.726  0.0645  0.3192 -0.1607
 4614SOL    HW115519   1.868   3.802   0.773 -0.2558 -0.9382 -1.2908
 4614SOL    HW215520   2.015   3.770   0.767  0.1351  0.5443  0.0270
 4615SOL     OW15521   4.428   3.734   1.330 -0.1476  0.0887  0.5235
 4615SOL    HW115522   4.516   3.772   1.323  0.6331 -1.8357 -0.3570
 4615SOL    HW215523   4.434   3.652   1.282 -2.7576  0.4846 -0.5309
 4616SOL     OW15524   8.090   5.613   3.899 -0.2716 -0.0081  0.1461
 4616SOL    HW115525   8.023   5.679   3.882  0.1385  0.5158  0.5101
 4616SOL    HW215526   8.139   5.606   3.817  0.2523  0.8145  0.3749
 4617SOL     OW15527   7.071   7.927   3.466  0.4256  0.2763 -0.1373
 4617SOL    HW115528   7.000   7.913   3.528  0.1855  1.7907 -0.0612
 4617SOL    HW215529   7.028   7.936   3.381  0.6928 -0.9097 -0.4144
 4618SOL     OW15530   3.093   4.202   5.093  0.7452  0.2507  0.3676
 4618SOL    HW115531   3.161   4.256   5.134  1.7697 -0.8178  0.1059
 4618SOL    HW215532   3.011   4.237   5.127  1.5462 -0.4857  3.2005
 4619SOL     OW15533   8.056   3.009   3.509 -0.0964  0.1898  0.3459
 4619SOL    HW115534   8.022   3.049   3.429  0.8055 -0.9618 -0.6424
 4619SOL    HW215535   8.145   3.042   3.516  0.5849 -1.4210 -0.3665
 4620SOL     OW15536   3.411   9.178   0.091  0.3638  0.2733 -1.0392
 4620SOL    HW115537   3.501   9.147   0.085  0.9441  1.9376 -1.0427
 4620SOL    HW215538   3.369   9.116   0.151  2.3863  1.4039  1.6553
 4621SOL     OW15539   8.470   5.245   7.970 -0.3199 -0.9298 -0.0550
 4621SOL    HW115540   8.465   5.339   7.955  2.0626 -0.7548  0.0024
 4621SOL    HW215541   8.431   5.232   8.057 -1.9212 -0.1964 -0.6577
 4622SOL     OW15542   6.048   5.217   2.970 -0.5760  0.0323  0.9537
 4622SOL    HW115543   6.056   5.139   2.915 -0.6110 -0.4230  1.5823
 4622SOL    HW215544   6.001   5.280   2.916  1.4571  0.4307 -0.3906
 4623SOL     OW15545   6.417   0.139   1.846 -0.0107 -0.1807 -0.1211
 4623SOL    HW115546   6.391   0.202   1.779 -0.0860  0.9231  0.9328
 4623SOL    HW215547   6.485   0.086   1.804 -0.6062 -0.0042 -1.3228
 4624SOL     OW15548   0.352   4.817   8.678 -0.2257 -0.5357  0.1473
 4624SOL    HW115549   0.265   4.823   8.638 -0.3309 -1.0761  0.2877
 4624SOL    HW215550   0.337   4.835   8.771 -0.4196 -2.0465  0.4287
 4625SOL     OW15551   5.198   8.381   7.678 -0.6085  0.7081 -0.7722
 4625SOL    HW115552   5.115   8.359   7.721  0.3016  0.5645  0.9816
 4625SOL    HW215553   5.248   8.428   7.746  1.6386 -1.1965 -1.0228
 4626SOL     OW15554   9.263   5.977   4.842 -0.7364 -0.4438  0.4490
 4626SOL    HW115555   9.211   5.929   4.907  0.0743  0.8909  2.1202
 4626SOL    HW215556   9.342   5.923   4.829  0.8785  1.0798  3.4453
 4627SOL     OW15557   2.618   9.261   0.272 -0.2428 -0.0710  0.0574
 4627SOL    HW115558   2.676   9.191   0.300  0.3758 -0.1657 -1.3850
 4627SOL    HW215559   2.651   9.339   0.317  0.3121 -0.3393  0.1192
 4628SOL     OW15560   5.069   7.191   4.858 -0.0370  0.2568 -0.2699
 4628SOL    HW115561   5.098   7.277   4.887  0.8290  0.3886 -1.4913
 4628SOL    HW215562   5.103   7.182   4.769  1.3934 -2.0617  0.4454
 4629SOL     OW15563   6.538   4.690   6.942  0.1665 -0.2501 -0.2402
 4629SOL    HW115564   6.570   4.676   7.031 -1.9360 -1.9752  0.2632
 4629SOL    HW215565   6.576   4.619   6.891  1.9807  1.1582 -0.9337
 4630SOL     OW15566   0.625   7.614   0.395  0.2094  0.0873 -0.1481
 4630SOL    HW115567   0.539   7.610   0.437 -0.2453  0.5708 -1.0249
 4630SOL    HW215568   0.657   7.523   0.398 -0.6307 -0.2230 -0.4342
 4631SOL     OW15569   8.305   4.042   7.130  0.2751 -0.6993 -0.4281
 4631SOL    HW115570   8.318   4.059   7.224 -0.4721 -0.2898 -0.3889
 4631SOL    HW215571   8.278   4.126   7.094 -1.0449 -1.2121 -0.6963
 4632SOL     OW15572   2.805   5.783   4.439  0.0657 -0.3834 -0.0924
 4632SOL    HW115573   2.744   5.852   4.410  0.8744 -0.3833 -1.8664
 4632SOL    HW215574   2.892   5.822   4.428  0.5785 -1.9671 -1.9714
 4633SOL     OW15575   6.978   4.676   1.657 -0.6222 -0.6950 -0.0726
 4633SOL    HW115576   6.892   4.644   1.684 -0.2388 -1.9622 -0.3269
 4633SOL    HW215577   7.036   4.655   1.730 -0.2072 -1.3025 -0.5785
 4634SOL     OW15578   1.584   4.861   0.268  0.2041  0.0033 -0.0103
 4634SOL    HW115579   1.531   4.879   0.345 -2.4870 -1.6345 -1.3864
 4634SOL    HW215580   1.613   4.947   0.238 -2.8050  1.0821  0.0375
 4635SOL     OW15581   0.104   3.958   7.312 -0.4427 -0.6413  0.0011
 4635SOL    HW115582   0.023   3.928   7.354  0.4031 -0.3884  1.8526
 4635SOL    HW215583   0.173   3.934   7.373  0.9067 -0.8863 -1.5806
 4636SOL     OW15584   5.766   5.957   0.145 -0.1914 -0.0762  0.5917
 4636SOL    HW115585   5.674   5.964   0.170 -0.2373 -2.5360  1.1709
 4636SOL    HW215586   5.811   6.024   0.197 -1.8106  2.0275 -0.6467
 4637SOL     OW15587   6.502   4.391   5.687 -0.5242  0.1677 -0.0624
 4637SOL    HW115588   6.438   4.460   5.670 -0.7947  0.5640  2.3940
 4637SOL    HW215589   6.458   4.332   5.749  1.7324  0.8874  2.3380
 4638SOL     OW15590   2.063   6.996   7.340 -0.0425  0.1221 -0.3940
 4638SOL    HW115591   1.972   6.966   7.334  0.4290 -1.6975  1.0892
 4638SOL    HW215592   2.066   7.046   7.422 -0.0490  1.5375 -1.2297
 4639SOL     OW15593   7.772   8.852   0.774 -0.1337  0.2428  0.1194
 4639SOL    HW115594   7.849   8.891   0.733  0.5474 -0.7577  0.4449
 4639SOL    HW215595   7.791   8.759   0.779 -1.5319 -0.0763 -0.1525
 4640SOL     OW15596   4.538   3.540   2.799  0.2958 -0.1437  0.7328
 4640SOL    HW115597   4.461   3.489   2.823  0.7566 -0.4903  1.4895
 4640SOL    HW215598   4.506   3.630   2.788 -0.5274 -0.5892 -0.6543
 4641SOL     OW15599   3.055   4.822   8.301 -0.1711  0.4621  0.2785
 4641SOL    HW115600   3.052   4.806   8.206  0.6503  0.7729  0.1869
 4641SOL    HW215601   2.966   4.808   8.331 -0.4195  0.2650 -0.5335
 4642SOL     OW15602   5.437   4.616   3.122 -0.1807 -0.1968 -0.2411
 4642SOL    HW115603   5.396   4.560   3.056  0.2385 -1.0193  0.1960
 4642SOL    HW215604   5.364   4.647   3.175 -0.3949 -0.4579 -0.3817
 4643SOL     OW15605   8.415   6.293   0.933 -0.3823  0.4454  0.0530
 4643SOL    HW115606   8.460   6.245   1.002  0.5065  1.3382  0.1122
 4643SOL    HW215607   8.322   6.272   0.945  0.0177 -1.6203 -0.2318
 4644SOL     OW15608   5.199   7.030   2.324 -0.1033 -0.1888  0.3462
 4644SOL    HW115609   5.237   7.084   2.393  0.4678  0.9484 -0.8438
 4644SOL    HW215610   5.115   7.073   2.304  0.1265 -0.0225 -0.2630
 4645SOL     OW15611   5.453   0.429   7.052 -0.2422 -0.1328 -0.6041
 4645SOL    HW115612   5.484   0.457   7.139  0.6185 -0.8527 -0.6627
 4645SOL    HW215613   5.376   0.376   7.070  0.1572 -0.5989 -0.2409
 4646SOL     OW15614   9.148   3.354   2.985 -0.2059  0.5596  0.4774
 4646SOL    HW115615   9.059   3.366   3.019 -1.0946 -0.2178 -1.5050
 4646SOL    HW215616   9.192   3.303   3.053 -1.6863 -0.2569  0.8487
 4647SOL     OW15617   1.584   8.327   5.325 -0.7725 -0.3420  0.5223
 4647SOL    HW115618   1.599   8.254   5.265  0.5981  1.3297 -1.2183
 4647SOL    HW215619   1.653   8.319   5.391 -0.1821 -0.1937 -0.0775
 4648SOL     OW15620   6.333   8.987   0.136  0.0267  0.1802  0.3349
 4648SOL    HW115621   6.410   8.943   0.100  1.0882  1.6730  0.7157
 4648SOL    HW215622   6.366   9.071   0.167 -1.9653  1.3311 -0.5250
 4649SOL     OW15623   9.277   2.949   5.957  0.1801  0.2557  0.1720
 4649SOL    HW115624   9.359   2.998   5.948  1.3034 -1.8078 -1.2139
 4649SOL    HW215625   9.238   2.953   5.869 -0.9689  0.8147  0.7037
 4650SOL     OW15626   0.731   9.282   6.375  0.1170  0.4056 -0.6713
 4650SOL    HW115627   0.781   9.219   6.322 -0.3970  1.7728 -2.8382
 4650SOL    HW215628   0.786   9.297   6.452  1.0882 -1.2839 -1.0047
 4651SOL     OW15629   7.527   2.631   8.079  0.5060 -0.6213 -0.7478
 4651SOL    HW115630   7.459   2.624   8.012  0.0682  0.0835 -0.3764
 4651SOL    HW215631   7.540   2.541   8.109  0.0876 -0.8245 -1.1657
 4652SOL     OW15632   3.177   5.836   1.710  0.0644  0.4597 -0.1036
 4652SOL    HW115633   3.093   5.802   1.679 -1.3997  1.1793  2.8997
 4652SOL    HW215634   3.154   5.908   1.768  2.8625  1.9243 -0.7271
 4653SOL     OW15635   5.938   5.809   1.768  0.3941  0.1499 -0.0963
 4653SOL    HW115636   5.958   5.745   1.700  0.0295 -1.4888  1.2924
 4653SOL    HW215637   5.950   5.761   1.850 -0.6503  1.6459  0.9585
 4654SOL     OW15638   4.016   2.482   0.929  0.0866 -0.0821 -0.0476
 4654SOL    HW115639   4.098   2.434   0.939 -0.1446 -0.8720 -1.8062
 4654SOL    HW215640   4.031   2.539   0.853 -0.6990  0.3983  0.1543
 4655SOL     OW15641   1.791   0.590   2.043  0.2792  0.0631 -0.4175
 4655SOL    HW115642   1.837   0.671   2.021 -0.1857  0.6237  0.6130
 4655SOL    HW215643   1.860   0.524   2.052  0.6193  0.2378 -1.7190
 4656SOL     OW15644   6.448   6.247   2.072 -0.5987  0.1326 -0.4522
 4656SOL    HW115645   6.510   6.176   2.090 -0.8375 -0.2573 -1.1554
 4656SOL    HW215646   6.433   6.288   2.157 -0.0946 -0.3644 -0.1224
 4657SOL     OW15647   4.295   1.331   5.772 -0.4280 -0.0767  0.1498
 4657SOL    HW115648   4.282   1.238   5.792 -1.0335 -0.8331 -3.3658
 4657SOL    HW215649   4.223   1.352   5.712  0.8926  2.0979 -0.7047
 4658SOL     OW15650   9.015   7.590   7.511 -0.0582  0.0599  0.1739
 4658SOL    HW115651   8.921   7.575   7.496 -0.5297  0.9931  2.0347
 4658SOL    HW215652   9.033   7.674   7.468 -0.0889 -0.0543 -0.0674
 4659SOL     OW15653   3.350   1.788   8.820 -0.2193  0.6322 -0.4372
 4659SOL    HW115654   3.314   1.763   8.905 -2.3338  0.2970 -1.4290
 4659SOL    HW215655   3.300   1.865   8.794  0.5930  0.8874 -1.2906
 4660SOL     OW15656   5.694   7.148   3.718  0.0918  0.4247 -0.5001
 4660SOL    HW115657   5.718   7.194   3.638  0.2971  1.4386  0.1407
 4660SOL    HW215658   5.718   7.208   3.789 -2.4091  0.5871  0.2332
 4661SOL     OW15659   4.127   6.077   2.550 -0.1072 -0.3452  0.1672
 4661SOL    HW115660   4.038   6.102   2.577 -0.4864 -2.1361  0.6229
 4661SOL    HW215661   4.115   5.999   2.497  1.0489  0.6014 -1.5224
 4662SOL     OW15662   8.080   3.281   7.295 -0.0645 -0.3350 -0.1711
 4662SOL    HW115663   8.030   3.273   7.377 -0.8669  0.1210 -0.6068
 4662SOL    HW215664   8.135   3.358   7.308 -0.6269  0.0905 -0.2795
 4663SOL     OW15665   5.258   1.743   8.612 -0.1235  0.1071  0.3164
 4663SOL    HW115666   5.252   1.838   8.598  1.9022  0.5498  2.1337
 4663SOL    HW215667   5.208   1.728   8.693 -0.2732 -0.3415  0.1415
 4664SOL     OW15668   3.537   6.382   2.731 -0.3099 -0.1760 -0.0067
 4664SOL    HW115669   3.582   6.396   2.815 -1.0653 -0.1263  0.3884
 4664SOL    HW215670   3.594   6.424   2.667  1.2148 -1.7892  0.2492
 4665SOL     OW15671   8.365   3.941   3.522  0.5542 -0.4397 -0.4149
 4665SOL    HW115672   8.346   3.866   3.578  2.1521 -0.8004 -0.3486
 4665SOL    HW215673   8.351   4.017   3.579  0.2223 -0.7223 -0.1100
 4666SOL     OW15674   6.866   5.097   8.542  0.0394 -0.1575  0.1147
 4666SOL    HW115675   6.829   5.180   8.572 -0.0744 -0.0853 -0.2278
 4666SOL    HW215676   6.957   5.119   8.519  0.1933 -0.2581  0.6120
 4667SOL     OW15677   2.834   1.346   3.141  0.1538  0.0531 -0.1738
 4667SOL    HW115678   2.914   1.338   3.089  0.1441 -0.8283 -0.0687
 4667SOL    HW215679   2.826   1.261   3.185 -1.9819 -0.6247 -1.8213
 4668SOL     OW15680   1.512   1.544   0.960 -0.0738 -0.1106  0.4240
 4668SOL    HW115681   1.417   1.543   0.951 -0.1298 -2.2045  0.8641
 4668SOL    HW215682   1.537   1.636   0.949 -2.0811  0.3757 -0.2747
 4669SOL     OW15683   2.755   0.367   3.030  0.1062  0.1850 -0.1156
 4669SOL    HW115684   2.763   0.272   3.022 -0.0240  0.3137 -1.9032
 4669SOL    HW215685   2.796   0.387   3.114  1.1376 -1.3198 -0.2376
 4670SOL     OW15686   4.903   7.749   7.034 -0.1363 -0.3107  0.5469
 4670SOL    HW115687   4.831   7.808   7.013 -0.2468 -0.2331  1.1212
 4670SOL    HW215688   4.981   7.793   7.000 -0.4958 -0.9430 -1.0981
 4671SOL     OW15689   3.329   4.434   7.448 -0.3974 -0.2960  0.3375
 4671SOL    HW115690   3.305   4.525   7.465  1.5449  0.1255  0.9747
 4671SOL    HW215691   3.415   4.439   7.406 -0.7707 -1.7897 -0.6136
 4672SOL     OW15692   2.709   2.262   4.035  0.3601  0.1130 -0.1362
 4672SOL    HW115693   2.690   2.260   3.941  1.6708  0.7803 -0.4395
 4672SOL    HW215694   2.779   2.327   4.043 -1.5937  2.0636  1.6652
 4673SOL     OW15695   2.767   4.642   4.684  0.2371  0.3261  0.5600
 4673SOL    HW115696   2.751   4.556   4.644 -0.1766  0.7293 -0.1373
 4673SOL    HW215697   2.821   4.688   4.621 -1.7385  1.5476 -0.2759
 4674SOL     OW15698   3.747   1.710   8.588  0.0874 -0.4535 -0.2949
 4674SOL    HW115699   3.705   1.770   8.649 -0.6150 -0.9329 -0.3004
 4674SOL    HW215700   3.791   1.645   8.643 -0.7960 -1.0596 -0.2815
 4675SOL     OW15701   3.617   3.142   2.811  0.5257  0.2139  0.4837
 4675SOL    HW115702   3.568   3.074   2.858  0.3777 -1.2638 -1.7305
 4675SOL    HW215703   3.551   3.205   2.783  0.2441 -0.3529 -0.1362
 4676SOL     OW15704   4.368   2.752   0.114  0.1281 -0.1067  0.0222
 4676SOL    HW115705   4.281   2.790   0.125  0.4386  0.1188  1.8079
 4676SOL    HW215706   4.354   2.678   0.055 -1.4461 -0.7161  1.1410
 4677SOL     OW15707   0.143   8.500   1.043  0.3380  0.6483  0.3528
 4677SOL    HW115708   0.164   8.407   1.048  1.0475  0.8308  0.9503
 4677SOL    HW215709   0.205   8.541   1.103  0.5104  1.5833 -0.4534
 4678SOL     OW15710   7.929   4.769   3.446 -0.2957  0.5705 -0.4061
 4678SOL    HW115711   7.932   4.759   3.350  0.9016  2.0210 -0.5305
 4678SOL    HW215712   7.991   4.839   3.465  2.0431 -1.9694  1.7389
 4679SOL     OW15713   8.353   0.945   6.216  0.5163 -0.0647  0.0546
 4679SOL    HW115714   8.372   0.885   6.288  1.2371  0.6708  0.4951
 4679SOL    HW215715   8.295   1.010   6.255  0.5573  0.0896 -0.1439
 4680SOL     OW15716   1.284   5.600   2.126  0.2669 -0.2015  0.2290
 4680SOL    HW115717   1.230   5.666   2.082  1.1689  0.8326  0.6414
 4680SOL    HW215718   1.331   5.557   2.055 -0.4874 -0.5662 -0.0641
 4681SOL     OW15719   5.160   0.530   1.417 -0.0445  0.4238 -0.4108
 4681SOL    HW115720   5.088   0.476   1.383  0.1328 -0.4981  0.6548
 4681SOL    HW215721   5.116   0.606   1.456 -0.5120 -0.4517  0.8223
 4682SOL     OW15722   8.349   2.041   1.440  0.0453 -0.2405 -0.0888
 4682SOL    HW115723   8.364   1.953   1.406  0.6330 -1.3020  2.8375
 4682SOL    HW215724   8.414   2.095   1.394  0.9451 -1.6512 -0.5328
 4683SOL     OW15725   7.942   8.422   5.031  0.3457  0.2857 -0.0041
 4683SOL    HW115726   7.918   8.358   4.964 -0.3431  0.9534 -0.4023
 4683SOL    HW215727   8.015   8.382   5.078  1.3391  0.1322 -1.6470
 4684SOL     OW15728   2.993   7.770   5.972 -0.0388  0.3098  0.0866
 4684SOL    HW115729   3.041   7.708   5.918  0.6708  0.6020  0.3759
 4684SOL    HW215730   2.961   7.719   6.046  0.4803  0.2709  0.2854
 4685SOL     OW15731   5.692   3.861   0.179  0.2931 -0.1213  0.3281
 4685SOL    HW115732   5.633   3.810   0.233  0.9567 -0.6909  0.5255
 4685SOL    HW215733   5.752   3.902   0.242 -0.0136  0.6089  0.1473
 4686SOL     OW15734   3.465   0.169   4.945  0.3298  0.2600  0.4668
 4686SOL    HW115735   3.511   0.086   4.960  0.5894  0.1455 -0.8926
 4686SOL    HW215736   3.525   0.236   4.978  0.6313 -0.0180  0.4853
 4687SOL     OW15737   1.716   9.285   5.733  0.6885  0.1330 -0.5760
 4687SOL    HW115738   1.711   9.362   5.676 -0.5435  1.4922  1.3109
 4687SOL    HW215739   1.775   9.311   5.804 -0.2570 -0.4157  0.4244
 4688SOL     OW15740   2.047   8.138   2.401 -0.1999 -0.5668  0.0588
 4688SOL    HW115741   2.128   8.188   2.413  0.5505 -2.2214  2.2207
 4688SOL    HW215742   2.054   8.103   2.312  0.5474  0.9101 -0.4768
 4689SOL     OW15743   1.396   5.469   7.266 -0.4561 -0.3169 -0.0304
 4689SOL    HW115744   1.341   5.506   7.197 -0.1913 -0.4524 -0.3155
 4689SOL    HW215745   1.369   5.515   7.346 -2.1815 -1.6076  0.1453
 4690SOL     OW15746   1.492   3.657   6.407 -0.2712 -0.3122 -0.7063
 4690SOL    HW115747   1.489   3.583   6.346 -1.9281 -0.5571 -0.3562
 4690SOL    HW215748   1.544   3.626   6.481 -2.0855 -1.6333  0.0565
 4691SOL     OW15749   3.325   2.358   6.319  0.2400  0.4248  0.4156
 4691SOL    HW115750   3.287   2.407   6.246  0.7716  0.7295  0.3456
 4691SOL    HW215751   3.252   2.307   6.354  0.1366 -0.2675 -0.7747
 4692SOL     OW15752   9.194   8.356   1.070  0.6438 -0.6586 -0.2081
 4692SOL    HW115753   9.282   8.383   1.043  1.0700 -1.3910  0.4366
 4692SOL    HW215754   9.149   8.335   0.988  1.1828 -0.6280 -0.5114
 4693SOL     OW15755   8.745   0.392   6.395  0.1906 -0.0811 -0.2613
 4693SOL    HW115756   8.795   0.332   6.339 -1.4697 -0.8724 -0.9332
 4693SOL    HW215757   8.655   0.383   6.364 -0.7111 -0.2701  2.3044
 4694SOL     OW15758   6.879   7.160   4.915 -0.1149 -0.0968 -0.1033
 4694SOL    HW115759   6.818   7.233   4.927  0.6949  0.4750  0.6863
 4694SOL    HW215760   6.890   7.152   4.821 -0.0041  0.9905 -0.1853
 4695SOL     OW15761   3.498   3.265   7.664 -0.3821 -0.2850 -0.0378
 4695SOL    HW115762   3.414   3.255   7.619  0.4776 -0.3032 -1.6853
 4695SOL    HW215763   3.495   3.352   7.703 -1.3237 -0.4391  0.2329
 4696SOL     OW15764   5.764   9.196   0.339  0.1360  0.2905  0.1121
 4696SOL    HW115765   5.838   9.139   0.317  0.0274 -0.1324  0.8110
 4696SOL    HW215766   5.803   9.282   0.352  0.2851  0.4194 -1.1033
 4697SOL     OW15767   5.118   1.013   5.603 -0.0373 -0.5411  0.0859
 4697SOL    HW115768   5.032   1.025   5.644 -0.1870  0.3752 -0.4831
 4697SOL    HW215769   5.173   1.082   5.641  0.3514 -0.8886  0.1657
 4698SOL     OW15770   5.754   7.306   5.894  0.1564  0.4270 -0.0145
 4698SOL    HW115771   5.794   7.328   5.810 -0.4559 -1.7413 -0.9235
 4698SOL    HW215772   5.821   7.254   5.939 -0.5561 -0.8181 -0.3650
 4699SOL     OW15773   3.606   2.697   2.661  0.3192  0.0444  0.9910
 4699SOL    HW115774   3.660   2.622   2.685  0.3869 -0.2979 -0.2287
 4699SOL    HW215775   3.666   2.760   2.622  0.1810  0.5335  1.5577
 4700SOL     OW15776   5.201   4.951   4.332  0.2438 -0.2824 -0.3672
 4700SOL    HW115777   5.290   4.978   4.356  0.0059  0.3970 -0.2428
 4700SOL    HW215778   5.200   4.957   4.236  0.0736  0.5340 -0.3176
 4701SOL     OW15779   7.526   3.095   2.662  0.1581  0.1482  0.2049
 4701SOL    HW115780   7.455   3.124   2.605  0.4711  0.4487 -0.0354
 4701SOL    HW215781   7.489   3.099   2.750 -0.0601  0.4971  0.0984
 4702SOL     OW15782   3.230   0.739   7.035  0.2736  0.1650 -0.1868
 4702SOL    HW115783   3.235   0.645   7.020  0.2465  0.1589 -0.1571
 4702SOL    HW215784   3.289   0.777   6.970  1.0537  0.0631  0.4504
 4703SOL     OW15785   8.211   8.499   8.503  0.4005 -0.3151 -0.0724
 4703SOL    HW115786   8.168   8.513   8.588 -0.7308  0.4524 -0.7532
 4703SOL    HW215787   8.158   8.431   8.461 -0.0741  0.5299 -0.8563
 4704SOL     OW15788   8.649   6.230   7.425 -0.0311  0.1165  0.3045
 4704SOL    HW115789   8.650   6.325   7.437  2.0876  0.2100 -0.4416
 4704SOL    HW215790   8.674   6.217   7.333 -0.7456 -1.1451  0.2742
 4705SOL     OW15791   5.924   4.747   6.325  0.3985  0.1873 -0.8110
 4705SOL    HW115792   6.018   4.743   6.338  0.0904  0.5942  1.8715
 4705SOL    HW215793   5.892   4.662   6.358 -0.4989  1.4894  1.7822
 4706SOL     OW15794   3.926   0.562   3.540 -0.3618  0.2099 -0.0185
 4706SOL    HW115795   3.871   0.486   3.524  0.1429  0.1297 -1.3960
 4706SOL    HW215796   3.894   0.629   3.479  1.4040 -0.0185 -1.2380
 4707SOL     OW15797   8.889   2.048   6.397  0.6880  0.0084  0.8433
 4707SOL    HW115798   8.863   2.095   6.318  1.8102 -0.9190 -0.0942
 4707SOL    HW215799   8.949   2.108   6.442  2.1079 -0.4984 -0.3399
 4708SOL     OW15800   0.434   7.343   5.317 -0.0527  0.0398 -0.4537
 4708SOL    HW115801   0.414   7.279   5.249  4.1189 -0.7370 -1.1030
 4708SOL    HW215802   0.458   7.423   5.269  0.0888  0.3991  0.2042
 4709SOL     OW15803   0.032   0.789   4.803  0.1279  0.0251  0.2804
 4709SOL    HW115804   0.083   0.720   4.846  0.7695  0.4238  0.1682
 4709SOL    HW215805  -0.029   0.742   4.746 -0.8706 -0.5211  1.7571
 4710SOL     OW15806   2.952   7.167   3.537 -0.2046 -0.1831  0.1883
 4710SOL    HW115807   3.021   7.127   3.483  0.7209  1.7502 -0.1374
 4710SOL    HW215808   2.871   7.150   3.489  0.2860 -0.8024 -0.4338
 4711SOL     OW15809   8.844   8.237   6.535 -0.1945  0.7408 -0.0389
 4711SOL    HW115810   8.754   8.241   6.568 -0.3513 -1.5217 -0.0815
 4711SOL    HW215811   8.867   8.144   6.540  2.4930  1.4093  0.8736
 4712SOL     OW15812   4.990   0.450   0.790  0.0027  0.1479  0.2433
 4712SOL    HW115813   4.996   0.544   0.774  0.0009 -0.1122 -1.3062
 4712SOL    HW215814   5.008   0.441   0.884 -1.5785  1.8403  0.7427
 4713SOL     OW15815   9.073   2.321   6.197 -0.6690 -0.2869 -0.0860
 4713SOL    HW115816   9.145   2.259   6.188 -1.3739 -0.9687 -1.1323
 4713SOL    HW215817   9.072   2.342   6.290 -1.5003 -3.1744  0.6155
 4714SOL     OW15818   1.960   6.642   1.558 -0.0973 -0.2475  0.1072
 4714SOL    HW115819   1.977   6.682   1.644  1.7337 -0.8709  0.0450
 4714SOL    HW215820   1.894   6.576   1.576 -0.3402  0.1980  0.8896
 4715SOL     OW15821   2.180   7.207   0.753 -0.6123  0.3770 -0.8894
 4715SOL    HW115822   2.269   7.224   0.786 -1.1491  0.4545  0.5410
 4715SOL    HW215823   2.157   7.286   0.706 -0.1682  0.6209 -0.7042
 4716SOL     OW15824   4.207   3.822   4.768 -0.7326  0.2170 -0.3906
 4716SOL    HW115825   4.276   3.794   4.827  0.2169 -1.0321 -2.0515
 4716SOL    HW215826   4.145   3.869   4.824 -0.0982 -1.3122  1.6485
 4717SOL     OW15827   6.262   2.467   1.060  0.1548  0.0625 -0.4643
 4717SOL    HW115828   6.225   2.555   1.071 -0.4613 -0.4485  1.9509
 4717SOL    HW215829   6.185   2.409   1.060  0.7430 -0.7940  2.0582
 4718SOL     OW15830   6.605   6.583   0.524 -0.1768 -0.3549 -0.2360
 4718SOL    HW115831   6.584   6.642   0.451 -2.0671 -0.8416 -0.0852
 4718SOL    HW215832   6.583   6.496   0.492 -1.6877 -0.5010  1.1637
 4719SOL     OW15833   0.025   7.022   3.461 -0.2055  0.2095  0.5998
 4719SOL    HW115834  -0.029   7.096   3.488  0.3035  1.0470 -0.5844
 4719SOL    HW215835   0.112   7.042   3.495 -0.2416 -0.2498  0.9682
 4720SOL     OW15836   5.577   7.851   4.937  0.0646  0.2655  0.2958
 4720SOL    HW115837   5.503   7.838   4.997  0.6556  1.2135  1.2628
 4720SOL    HW215838   5.614   7.935   4.964  2.6059 -1.0338  1.0280
 4721SOL     OW15839   1.666   2.721   6.519  0.4361  0.1260  0.1250
 4721SOL    HW115840   1.614   2.800   6.529  0.2051 -0.1120  0.8307
 4721SOL    HW215841   1.664   2.680   6.605 -0.2350 -1.1371 -0.4805
 4722SOL     OW15842   6.361   3.078   6.044 -0.0751 -0.6164 -1.0136
 4722SOL    HW115843   6.353   3.173   6.029  0.4703 -0.4349 -0.1613
 4722SOL    HW215844   6.272   3.045   6.028 -0.2139 -0.0003 -1.5685
 4723SOL     OW15845   4.475   1.303   5.081 -0.2682  0.4169  0.0120
 4723SOL    HW115846   4.566   1.275   5.089 -0.7060 -1.0653  0.0819
 4723SOL    HW215847   4.437   1.286   5.167 -1.3579 -1.8875 -0.8665
 4724SOL     OW15848   4.056   7.339   8.649  0.2294  0.1850 -0.3723
 4724SOL    HW115849   3.972   7.297   8.634 -0.6557  1.9203 -0.3211
 4724SOL    HW215850   4.063   7.345   8.745 -0.2613  1.3716 -0.4054
 4725SOL     OW15851   4.174   6.958   2.451  0.1228 -0.2605 -0.6282
 4725SOL    HW115852   4.222   6.940   2.531  1.5928  0.5284 -1.3063
 4725SOL    HW215853   4.170   6.874   2.405 -0.2037 -0.5843 -0.0008
 4726SOL     OW15854   8.964   9.236   4.602 -0.1433  0.1368  0.0909
 4726SOL    HW115855   9.009   9.282   4.673  0.2108  1.0324 -0.7094
 4726SOL    HW215856   8.896   9.297   4.573 -1.2028 -0.7752  0.5701
 4727SOL     OW15857   6.315   7.191   4.801 -0.1214  0.7601 -0.0198
 4727SOL    HW115858   6.291   7.217   4.713  1.2193  1.9574 -0.0414
 4727SOL    HW215859   6.277   7.258   4.858  0.1084  0.6921  0.2158
 4728SOL     OW15860   1.835   3.944   8.783  0.8248 -0.2279 -0.4254
 4728SOL    HW115861   1.785   3.959   8.864  0.4791  0.4147 -0.7545
 4728SOL    HW215862   1.919   3.909   8.813  1.0077  0.7693  0.2729
 4729SOL     OW15863   1.230   2.610   5.226  0.1050  0.2735 -0.1340
 4729SOL    HW115864   1.183   2.671   5.169 -0.9668  0.6664  1.1613
 4729SOL    HW215865   1.225   2.649   5.313  1.9296 -0.2019  0.2118
 4730SOL     OW15866   3.171   7.885   7.240  0.1915  0.0944  0.0474
 4730SOL    HW115867   3.159   7.799   7.200  1.2623  0.0470 -0.1878
 4730SOL    HW215868   3.220   7.868   7.321 -0.8425  0.3308  0.7269
 4731SOL     OW15869   6.384   8.328   2.357 -0.0583  0.6894 -0.7243
 4731SOL    HW115870   6.405   8.421   2.359 -0.2572  0.7140  0.4705
 4731SOL    HW215871   6.317   8.320   2.289 -3.1357  2.0903  2.0196
 4732SOL     OW15872   4.928   6.517   0.721 -0.0900 -0.3983 -0.2820
 4732SOL    HW115873   4.965   6.528   0.809 -3.6330  0.3936  1.1786
 4732SOL    HW215874   4.933   6.422   0.705  2.6401 -0.3206 -0.2553
 4733SOL     OW15875   7.930   4.200   8.316  0.2757  0.8154  0.3916
 4733SOL    HW115876   7.905   4.195   8.408 -2.7011 -0.5474 -0.4406
 4733SOL    HW215877   7.999   4.135   8.306  0.5228  0.8815  1.6201
 4734SOL     OW15878   0.574   8.213   8.381 -0.2487  0.2597 -0.0534
 4734SOL    HW115879   0.482   8.239   8.378 -0.6996 -1.1909  0.7194
 4734SOL    HW215880   0.577   8.141   8.445  1.5756  0.9273  0.6479
 4735SOL     OW15881   2.004   5.083   6.037 -0.1783  0.0883 -0.0301
 4735SOL    HW115882   2.097   5.105   6.026 -0.4922  1.3461 -0.1513
 4735SOL    HW215883   1.993   5.076   6.132  0.4465 -1.8656 -0.0774
 4736SOL     OW15884   8.633   5.652   3.113  0.3565  0.4211  0.9241
 4736SOL    HW115885   8.700   5.628   3.177 -0.6976 -0.2133  1.7951
 4736SOL    HW215886   8.624   5.575   3.057  0.6853  0.6821  0.5011
 4737SOL     OW15887   1.389   8.621   6.358  0.3044 -0.2946 -0.3862
 4737SOL    HW115888   1.336   8.544   6.342 -1.0323  0.3736  0.7154
 4737SOL    HW215889   1.369   8.680   6.286 -0.3152 -0.1183 -0.0727
 4738SOL     OW15890   0.445   0.947   2.671  0.3174 -0.0201 -0.0209
 4738SOL    HW115891   0.467   0.861   2.708  0.5767 -0.6539 -1.6314
 4738SOL    HW215892   0.438   0.932   2.577 -1.3609  1.3682 -0.1521
 4739SOL     OW15893   3.683   0.176   4.657  0.0058 -0.1953 -0.8481
 4739SOL    HW115894   3.701   0.119   4.732 -0.9210 -0.0431 -0.5057
 4739SOL    HW215895   3.770   0.197   4.622  0.4470 -0.2952  0.1553
 4740SOL     OW15896   7.055   1.127   1.007 -0.4650 -0.6965 -0.1898
 4740SOL    HW115897   7.089   1.038   1.001  0.8881 -0.3669  1.9745
 4740SOL    HW215898   7.105   1.177   0.942 -0.5621 -1.3160 -0.7441
 4741SOL     OW15899   6.579   5.588   4.856  0.3152  0.1994  0.0362
 4741SOL    HW115900   6.561   5.494   4.865 -0.2482  0.1649 -1.4319
 4741SOL    HW215901   6.674   5.594   4.861  0.3523 -0.4448  0.2163
 4742SOL     OW15902   7.047   8.421   1.779  0.0039  0.1028  0.0571
 4742SOL    HW115903   7.004   8.466   1.706  1.0789 -0.4255 -0.9152
 4742SOL    HW215904   7.058   8.489   1.846  0.4567  0.9681 -0.8964
 4743SOL     OW15905   7.980   7.901   4.480  0.2168  0.1816 -0.1341
 4743SOL    HW115906   8.037   7.826   4.464 -1.1408 -1.1210  0.9738
 4743SOL    HW215907   7.983   7.952   4.399 -0.2257 -1.9935 -1.5499
 4744SOL     OW15908   1.265   5.454   6.681  0.1790 -0.1763 -0.0839
 4744SOL    HW115909   1.329   5.385   6.665  1.4691  0.7752  0.9366
 4744SOL    HW215910   1.270   5.509   6.602  0.2319 -0.3979 -0.2375
 4745SOL     OW15911   6.701   2.632   6.162 -0.4938  0.0670 -0.5049
 4745SOL    HW115912   6.652   2.714   6.165 -0.5334 -0.0227  1.6631
 4745SOL    HW215913   6.764   2.645   6.091 -0.5209  1.9598 -0.2198
 4746SOL     OW15914   4.747   1.167   1.660  0.5301 -0.3259 -0.1113
 4746SOL    HW115915   4.741   1.262   1.671  1.8978 -0.2470  0.0534
 4746SOL    HW215916   4.702   1.131   1.737 -0.2838  0.1770 -0.3444
 4747SOL     OW15917   4.101   2.896   8.430 -0.2504 -0.3233 -0.6656
 4747SOL    HW115918   4.128   2.805   8.432 -1.8477 -0.8014  0.1867
 4747SOL    HW215919   4.009   2.894   8.405 -0.7236  0.9323  0.8294
 4748SOL     OW15920   2.073   1.782   5.517 -0.2430  0.2086 -0.1344
 4748SOL    HW115921   2.020   1.713   5.476  0.6927 -0.6130  0.0147
 4748SOL    HW215922   2.032   1.864   5.489 -0.3896 -0.3727 -1.6640
 4749SOL     OW15923   4.513   1.776   0.673  0.0023  0.2967 -0.5590
 4749SOL    HW115924   4.520   1.738   0.586  1.4151 -1.4626  0.2759
 4749SOL    HW215925   4.603   1.797   0.698 -0.2347 -0.4511  0.9932
 4750SOL     OW15926   0.407   6.614   6.847  0.1702  0.1851 -0.3403
 4750SOL    HW115927   0.492   6.577   6.874  0.2756  0.3597 -0.4333
 4750SOL    HW215928   0.370   6.650   6.928 -0.2489 -0.7499 -0.1096
 4751SOL     OW15929   6.188   3.304   1.630 -0.6153  0.0270 -0.5033
 4751SOL    HW115930   6.144   3.337   1.708  0.7698  0.5515  0.0638
 4751SOL    HW215931   6.172   3.210   1.631 -0.5172  0.0188  0.4680
 4752SOL     OW15932   4.104   2.160   1.438 -0.5238 -0.4373 -0.2107
 4752SOL    HW115933   4.077   2.115   1.518  1.5313 -0.4209  0.5219
 4752SOL    HW215934   4.061   2.245   1.442 -1.4706 -0.9224  0.2205
 4753SOL     OW15935   8.756   1.220   1.601 -0.0695 -0.2903  0.1838
 4753SOL    HW115936   8.849   1.202   1.616  0.0841 -0.7868 -1.3495
 4753SOL    HW215937   8.753   1.305   1.558 -0.3263 -0.2838  0.2095
 4754SOL     OW15938   5.817   6.449   5.227 -0.3803  0.4034  0.1895
 4754SOL    HW115939   5.817   6.367   5.178 -0.1500  0.7735 -0.4308
 4754SOL    HW215940   5.886   6.439   5.292 -0.5863 -0.0262  0.3405
 4755SOL     OW15941   1.412   4.427   5.998 -0.5661  0.1879 -0.0951
 4755SOL    HW115942   1.446   4.411   5.910  0.0311 -1.1825  0.3713
 4755SOL    HW215943   1.489   4.424   6.054 -1.0790  0.0590  0.6069
 4756SOL     OW15944   1.205   6.705   7.176 -0.0179 -0.7527 -0.0221
 4756SOL    HW115945   1.219   6.636   7.241 -0.2430  0.3293  1.2185
 4756SOL    HW215946   1.127   6.751   7.207 -0.3648 -0.4633 -1.2933
 4757SOL     OW15947   1.582   1.822   6.251  0.3505 -0.6856  0.0370
 4757SOL    HW115948   1.532   1.850   6.328 -1.8508  0.2843 -1.6695
 4757SOL    HW215949   1.609   1.903   6.209 -0.3351 -1.1586 -1.3657
 4758SOL     OW15950   0.610   7.637   7.968 -0.3462 -0.1811  0.2348
 4758SOL    HW115951   0.656   7.711   8.007 -0.3323 -0.1503  0.1602
 4758SOL    HW215952   0.632   7.562   8.023 -2.0251  0.2587  1.5458
 4759SOL     OW15953   8.131   5.982   5.082  0.3096 -0.3800  0.0489
 4759SOL    HW115954   8.194   6.039   5.128  0.4958 -1.5656  1.2848
 4759SOL    HW215955   8.055   5.979   5.140  0.3290 -1.4480  0.0276
 4760SOL     OW15956   2.482   3.023   2.383  0.0726 -0.2688  0.4585
 4760SOL    HW115957   2.413   3.080   2.416  0.0523 -1.2187  2.1163
 4760SOL    HW215958   2.555   3.082   2.365 -1.4863  0.9043 -2.3728
 4761SOL     OW15959   4.141   5.305   7.138  0.1721 -0.2507  0.2209
 4761SOL    HW115960   4.189   5.264   7.067 -0.6003  0.7547 -0.8956
 4761SOL    HW215961   4.058   5.259   7.141 -0.4800  0.8678 -0.6735
 4762SOL     OW15962   8.447   4.218   6.830 -0.3885 -0.1807 -0.5435
 4762SOL    HW115963   8.376   4.240   6.891  0.9370 -0.0722  1.0123
 4762SOL    HW215964   8.469   4.128   6.851  1.3535  0.4602  0.4897
 4763SOL     OW15965   0.478   2.915   8.616 -0.0102  0.0364  0.4199
 4763SOL    HW115966   0.436   2.976   8.555  0.0632 -0.0507  0.2811
 4763SOL    HW215967   0.405   2.865   8.654 -0.0443 -0.0106  0.2929
 4764SOL     OW15968   6.727   1.529   4.466 -0.2239  0.3688 -0.4140
 4764SOL    HW115969   6.647   1.528   4.519 -0.7380  1.6657 -1.1404
 4764SOL    HW215970   6.759   1.619   4.474  0.8741 -0.0035 -0.5663
 4765SOL     OW15971   3.249   5.713   8.546 -0.1479  0.4879  0.1500
 4765SOL    HW115972   3.259   5.681   8.456  1.0049  0.6886  0.2043
 4765SOL    HW215973   3.278   5.640   8.601 -1.9624 -0.0722  0.4100
 4766SOL     OW15974   8.904   6.592   6.009  0.6746  0.0318  0.4098
 4766SOL    HW115975   8.816   6.628   6.013  1.1513  1.1462  1.2108
 4766SOL    HW215976   8.960   6.660   6.047  1.9655 -0.3907 -0.6709
 4767SOL     OW15977   5.406   2.346   2.215 -0.2973  0.1819  0.2659
 4767SOL    HW115978   5.466   2.298   2.158 -0.1189  0.9859 -0.2306
 4767SOL    HW215979   5.319   2.316   2.188 -0.2124  0.5366 -0.4022
 4768SOL     OW15980   1.737   5.186   8.882  0.2106 -0.0212 -0.3047
 4768SOL    HW115981   1.830   5.205   8.866 -0.3223  1.3324 -1.8440
 4768SOL    HW215982   1.703   5.265   8.923 -0.2056 -0.6556  0.6125
 4769SOL     OW15983   8.999   3.892   5.700 -0.5284  0.2809 -0.1774
 4769SOL    HW115984   9.091   3.874   5.681 -0.0579 -0.1760  2.4006
 4769SOL    HW215985   8.974   3.960   5.636  0.7782 -1.5607 -2.7197
 4770SOL     OW15986   0.287   3.478   8.811 -0.1346  0.0764  0.2790
 4770SOL    HW115987   0.248   3.556   8.850 -2.5713 -0.7536 -0.4218
 4770SOL    HW215988   0.373   3.471   8.853 -0.3261  2.5045  1.1461
 4771SOL     OW15989   2.944   0.894   3.109 -0.0605 -0.0464  0.2519
 4771SOL    HW115990   2.885   0.819   3.115 -2.5933  1.5380 -3.1705
 4771SOL    HW215991   2.999   0.876   3.033  1.0991  0.4037  0.9595
 4772SOL     OW15992   6.584   0.782   0.538 -0.0882  0.1468  0.2538
 4772SOL    HW115993   6.571   0.736   0.621  1.4500  0.2313  0.5456
 4772SOL    HW215994   6.671   0.755   0.508  2.2595  5.1746  1.9640
 4773SOL     OW15995   6.324   5.449   2.207  0.0351 -0.4057 -0.5639
 4773SOL    HW115996   6.292   5.486   2.289  0.0930  0.9632 -1.1472
 4773SOL    HW215997   6.301   5.356   2.212 -2.7477  0.2547 -0.3520
 4774SOL     OW15998   1.559   2.067   4.428  0.1518  0.2212 -0.0410
 4774SOL    HW115999   1.586   2.063   4.520  0.5429 -2.9106 -0.2270
 4774SOL    HW216000   1.469   2.036   4.428  0.2529 -0.0821 -0.7319
 4775SOL     OW16001   8.600   6.488   8.900  0.2081 -0.1438 -0.6376
 4775SOL    HW116002   8.556   6.418   8.853  0.6215 -0.8454  0.0089
 4775SOL    HW216003   8.535   6.517   8.965  0.0018  0.1506 -0.9676
 4776SOL     OW16004   4.120   8.151   8.087 -0.4366 -0.4443  0.9030
 4776SOL    HW116005   4.062   8.086   8.050  0.1719 -0.1220 -0.6732
 4776SOL    HW216006   4.063   8.224   8.111 -0.7650 -0.3342 -0.1674
 4777SOL     OW16007   6.694   5.079   7.291 -0.8455 -0.3169 -0.2606
 4777SOL    HW116008   6.680   5.087   7.385 -1.4031  1.5154 -0.4698
 4777SOL    HW216009   6.765   5.141   7.272  0.3012 -1.7824 -0.8278
 4778SOL     OW16010   4.087   4.233   6.975 -0.0986  0.5986  0.0569
 4778SOL    HW116011   4.139   4.305   6.940  0.1320 -0.0303 -0.8959
 4778SOL    HW216012   4.090   4.246   7.070  2.6938 -0.0084  0.1205
 4779SOL     OW16013   7.554   6.124   8.368  0.1042 -0.0370  0.0699
 4779SOL    HW116014   7.628   6.102   8.312 -0.3190  0.5964 -0.7621
 4779SOL    HW216015   7.477   6.093   8.320 -0.3044  1.0285  0.0091
 4780SOL     OW16016   0.060   1.042   4.882  0.0611  0.6789  0.0096
 4780SOL    HW116017   0.033   0.953   4.858  2.0742  0.1871 -0.4867
 4780SOL    HW216018   0.035   1.050   4.974 -1.2394  0.0467 -0.2720
 4781SOL     OW16019   8.459   5.145   4.813  0.6795  0.1928 -0.6066
 4781SOL    HW116020   8.456   5.101   4.898  1.6044  1.3082  0.0173
 4781SOL    HW216021   8.444   5.075   4.750 -3.1622 -0.1890  0.5680
 4782SOL     OW16022   5.842   0.830   1.825 -0.4263 -0.4709 -0.7128
 4782SOL    HW116023   5.845   0.820   1.920  0.3820  1.6526 -0.4895
 4782SOL    HW216024   5.779   0.764   1.795 -0.5620 -1.2502  1.2680
 4783SOL     OW16025   6.069   4.370   6.588 -0.4333 -0.1487  0.0356
 4783SOL    HW116026   5.983   4.333   6.608  0.1139 -2.2182 -1.3202
 4783SOL    HW216027   6.132   4.308   6.624  0.4991  0.8627  0.1756
 4784SOL     OW16028   7.679   9.039   0.960  0.5709  0.3649  0.2791
 4784SOL    HW116029   7.717   8.976   0.898  1.5633  0.1407  1.0894
 4784SOL    HW216030   7.739   9.037   1.035  0.1535  1.6683  0.6551
 4785SOL     OW16031   6.939   6.566   8.392 -0.0589  0.1223  0.0935
 4785SOL    HW116032   6.981   6.637   8.441 -0.6099  1.6580 -1.6226
 4785SOL    HW216033   6.902   6.609   8.315  0.2432 -2.1585 -1.3448
 4786SOL     OW16034   3.210   3.306   1.158 -0.3071 -0.1177 -0.1210
 4786SOL    HW116035   3.287   3.325   1.212 -0.2462 -1.6210  0.3392
 4786SOL    HW216036   3.203   3.382   1.099  1.3112  0.2076  0.0752
 4787SOL     OW16037   5.816   0.520   5.059  0.3405 -0.1283 -0.2469
 4787SOL    HW116038   5.723   0.542   5.057  0.4959  0.4917 -0.5769
 4787SOL    HW216039   5.833   0.479   4.973  0.2298 -0.8244  0.0591
 4788SOL     OW16040   9.221   3.667   0.011  0.7887 -0.9127 -0.3840
 4788SOL    HW116041   9.142   3.658  -0.043  0.5545 -0.5719 -0.1063
 4788SOL    HW216042   9.249   3.758  -0.004 -0.7399  0.0008  2.0200
 4789SOL     OW16043   3.717   4.808   6.790  0.0085  0.6815 -0.1759
 4789SOL    HW116044   3.675   4.879   6.839 -0.5657 -1.0525  1.9243
 4789SOL    HW216045   3.645   4.753   6.761  0.5327  0.2427 -0.6530
 4790SOL     OW16046   1.309   5.383   2.337 -0.6269  0.4245  0.4451
 4790SOL    HW116047   1.373   5.340   2.280  1.0700  1.2602  1.6551
 4790SOL    HW216048   1.312   5.475   2.310 -2.9079  0.1411 -0.9157
 4791SOL     OW16049   5.146   7.897   4.829 -0.0610 -0.5256 -0.1537
 4791SOL    HW116050   5.138   7.802   4.837 -0.5987 -0.4964 -0.3639
 4791SOL    HW216051   5.137   7.929   4.919  0.7887 -0.7141  0.0128
 4792SOL     OW16052   0.648   5.990   7.243 -0.0806 -0.5857  0.9379
 4792SOL    HW116053   0.572   6.047   7.232  0.5124 -0.3916 -3.1231
 4792SOL    HW216054   0.617   5.903   7.217  0.8671 -0.6443 -0.0295
 4793SOL     OW16055   4.144   8.742   0.619 -0.4094  0.1603  0.1048
 4793SOL    HW116056   4.122   8.822   0.667  5.0145  1.9996 -0.0758
 4793SOL    HW216057   4.137   8.767   0.527 -0.8459 -0.2290  0.0350
 4794SOL     OW16058   0.337   3.931   5.752  0.4176  0.1829 -0.1935
 4794SOL    HW116059   0.348   4.025   5.770  0.9108  0.5073 -2.0978
 4794SOL    HW216060   0.253   3.925   5.707 -0.4565 -0.5292  1.4920
 4795SOL     OW16061   1.141   3.855   0.858 -0.2978 -0.3331  0.2425
 4795SOL    HW116062   1.170   3.925   0.800  0.5558 -1.3029 -0.5257
 4795SOL    HW216063   1.093   3.899   0.928 -1.5441  0.8302 -1.3204
 4796SOL     OW16064   1.951   4.808   5.534  0.2046  0.3530  0.3216
 4796SOL    HW116065   1.986   4.719   5.530  1.2832  0.8379 -1.4747
 4796SOL    HW216066   1.964   4.835   5.625  2.2497 -0.3669  0.2593
 4797SOL     OW16067   1.471   7.408   0.633 -0.7826  0.2954  0.1754
 4797SOL    HW116068   1.378   7.402   0.655 -0.6996  1.9365  1.0196
 4797SOL    HW216069   1.472   7.439   0.542 -1.0848  3.6538  1.2419
 4798SOL     OW16070   5.019   5.338   6.151  0.2549  0.0076 -0.4244
 4798SOL    HW116071   5.018   5.433   6.153  0.8821 -0.0090  0.4917
 4798SOL    HW216072   5.104   5.313   6.186 -0.4312 -0.9162  0.6220
 4799SOL     OW16073   1.781   8.172   6.017  0.2506  0.7395  0.2712
 4799SOL    HW116074   1.851   8.171   5.953  0.8491  0.7636  0.9213
 4799SOL    HW216075   1.784   8.086   6.058 -0.9687  0.2566 -0.6243
 4800SOL     OW16076   2.365   2.153   2.063  0.0857  0.0955  0.2981
 4800SOL    HW116077   2.305   2.200   2.005 -1.6500 -1.2341  0.9774
 4800SOL    HW216078   2.310   2.122   2.135  1.6350 -0.9569  1.0623
 4801SOL     OW16079   8.282   3.053   8.903 -0.4105  0.1547 -0.1698
 4801SOL    HW116080   8.269   2.975   8.957 -1.1859 -0.2283 -0.9021
 4801SOL    HW216081   8.345   3.026   8.836 -0.7487  0.1274 -0.4784
 4802SOL     OW16082   5.111   5.196   8.639  0.1967 -0.5485  0.2457
 4802SOL    HW116083   5.146   5.188   8.550  0.1971 -0.5465  0.2455
 4802SOL    HW216084   5.065   5.113   8.654  1.4910 -1.1709  0.8086
 4803SOL     OW16085   6.551   4.244   4.852 -0.0028 -0.3925  0.0241
 4803SOL    HW116086   6.583   4.330   4.880  1.6640 -0.0657 -2.6845
 4803SOL    HW216087   6.460   4.241   4.882 -0.1539  2.3941 -0.0182
 4804SOL     OW16088   3.957   6.935   7.529  0.2730 -0.1539 -0.1228
 4804SOL    HW116089   3.863   6.950   7.537  0.7705  3.3084  0.0468
 4804SOL    HW216090   3.967   6.892   7.445 -1.3708  0.5069 -0.6813
 4805SOL     OW16091   1.650   6.682   6.752  0.5483 -0.5439  0.0923
 4805SOL    HW116092   1.736   6.698   6.712 -0.0346 -0.5196 -1.1606
 4805SOL    HW216093   1.633   6.589   6.738  0.0416 -0.3929 -0.3102
 4806SOL     OW16094   7.011   7.368   0.943 -0.4444 -0.2719  0.9203
 4806SOL    HW116095   6.932   7.403   0.904 -0.3381 -0.8536  0.1790
 4806SOL    HW216096   6.985   7.281   0.976 -0.4329  0.0466  1.7939
 4807SOL     OW16097   9.274   6.562   3.457  0.5820  0.8520 -0.1535
 4807SOL    HW116098   9.190   6.539   3.416  1.0289 -1.6472  0.2149
 4807SOL    HW216099   9.254   6.637   3.513 -1.5600 -0.0827  0.3843
 4808SOL     OW16100   3.445   5.124   8.513 -0.1670  0.3492 -0.6112
 4808SOL    HW116101   3.384   5.070   8.464 -1.3167  0.9322  0.1523
 4808SOL    HW216102   3.449   5.206   8.464 -0.4344  0.5128 -0.3629
 4809SOL     OW16103   9.180   4.536   1.010  0.0324  0.4840  0.0888
 4809SOL    HW116104   9.146   4.610   0.962 -1.0047 -1.3985 -2.1728
 4809SOL    HW216105   9.253   4.504   0.957 -0.5037 -1.0311  0.2222
 4810SOL     OW16106   3.941   7.642   3.336  0.5489  0.2484  0.2680
 4810SOL    HW116107   3.996   7.676   3.407  2.5665 -0.3711 -0.9445
 4810SOL    HW216108   3.908   7.721   3.292 -0.0165  0.6326  1.3592
 4811SOL     OW16109   4.772   9.280   2.954 -0.2633 -0.8898 -0.2602
 4811SOL    HW116110   4.768   9.250   3.044  0.5813 -0.2272  0.0055
 4811SOL    HW216111   4.797   9.372   2.960 -1.7631 -0.4175 -1.1095
 4812SOL     OW16112   3.601   3.751   5.000  0.2102 -0.2528  0.5576
 4812SOL    HW116113   3.557   3.684   4.948 -1.2065  2.5920 -2.0662
 4812SOL    HW216114   3.560   3.744   5.086 -1.4254 -1.3788 -0.2662
 4813SOL     OW16115   1.193   7.407   7.549 -0.0405 -0.0515 -0.3036
 4813SOL    HW116116   1.165   7.497   7.560  1.1757  0.3303 -0.2555
 4813SOL    HW216117   1.272   7.400   7.602 -0.4114 -1.2868  0.1018
 4814SOL     OW16118   1.343   1.009   8.765  0.0727 -0.8416 -0.2611
 4814SOL    HW116119   1.439   1.005   8.765  0.1203 -0.0907  1.4487
 4814SOL    HW216120   1.320   1.028   8.856 -1.7732 -2.6113 -0.3352
 4815SOL     OW16121   8.152   7.085   4.185  0.7997 -0.2382 -0.2892
 4815SOL    HW116122   8.217   7.145   4.223  0.5783 -1.1206  1.5317
 4815SOL    HW216123   8.086   7.075   4.253 -0.5729 -0.4111 -1.6237
 4816SOL     OW16124   0.916   0.885   3.096 -0.5763 -0.1614  0.0511
 4816SOL    HW116125   0.902   0.980   3.104 -0.2957 -0.0965 -0.1932
 4816SOL    HW216126   0.875   0.848   3.174  1.1274  0.3408  1.2168
 4817SOL     OW16127   4.889   6.886   7.673 -0.6482 -0.0853 -0.0327
 4817SOL    HW116128   4.863   6.813   7.729 -2.6218  0.3116 -0.3986
 4817SOL    HW216129   4.972   6.858   7.634  0.1522 -0.8800  2.1224
 4818SOL     OW16130   6.908   8.071   8.749  0.1659 -0.1867 -0.6310
 4818SOL    HW116131   6.847   8.044   8.818 -1.6304  2.6583 -1.0358
 4818SOL    HW216132   6.972   8.126   8.795  0.5018 -0.4415 -0.7947
 4819SOL     OW16133   7.844   0.377   3.479 -0.3199 -0.5501 -0.6523
 4819SOL    HW116134   7.800   0.460   3.498  0.0361 -0.1786 -1.4125
 4819SOL    HW216135   7.777   0.310   3.493 -1.0374 -0.0162 -1.4821
 4820SOL     OW16136   2.242   8.555   0.377 -0.2068  0.5045  0.0727
 4820SOL    HW116137   2.209   8.473   0.340  0.5482  0.6250 -0.9118
 4820SOL    HW216138   2.248   8.538   0.471  0.0253 -0.6098 -0.1295
 4821SOL     OW16139   6.098   0.050   0.848  0.3189 -0.0409 -0.1417
 4821SOL    HW116140   6.035  -0.020   0.832  0.5384 -0.3496  0.3245
 4821SOL    HW216141   6.045   0.129   0.858 -0.0837 -0.4889  1.3943
 4822SOL     OW16142   1.873   4.042   3.741 -0.5179 -0.2159 -0.4073
 4822SOL    HW116143   1.793   4.095   3.743 -0.9621 -0.9122  0.2197
 4822SOL    HW216144   1.846   3.956   3.772  0.7178 -0.1466  0.9061
 4823SOL     OW16145   0.364   0.582   8.959  0.4892  0.5159 -0.1128
 4823SOL    HW116146   0.444   0.607   9.006  0.3803  0.7930 -0.0771
 4823SOL    HW216147   0.296   0.580   9.026  0.6285 -0.5424  0.0140
 4824SOL     OW16148   8.562   4.558   6.682 -0.2831 -0.2796 -0.1095
 4824SOL    HW116149   8.570   4.467   6.652  0.1729  0.1076 -1.1715
 4824SOL    HW216150   8.524   4.550   6.769 -0.6499 -1.4768 -0.3588
 4825SOL     OW16151   8.305   2.077   0.593 -0.1112  0.0233  0.1427
 4825SOL    HW116152   8.365   2.151   0.587 -1.0430  0.8875  1.4482
 4825SOL    HW216153   8.352   2.005   0.551  0.7334  1.3798 -1.3098
 4826SOL     OW16154   1.340   0.870   1.185 -0.1466  0.3686  0.1795
 4826SOL    HW116155   1.248   0.895   1.174 -0.5897 -1.4772 -0.5755
 4826SOL    HW216156   1.389   0.952   1.174 -1.7476  1.5229  1.4584
 4827SOL     OW16157   6.915   6.615   0.640  0.2873  0.0892  0.0156
 4827SOL    HW116158   6.898   6.555   0.569 -1.2804  0.7881 -0.2191
 4827SOL    HW216159   6.902   6.564   0.720 -2.0583  0.3505 -0.1690
 4828SOL     OW16160   4.260   3.182   5.041  0.1314 -0.4536  0.2689
 4828SOL    HW116161   4.184   3.214   5.090 -0.3056 -0.1317 -0.6193
 4828SOL    HW216162   4.313   3.260   5.025 -0.0195 -0.4644 -0.2841
 4829SOL     OW16163   5.480   8.777   7.888  0.1431  0.5192 -0.1413
 4829SOL    HW116164   5.539   8.842   7.850 -0.3652  1.0815  0.0286
 4829SOL    HW216165   5.533   8.731   7.952 -0.1134  2.3018  1.3930
 4830SOL     OW16166   3.256   2.505   5.297 -0.4807  0.4179  0.7687
 4830SOL    HW116167   3.212   2.454   5.365  0.9060 -0.2409  1.1946
 4830SOL    HW216168   3.343   2.464   5.289  0.4619  2.3736  0.7473
 4831SOL     OW16169   1.607   4.102   8.922 -0.9924 -0.2124 -0.7343
 4831SOL    HW116170   1.525   4.144   8.897 -1.4502  0.0391  1.1660
 4831SOL    HW216171   1.580   4.023   8.968 -0.1899  0.3921  0.7982
 4832SOL     OW16172   8.788   5.004   9.002  0.1006  0.6297 -0.4041
 4832SOL    HW116173   8.747   4.965   8.925 -1.3853  2.6571 -0.7193
 4832SOL    HW216174   8.721   5.064   9.036  0.2017 -1.2295  3.2743
 4833SOL     OW16175   4.437   6.534   7.864 -0.7206 -0.2444 -0.2010
 4833SOL    HW116176   4.524   6.564   7.892  0.2851 -0.5050 -2.8778
 4833SOL    HW216177   4.395   6.504   7.945  1.0079  1.5288  1.4128
 4834SOL     OW16178   8.722   2.389   0.222  0.1952  0.1076  0.6596
 4834SOL    HW116179   8.775   2.310   0.233  0.3183  0.3570  1.9712
 4834SOL    HW216180   8.744   2.443   0.298 -0.6246  0.9769  0.2881
 4835SOL     OW16181   2.663   3.216   4.533  0.4189 -0.0848  0.0963
 4835SOL    HW116182   2.662   3.128   4.572  1.9596 -0.1409  0.0363
 4835SOL    HW216183   2.755   3.233   4.514 -0.2483  0.1099 -3.1945
 4836SOL     OW16184   2.723   8.897   2.445  0.1072  0.4220 -0.6171
 4836SOL    HW116185   2.790   8.964   2.456  0.6346 -0.1215 -0.4669
 4836SOL    HW216186   2.763   8.833   2.386  0.2722 -0.6324  0.6322
 4837SOL     OW16187   6.440   7.861   5.933  0.2115  0.4519  0.3420
 4837SOL    HW116188   6.449   7.953   5.909  1.2994 -0.0966 -1.4930
 4837SOL    HW216189   6.370   7.828   5.877  0.2080  0.0389  0.5887
 4838SOL     OW16190   7.740   4.292   7.213  0.9558 -0.0603  0.0309
 4838SOL    HW116191   7.717   4.203   7.241  1.4021 -0.2431 -0.1713
 4838SOL    HW216192   7.738   4.343   7.294 -1.1839  0.1673 -0.1361
 4839SOL     OW16193   0.247   0.946   3.407  0.8290 -0.5128  0.2140
 4839SOL    HW116194   0.170   0.913   3.453  0.7820  0.6801  1.0179
 4839SOL    HW216195   0.281   1.016   3.464  2.5948 -1.1244 -0.0465
 4840SOL     OW16196   6.117   1.833   5.154  0.1290  0.0526 -0.2581
 4840SOL    HW116197   6.200   1.824   5.201  0.1303 -0.2831 -0.3302
 4840SOL    HW216198   6.136   1.896   5.085  0.1065  0.6171  0.2422
 4841SOL     OW16199   8.582   5.361   7.396 -0.3206  0.1234  0.1331
 4841SOL    HW116200   8.649   5.400   7.340 -0.9197 -0.8345 -1.2847
 4841SOL    HW216201   8.499   5.397   7.362 -0.8099 -1.6915 -0.6507
 4842SOL     OW16202   4.355   9.044   5.345  0.1612  0.3464  0.8421
 4842SOL    HW116203   4.305   9.104   5.290 -1.5423 -0.6189  1.2971
 4842SOL    HW216204   4.427   9.097   5.379 -0.0562  1.5345 -0.5196
 4843SOL     OW16205   4.978   2.096   4.778 -0.2441 -0.2382 -0.1223
 4843SOL    HW116206   4.947   2.186   4.790  1.1845 -0.3479  5.7450
 4843SOL    HW216207   4.900   2.042   4.791 -0.4484 -0.0038 -0.3442
 4844SOL     OW16208   2.020   2.720   5.365  0.8549 -0.3726  0.2970
 4844SOL    HW116209   1.964   2.791   5.337  2.4913  0.2765 -1.4331
 4844SOL    HW216210   1.960   2.652   5.396 -0.7794  0.9610  0.1142
 4845SOL     OW16211   0.738   4.049   1.697 -0.0909  0.1886 -0.3591
 4845SOL    HW116212   0.739   4.139   1.663 -0.1847 -0.1534 -1.2938
 4845SOL    HW216213   0.697   4.056   1.783  0.2023  1.0881 -0.2848
 4846SOL     OW16214   7.600   2.734   0.436  0.3053  0.6784 -0.0650
 4846SOL    HW116215   7.505   2.728   0.437  0.2110  1.4100 -1.9010
 4846SOL    HW216216   7.618   2.821   0.400  1.6625  0.3967 -0.0996
 4847SOL     OW16217   3.207   4.591   8.665  0.1735  0.2463 -0.5225
 4847SOL    HW116218   3.113   4.605   8.670  0.1065 -0.6547  0.9144
 4847SOL    HW216219   3.217   4.519   8.602 -0.1482 -0.1819 -0.0840
 4848SOL     OW16220   1.093   2.521   7.882 -0.2421  0.1701 -0.2445
 4848SOL    HW116221   1.170   2.467   7.902 -0.4383 -0.5411 -1.3805
 4848SOL    HW216222   1.088   2.522   7.786 -2.0551 -0.3641 -0.1686
 4849SOL     OW16223   3.180   8.669   0.371  0.5264 -0.4801  0.0956
 4849SOL    HW116224   3.176   8.628   0.284  1.2802 -1.6241  0.5902
 4849SOL    HW216225   3.097   8.716   0.379 -0.9229 -2.9190 -0.0135
 4850SOL     OW16226   2.878   7.412   8.419 -0.5345 -0.1085  0.2044
 4850SOL    HW116227   2.786   7.417   8.396 -0.8617  0.8160  1.6860
 4850SOL    HW216228   2.919   7.485   8.374 -0.5948 -0.2604 -0.0982
 4851SOL     OW16229   6.473   4.041   5.150 -0.0787  0.3024 -0.1974
 4851SOL    HW116230   6.527   3.976   5.105  2.4059  1.4526  1.0169
 4851SOL    HW216231   6.473   4.116   5.091 -0.6253  0.1765 -0.3532
 4852SOL     OW16232   7.794   4.188   4.796 -0.1665  0.3639 -0.1580
 4852SOL    HW116233   7.794   4.104   4.842 -0.0361  1.2577  1.5066
 4852SOL    HW216234   7.807   4.165   4.704  1.5295 -1.3572  0.4738
 4853SOL     OW16235   6.075   3.975   6.244  0.1115  0.3605 -0.3409
 4853SOL    HW116236   6.099   4.067   6.253 -0.9333  0.6675 -0.6352
 4853SOL    HW216237   5.982   3.976   6.222 -0.2762 -0.8164  1.1317
 4854SOL     OW16238   4.651   7.171   6.240  0.2018  0.4309 -0.3775
 4854SOL    HW116239   4.699   7.096   6.276  1.5532  1.0058 -0.9518
 4854SOL    HW216240   4.633   7.148   6.149  2.3465  1.5836 -1.1331
 4855SOL     OW16241   1.683   6.509   2.826  0.3461 -0.7754  0.7613
 4855SOL    HW116242   1.758   6.507   2.885 -0.1756 -2.4373  1.3942
 4855SOL    HW216243   1.720   6.491   2.740  0.9011  0.1183  0.8062
 4856SOL     OW16244   6.098   7.036   8.004  0.0431  0.1593 -0.4175
 4856SOL    HW116245   6.167   7.026   8.070  0.2141  0.4520 -0.5497
 4856SOL    HW216246   6.114   7.122   7.966  2.2142 -1.4496 -3.3933
 4857SOL     OW16247   2.061   4.306   7.874  0.6016 -0.6792 -0.2428
 4857SOL    HW116248   2.073   4.214   7.850 -0.6867 -1.2019  1.0015
 4857SOL    HW216249   1.982   4.306   7.929  1.8778  0.8280  1.6701
 4858SOL     OW16250   2.155   1.367   2.411  0.2995  0.2592  0.6917
 4858SOL    HW116251   2.067   1.400   2.428 -0.1722 -1.9287  2.6275
 4858SOL    HW216252   2.142   1.289   2.359  1.1193  0.1374  0.6664
 4859SOL     OW16253   3.473   4.888   4.822  0.0099  0.3594 -0.1951
 4859SOL    HW116254   3.561   4.865   4.851  0.1853 -0.8337 -1.6115
 4859SOL    HW216255   3.478   4.982   4.804  1.7117 -0.1469 -2.6480
 4860SOL     OW16256   3.290   1.041   8.165  0.6141 -0.1049 -0.2646
 4860SOL    HW116257   3.327   0.970   8.111 -0.4569 -1.0387  0.2083
 4860SOL    HW216258   3.272   1.000   8.250  0.3231  0.8267  0.1287
 4861SOL     OW16259   9.025   5.184   6.353 -0.1664  0.1773  0.4265
 4861SOL    HW116260   9.012   5.259   6.294 -0.7146  0.6982  1.2012
 4861SOL    HW216261   8.940   5.172   6.396 -0.0406 -0.7967  0.4215
 4862SOL     OW16262   5.366   1.075   7.338  0.0619  0.5987 -0.0992
 4862SOL    HW116263   5.339   1.038   7.254  0.4427  1.2847 -0.5297
 4862SOL    HW216264   5.287   1.118   7.371 -0.0639  0.4103 -0.1552
 4863SOL     OW16265   8.552   6.665   3.237 -0.2828  1.0800 -0.1293
 4863SOL    HW116266   8.583   6.594   3.180  1.4965  2.3587 -0.8125
 4863SOL    HW216267   8.511   6.620   3.311  1.9480 -0.6947  0.0821
 4864SOL     OW16268   2.071   8.537   3.806  0.3499  0.2820 -0.0099
 4864SOL    HW116269   2.002   8.482   3.844 -0.1385  1.5245  0.9276
 4864SOL    HW216270   2.104   8.589   3.879 -0.0481  2.1459 -1.1320
 4865SOL     OW16271   1.141   7.045   4.280 -0.1370  0.6198  0.7231
 4865SOL    HW116272   1.094   7.128   4.287 -0.2653  0.5988  0.1374
 4865SOL    HW216273   1.092   6.995   4.216  1.4513  1.1291 -0.9476
 4866SOL     OW16274   8.758   3.101   7.711 -0.3095  0.4674 -0.1515
 4866SOL    HW116275   8.762   3.032   7.644  1.3555  0.4689 -0.0885
 4866SOL    HW216276   8.825   3.164   7.684  0.3814  0.4719  1.5089
 4867SOL     OW16277   1.839   1.542   4.255 -0.1212 -0.4930 -0.3014
 4867SOL    HW116278   1.777   1.494   4.310 -0.6054 -0.3602 -0.7294
 4867SOL    HW216279   1.899   1.475   4.223 -0.9134 -0.8568 -1.0547
 4868SOL     OW16280   1.936   8.145   0.632 -0.1603 -0.7686  0.2166
 4868SOL    HW116281   1.949   8.053   0.607  2.8008  0.2919 -2.5336
 4868SOL    HW216282   2.002   8.161   0.700  0.9641 -0.0824 -1.0149
 4869SOL     OW16283   4.370   2.727   4.324 -0.2959  0.0862  0.1518
 4869SOL    HW116284   4.375   2.656   4.389  0.3879  0.0948  0.1051
 4869SOL    HW216285   4.419   2.694   4.249  0.5940  0.8903  0.3848
 4870SOL     OW16286   9.081   4.008   8.651 -0.6519 -0.0729 -0.0278
 4870SOL    HW116287   9.060   3.979   8.740 -0.0582 -0.9321 -0.1685
 4870SOL    HW216288   9.003   3.986   8.601 -0.2296 -1.4219 -0.1248
 4871SOL     OW16289   5.166   1.955   9.244 -0.0884  0.0588  0.3307
 4871SOL    HW116290   5.261   1.964   9.247  0.0856 -1.7273  0.9620
 4871SOL    HW216291   5.142   1.976   9.154  1.0160 -0.4613 -0.0866
 4872SOL     OW16292   4.014   2.886   8.877 -0.2564  0.5367 -0.0279
 4872SOL    HW116293   3.964   2.935   8.811 -1.8346 -0.9814  0.0051
 4872SOL    HW216294   4.092   2.857   8.830 -1.4389 -0.6588 -1.2971
 4873SOL     OW16295   7.264   8.820   1.911  0.0213  0.1395  0.3905
 4873SOL    HW116296   7.251   8.892   1.850  0.5913 -0.6280 -0.6622
 4873SOL    HW216297   7.350   8.835   1.949  0.4970 -0.4077 -0.4414
 4874SOL     OW16298   8.691   5.414   8.235 -0.3309  0.0556 -0.0663
 4874SOL    HW116299   8.652   5.376   8.314  2.4058 -1.3068  0.6859
 4874SOL    HW216300   8.665   5.506   8.237 -2.4749 -0.5372  1.0078
 4875SOL     OW16301   2.071   3.356   8.693 -0.6106 -0.7206 -0.3565
 4875SOL    HW116302   2.077   3.315   8.607  0.9742 -0.2784 -0.4707
 4875SOL    HW216303   2.076   3.283   8.755  0.2845 -0.8606 -0.5963
 4876SOL     OW16304   1.767   0.235   2.039  0.4035  0.3952 -0.3212
 4876SOL    HW116305   1.732   0.260   2.125 -0.1505  1.5481 -0.8663
 4876SOL    HW216306   1.692   0.196   1.994  0.1648  1.5933 -0.9837
 4877SOL     OW16307   2.499   7.784   7.149  0.0841 -0.0658  0.3525
 4877SOL    HW116308   2.485   7.879   7.153 -1.3244 -0.2425  0.0169
 4877SOL    HW216309   2.477   7.760   7.059  2.2859 -0.4519 -0.0930
 4878SOL     OW16310   4.755   0.322   2.333 -0.1530 -0.0440 -0.1856
 4878SOL    HW116311   4.788   0.396   2.384  0.5890  0.0503 -0.7881
 4878SOL    HW216312   4.766   0.349   2.241  2.1565 -1.7408 -0.4677
 4879SOL     OW16313   3.290   5.637   1.281 -0.1747 -0.0434  0.1496
 4879SOL    HW116314   3.295   5.542   1.271 -0.3342 -0.1180  0.7987
 4879SOL    HW216315   3.381   5.666   1.275 -0.0210 -0.3407  1.0280
 4880SOL     OW16316   6.221   0.827   2.009  0.6443  0.2040  0.3058
 4880SOL    HW116317   6.185   0.745   2.044  0.8607  0.4614  1.1543
 4880SOL    HW216318   6.152   0.892   2.025  0.5036  0.2013 -0.2968
 4881SOL     OW16319   6.710   4.080   0.999 -0.0108  0.1514 -0.6162
 4881SOL    HW116320   6.753   3.996   0.983  0.2099  0.3081 -0.8665
 4881SOL    HW216321   6.629   4.058   1.043  1.4103  0.0070  2.0405
 4882SOL     OW16322   7.511   6.567   0.620 -0.1586 -0.2600 -0.7423
 4882SOL    HW116323   7.562   6.487   0.633 -0.2710 -0.1368  0.4646
 4882SOL    HW216324   7.454   6.572   0.696 -0.8942  0.4245 -1.3247
 4883SOL     OW16325   0.320   7.574   8.359  0.4370  0.3954  0.0343
 4883SOL    HW116326   0.292   7.493   8.317 -0.7869  1.4160 -1.1682
 4883SOL    HW216327   0.415   7.576   8.346  0.6496 -1.4495  1.1800
 4884SOL     OW16328   5.690   4.228   3.667  0.4390  0.4028 -0.4014
 4884SOL    HW116329   5.642   4.147   3.650  0.9544  0.3669 -1.7214
 4884SOL    HW216330   5.704   4.228   3.762 -0.5287 -0.5010 -0.2465
 4885SOL     OW16331   9.257   7.571   3.178 -0.1578 -0.1410  0.5671
 4885SOL    HW116332   9.239   7.644   3.119  0.6707 -1.2555 -1.0987
 4885SOL    HW216333   9.271   7.496   3.121  0.8106 -1.2262  2.1619
 4886SOL     OW16334   2.598   7.243   8.736  0.1350  0.3782  0.2137
 4886SOL    HW116335   2.538   7.314   8.758 -0.1502  0.8512 -1.9879
 4886SOL    HW216336   2.683   7.286   8.724  0.3921  0.0594  0.8687
 4887SOL     OW16337   2.567   7.464   2.377 -0.3147 -0.1324 -0.9453
 4887SOL    HW116338   2.623   7.453   2.453 -0.4499 -2.7873 -1.1885
 4887SOL    HW216339   2.493   7.516   2.409  1.1293  1.4171 -0.0627
 4888SOL     OW16340   3.266   8.471   3.315  0.1561  0.0202 -0.0740
 4888SOL    HW116341   3.240   8.382   3.292 -0.3109  0.1636 -0.0955
 4888SOL    HW216342   3.258   8.474   3.411  2.3809 -0.6626  0.1618
 4889SOL     OW16343   1.495   6.969   1.446  0.0695 -0.1231  0.4570
 4889SOL    HW116344   1.517   6.994   1.357  0.8550  0.3714  0.7871
 4889SOL    HW216345   1.476   6.875   1.441  0.7042 -0.2227 -0.1158
 4890SOL     OW16346   1.316   6.455   0.092 -0.1764 -0.4790 -0.3144
 4890SOL    HW116347   1.327   6.451   0.187  0.7179  0.6064 -0.3662
 4890SOL    HW216348   1.286   6.544   0.076 -0.9815 -0.8721 -0.9901
 4891SOL     OW16349   7.743   8.239   3.041  0.3655  0.1538  0.0248
 4891SOL    HW116350   7.648   8.245   3.037  0.3666  0.5905  0.5980
 4891SOL    HW216351   7.771   8.325   3.072  1.1127  0.9618 -2.7221
 4892SOL     OW16352   9.045   6.531   8.071  0.1346  0.6450  0.0270
 4892SOL    HW116353   9.094   6.474   8.011 -0.3413  0.8722 -0.5818
 4892SOL    HW216354   9.100   6.535   8.149  0.5398 -0.0299 -0.2141
 4893SOL     OW16355   2.173   2.417   5.843 -0.1962 -0.3000  0.2578
 4893SOL    HW116356   2.165   2.327   5.812  2.7115 -0.9334  1.2717
 4893SOL    HW216357   2.137   2.416   5.931  0.8198 -0.7204  0.6728
 4894SOL     OW16358   7.684   7.858   5.578 -0.0271  0.2903 -0.0631
 4894SOL    HW116359   7.761   7.810   5.548  1.0583  1.4738  0.7444
 4894SOL    HW216360   7.639   7.885   5.498  0.3132 -0.5672 -0.5429
 4895SOL     OW16361   3.565   1.488   3.883  0.0347  0.9121 -1.0648
 4895SOL    HW116362   3.631   1.443   3.830  1.9053  1.3058  0.8256
 4895SOL    HW216363   3.556   1.434   3.961  0.4371  2.4692  0.0945
 4896SOL     OW16364   1.788   4.943   5.184 -0.0453 -0.2780  0.6399
 4896SOL    HW116365   1.828   4.862   5.152  0.1718 -0.2431  0.8176
 4896SOL    HW216366   1.861   5.006   5.188  0.1418 -0.5613  2.1393
 4897SOL     OW16367   6.952   2.300   7.229  0.0387 -0.1874 -0.4984
 4897SOL    HW116368   6.883   2.283   7.294  2.3068 -0.8563  1.8058
 4897SOL    HW216369   6.959   2.395   7.227 -1.1724 -0.0981 -1.0064
 4898SOL     OW16370   4.559   6.914   8.740 -0.1739  0.4453  0.1516
 4898SOL    HW116371   4.562   6.995   8.790  1.1191  1.0251 -0.8532
 4898SOL    HW216372   4.466   6.899   8.724 -0.8879 -1.1598  4.9408
 4899SOL     OW16373   3.543   9.201   2.241  0.1714  0.4752  0.3890
 4899SOL    HW116374   3.564   9.159   2.325 -0.7002 -0.1129  0.3147
 4899SOL    HW216375   3.553   9.295   2.258  1.4718  0.2820  0.7395
 4900SOL     OW16376   3.857   1.942   4.301 -0.0925  0.1458  0.2623
 4900SOL    HW116377   3.898   1.882   4.238  0.1285  0.8361 -0.2669
 4900SOL    HW216378   3.850   1.892   4.382 -0.0064 -0.6230 -0.2065
 4901SOL     OW16379   4.929   7.038   5.091 -0.4187  0.0993 -0.5249
 4901SOL    HW116380   4.947   6.945   5.082 -0.2328  0.0951 -0.1344
 4901SOL    HW216381   4.863   7.056   5.024  1.1395  0.1558 -2.0814
 4902SOL     OW16382   7.271   0.750   5.626 -1.0014  0.2269 -0.2961
 4902SOL    HW116383   7.189   0.744   5.677 -0.5264 -1.8390  0.2855
 4902SOL    HW216384   7.328   0.805   5.679 -1.1733 -0.3671  0.5220
 4903SOL     OW16385   7.258   3.310   5.829  0.4137 -0.0059  0.0400
 4903SOL    HW116386   7.236   3.218   5.814 -0.2764 -0.0233  1.0815
 4903SOL    HW216387   7.325   3.330   5.764  0.6207 -1.2652 -0.1468
 4904SOL     OW16388   8.246   1.995   7.951 -0.1345  0.2059 -0.1263
 4904SOL    HW116389   8.198   2.072   7.921  0.3452  0.3281 -0.5917
 4904SOL    HW216390   8.307   2.029   8.016 -1.7637 -0.1873  1.6361
 4905SOL     OW16391   7.695   3.319   2.809 -0.0819  0.5489 -0.1600
 4905SOL    HW116392   7.750   3.353   2.880  0.3768  2.0254 -1.1869
 4905SOL    HW216393   7.631   3.263   2.852  0.7549  0.7098  1.3124
 4906SOL     OW16394   8.610   6.177   8.006  0.7516 -0.0086  0.0941
 4906SOL    HW116395   8.697   6.185   7.967  0.5667 -2.5684 -0.9377
 4906SOL    HW216396   8.550   6.183   7.932  0.0766  1.1810  0.7328
 4907SOL     OW16397   0.898   5.054   7.027  0.4305  0.5302 -0.1510
 4907SOL    HW116398   0.959   4.989   6.994  0.0967  0.4246 -0.5552
 4907SOL    HW216399   0.923   5.135   6.983  0.9022  0.7024  0.4173
 4908SOL     OW16400   2.328   4.014   4.572  0.1373  0.4012 -0.5014
 4908SOL    HW116401   2.331   3.924   4.605 -0.6940  0.5620  0.0168
 4908SOL    HW216402   2.296   4.065   4.646  1.5184  1.2715 -0.4954
 4909SOL     OW16403   5.015   8.578   6.652  0.4852 -0.1735 -0.5355
 4909SOL    HW116404   5.017   8.638   6.578 -1.5145  1.0844  0.3942
 4909SOL    HW216405   4.927   8.541   6.650  0.2215  0.2876  1.5288
 4910SOL     OW16406   4.716   4.044   5.709 -1.6964 -0.2725 -0.6586
 4910SOL    HW116407   4.788   3.991   5.744 -1.9646 -0.5388 -0.5188
 4910SOL    HW216408   4.760   4.122   5.673 -1.3696 -0.2561 -0.2316
 4911SOL     OW16409   7.593   3.810   0.851 -0.7689 -1.0248  0.3185
 4911SOL    HW116410   7.619   3.887   0.902 -2.2666 -0.1703 -0.1557
 4911SOL    HW216411   7.506   3.832   0.818  0.6910 -0.8867 -3.8477
 4912SOL     OW16412   6.699   6.072   1.857 -0.4877  0.3448  0.3506
 4912SOL    HW116413   6.685   6.065   1.951  0.6630 -0.6192  0.4604
 4912SOL    HW216414   6.789   6.103   1.848 -0.1756 -0.7313 -0.4385
 4913SOL     OW16415   4.861   5.281   1.058  0.4479  0.4678 -0.5364
 4913SOL    HW116416   4.837   5.297   1.150  1.6351  0.7937 -0.2751
 4913SOL    HW216417   4.827   5.194   1.039  1.7334 -0.3440  0.7635
 4914SOL     OW16418   7.246   1.265   2.630 -0.6875  0.3939 -0.0190
 4914SOL    HW116419   7.208   1.352   2.636 -0.4553  0.3738  2.1652
 4914SOL    HW216420   7.171   1.206   2.621 -0.9125  0.6968 -0.1265
 4915SOL     OW16421   5.158   8.530   2.457 -0.2672  0.2118  0.0961
 4915SOL    HW116422   5.119   8.517   2.544 -0.8477 -0.2034 -0.2229
 4915SOL    HW216423   5.114   8.465   2.401  1.2353 -0.6084 -0.1662
 4916SOL     OW16424   0.470   0.417   5.072 -0.2864 -0.0223 -0.3571
 4916SOL    HW116425   0.549   0.365   5.059 -1.1176 -0.8241 -2.3110
 4916SOL    HW216426   0.426   0.374   5.146  0.0579 -0.8311 -0.6181
 4917SOL     OW16427   3.488   8.197   6.381  0.5961  0.2866 -0.5572
 4917SOL    HW116428   3.486   8.102   6.368 -0.6235  0.3512 -0.9241
 4917SOL    HW216429   3.396   8.223   6.378  0.9013  1.4278 -0.0578
 4918SOL     OW16430   8.728   1.739   7.835 -0.2512 -0.0042 -0.0204
 4918SOL    HW116431   8.748   1.677   7.905  0.4582  0.6509  0.3560
 4918SOL    HW216432   8.757   1.694   7.755  3.1333  1.0619  0.5240
 4919SOL     OW16433   1.043   8.314   4.319  0.5860 -0.0479 -0.1832
 4919SOL    HW116434   1.070   8.331   4.409  0.0311 -0.5999  0.0905
 4919SOL    HW216435   0.947   8.308   4.324  0.4197  1.4358 -1.0555
 4920SOL     OW16436   2.888   4.811   1.913  0.1515  0.1867 -0.3040
 4920SOL    HW116437   2.966   4.785   1.864 -0.0215  1.5178 -1.3054
 4920SOL    HW216438   2.876   4.904   1.892 -0.8411  0.3683  1.0168
 4921SOL     OW16439   5.018   9.088   6.052  0.1159  0.2480  0.0858
 4921SOL    HW116440   5.051   9.001   6.075  0.8798  0.6175  0.4215
 4921SOL    HW216441   5.088   9.148   6.079 -0.4835  0.9827  0.0329
 4922SOL     OW16442   4.962   2.460   1.519 -0.0154 -0.0960  0.1867
 4922SOL    HW116443   5.025   2.390   1.527  0.5877  0.4349  0.1315
 4922SOL    HW216444   4.901   2.447   1.591 -0.6154 -1.3850 -0.5344
 4923SOL     OW16445   6.359   1.261   7.817 -0.3862  0.8333 -0.3442
 4923SOL    HW116446   6.383   1.353   7.811 -0.6918  0.8669 -1.1394
 4923SOL    HW216447   6.439   1.217   7.844 -0.8338  1.6136  2.3567
 4924SOL     OW16448   4.517   0.116   2.247 -0.1648  0.1995 -0.1124
 4924SOL    HW116449   4.563   0.187   2.291  0.3546 -0.5119  0.4887
 4924SOL    HW216450   4.585   0.056   2.219 -0.6287 -0.2284 -0.3377
 4925SOL     OW16451   3.748   0.057   3.113  0.4179 -0.4321  0.0217
 4925SOL    HW116452   3.664   0.019   3.138  1.5903 -2.4474  1.0827
 4925SOL    HW216453   3.771   0.012   3.032 -0.1120  1.0377 -0.9489
 4926SOL     OW16454   7.460   6.243   6.836  0.2345  0.2421  0.0118
 4926SOL    HW116455   7.469   6.318   6.776 -0.7346  0.8523  0.6099
 4926SOL    HW216456   7.519   6.263   6.909 -0.0499  0.4461  0.1875
 4927SOL     OW16457   1.074   6.624   6.782 -0.3569 -0.0914  0.3696
 4927SOL    HW116458   1.097   6.680   6.708  0.7436  0.5899  1.2081
 4927SOL    HW216459   1.135   6.550   6.775  1.2883  1.0611  1.8280
 4928SOL     OW16460   2.179   3.778   5.359  0.3879 -0.5039 -0.5193
 4928SOL    HW116461   2.151   3.775   5.451  0.2168  1.1702 -0.5036
 4928SOL    HW216462   2.262   3.730   5.358 -0.2413 -1.6429  0.2634
 4929SOL     OW16463   8.102   6.663   5.804  0.3998 -0.1499 -0.3693
 4929SOL    HW116464   8.051   6.667   5.885  0.5907 -0.5279 -0.2308
 4929SOL    HW216465   8.042   6.697   5.737  0.4892  0.8594  0.0427
 4930SOL     OW16466   4.991   2.800   5.718 -0.1486  0.4476 -0.7647
 4930SOL    HW116467   5.005   2.890   5.747  1.9382 -0.4873  1.3329
 4930SOL    HW216468   4.896   2.789   5.720 -0.4583  2.6543 -1.2893
 4931SOL     OW16469   5.858   5.772   4.739 -0.1785 -0.3950  0.4184
 4931SOL    HW116470   5.954   5.776   4.736 -0.1294 -0.4481  1.8650
 4931SOL    HW216471   5.837   5.754   4.830 -1.5965  0.1982  0.2228
 4932SOL     OW16472   8.276   2.872   8.071  0.2521 -0.8172  0.4415
 4932SOL    HW116473   8.231   2.906   7.994 -1.9390 -0.6895  1.7568
 4932SOL    HW216474   8.368   2.894   8.056 -0.4146  1.0346 -1.1688
 4933SOL     OW16475   1.475   4.950   9.256  0.2293  0.1572 -0.0886
 4933SOL    HW116476   1.459   4.867   9.211  0.0053  0.4110 -0.4840
 4933SOL    HW216477   1.422   5.014   9.208 -0.5880  0.3052  0.9776
 4934SOL     OW16478   5.982   5.920   8.853 -0.2073  0.2089  0.1429
 4934SOL    HW116479   5.985   5.923   8.949  0.5987  2.2416  0.0902
 4934SOL    HW216480   6.009   5.831   8.830 -0.2326 -0.2377  1.7943
 4935SOL     OW16481   8.052   8.335   3.516  0.5068  0.0790 -0.6210
 4935SOL    HW116482   8.033   8.418   3.561  0.4178 -0.2486 -0.0437
 4935SOL    HW216483   8.116   8.292   3.573 -1.1055 -1.2277  0.2154
 4936SOL     OW16484   8.144   1.977   4.178  0.4552 -0.2541 -0.4992
 4936SOL    HW116485   8.079   1.997   4.245  0.4925 -0.6146 -0.3561
 4936SOL    HW216486   8.210   2.046   4.187  0.8422 -0.7327  0.3334
 4937SOL     OW16487   6.656   1.175   8.443 -0.5299  0.0612  0.4621
 4937SOL    HW116488   6.629   1.146   8.531 -1.6425 -2.3383 -0.6125
 4937SOL    HW216489   6.577   1.215   8.406 -0.5276 -0.3841 -0.0296
 4938SOL     OW16490   4.812   7.321   2.656  0.3049  0.3411  0.4311
 4938SOL    HW116491   4.727   7.358   2.680  0.4646 -0.2589  1.9672
 4938SOL    HW216492   4.803   7.227   2.671  0.8985  0.1384 -0.4494
 4939SOL     OW16493   1.242   4.128   0.891  0.3399 -0.2191 -0.4415
 4939SOL    HW116494   1.151   4.142   0.917  0.6223  0.9436 -0.0333
 4939SOL    HW216495   1.281   4.216   0.893  1.4706 -0.7116 -0.5963
 4940SOL     OW16496   4.650   5.029   7.901  0.5271  0.1293  0.0729
 4940SOL    HW116497   4.587   5.016   7.829 -0.8065  1.5999  0.9604
 4940SOL    HW216498   4.649   4.946   7.948  1.8316 -1.0665 -1.8959
 4941SOL     OW16499   2.342   0.912   8.790  0.1287  0.5019  0.0877
 4941SOL    HW116500   2.423   0.883   8.832  1.0659  0.1757 -1.8889
 4941SOL    HW216501   2.370   0.949   8.707 -1.7828  0.2275 -0.7124
 4942SOL     OW16502   1.233   8.671   3.738 -0.1991 -0.3816 -0.2620
 4942SOL    HW116503   1.267   8.616   3.808 -2.0654 -1.2401  0.0094
 4942SOL    HW216504   1.221   8.757   3.778 -1.0903 -0.8244  0.4554
 4943SOL     OW16505   1.376   6.583   2.328 -0.5487  0.5115  0.7566
 4943SOL    HW116506   1.376   6.654   2.391 -0.2148  0.5405  0.7261
 4943SOL    HW216507   1.409   6.623   2.247 -3.9670  1.2789 -0.3569
 4944SOL     OW16508   5.227   3.769   1.037 -0.1838 -0.0665  0.1509
 4944SOL    HW116509   5.300   3.761   1.099 -0.7305 -1.0795  0.6740
 4944SOL    HW216510   5.229   3.861   1.009 -0.2432  0.5337  2.0629
 4945SOL     OW16511   4.444   7.053   7.222 -0.2504 -0.7330  0.1348
 4945SOL    HW116512   4.362   7.007   7.201  0.4440 -1.3462 -1.2916
 4945SOL    HW216513   4.489   6.995   7.283 -0.9055 -0.3397  1.0202
 4946SOL     OW16514   4.706   3.906   4.098  0.7391 -0.0759  0.5038
 4946SOL    HW116515   4.665   3.821   4.118  1.8401 -0.4144  1.3767
 4946SOL    HW216516   4.784   3.883   4.048  0.5827  0.4952 -0.0163
 4947SOL     OW16517   0.999   2.404   0.213 -0.2089 -0.0888 -0.0199
 4947SOL    HW116518   0.918   2.432   0.254 -0.5854 -2.4698  0.9462
 4947SOL    HW216519   1.000   2.309   0.224  1.8887 -0.2814 -1.5240
 4948SOL     OW16520   2.084   6.694   2.778 -0.3637 -0.0892 -0.1583
 4948SOL    HW116521   2.129   6.734   2.852  2.0269 -1.0547 -1.0377
 4948SOL    HW216522   2.116   6.742   2.701 -1.1195 -0.5344 -0.7650
 4949SOL     OW16523   4.016   8.480   4.450  0.5442  0.2082 -0.3233
 4949SOL    HW116524   3.995   8.534   4.527 -0.0167  0.1534 -0.4364
 4949SOL    HW216525   3.962   8.401   4.460  0.5249  0.1669 -0.7338
 4950SOL     OW16526   4.394   0.021   8.734 -0.2235 -0.1830 -0.3945
 4950SOL    HW116527   4.451   0.042   8.660 -1.0059  0.5505 -0.8049
 4950SOL    HW216528   4.306   0.040   8.702 -0.7180 -1.5348  0.1549
 4951SOL     OW16529   5.784   0.253   8.039 -0.7075  0.1796  0.2076
 4951SOL    HW116530   5.739   0.316   7.982 -0.7386 -0.6334 -0.6797
 4951SOL    HW216531   5.740   0.261   8.123 -0.0533  2.0702  0.3948
 4952SOL     OW16532   4.824   4.769   2.181  0.4107  0.0888  0.1172
 4952SOL    HW116533   4.826   4.745   2.273 -0.7738 -0.2334  0.0632
 4952SOL    HW216534   4.773   4.851   2.178 -1.1917 -0.8994 -0.4517
 4953SOL     OW16535   3.821   0.465   8.469  0.2058  0.4951  0.6201
 4953SOL    HW116536   3.876   0.431   8.540  2.0614  0.7465 -0.6457
 4953SOL    HW216537   3.848   0.557   8.460 -0.5045  0.6511  0.0603
 4954SOL     OW16538   3.863   1.689   1.708 -0.1866  0.5749 -0.1847
 4954SOL    HW116539   3.951   1.718   1.681 -0.2685  0.6701 -0.3560
 4954SOL    HW216540   3.872   1.596   1.724 -0.1611  0.4927 -0.6624
 4955SOL     OW16541   8.674   8.277   4.477 -0.4089 -0.1194  0.0727
 4955SOL    HW116542   8.663   8.184   4.457  2.4925  0.2894 -4.0730
 4955SOL    HW216543   8.768   8.287   4.491 -0.4882  2.3984 -0.9312
 4956SOL     OW16544   1.896   0.805   3.203 -0.0466 -0.2291 -0.1241
 4956SOL    HW116545   1.835   0.848   3.262 -0.5927 -0.6230 -0.4013
 4956SOL    HW216546   1.981   0.843   3.225 -0.0965 -1.0406  1.5304
 4957SOL     OW16547   2.502   7.630   4.127 -0.3768  0.2965 -0.1384
 4957SOL    HW116548   2.510   7.672   4.042 -2.5409 -2.8557 -2.0029
 4957SOL    HW216549   2.426   7.672   4.168 -0.9136  0.0390 -0.8607
 4958SOL     OW16550   4.220   6.093   5.307  0.2201  0.2474 -0.3651
 4958SOL    HW116551   4.161   6.168   5.320  1.9841  1.6794 -0.4198
 4958SOL    HW216552   4.206   6.067   5.216 -2.7294 -1.5741  0.5408
 4959SOL     OW16553   8.419   9.006   8.394  0.6806  0.0278 -0.3846
 4959SOL    HW116554   8.514   9.003   8.384  0.7041 -0.6187 -0.0125
 4959SOL    HW216555   8.392   8.914   8.387  0.2775 -0.0085  1.3462
 4960SOL     OW16556   8.720   4.035   5.034  0.6652 -0.3771 -0.4308
 4960SOL    HW116557   8.774   4.075   5.102 -1.5617  0.8512  0.6635
 4960SOL    HW216558   8.651   3.990   5.082 -1.1809  0.8623 -1.8362
 4961SOL     OW16559   5.028   4.294   8.529 -0.2383  0.4510  0.1758
 4961SOL    HW116560   5.025   4.231   8.601 -1.1468 -0.2624 -0.4821
 4961SOL    HW216561   4.981   4.370   8.562  2.1037  1.3847  1.5124
 4962SOL     OW16562   4.718   5.897   1.997 -0.4979 -0.1923 -0.1922
 4962SOL    HW116563   4.812   5.896   1.984 -0.3373 -2.0958  0.9660
 4962SOL    HW216564   4.685   5.824   1.944 -1.2352 -0.0216  0.0222
 4963SOL     OW16565   5.459   2.060   5.555 -0.0118  0.1700  0.3906
 4963SOL    HW116566   5.409   2.070   5.473 -1.1023 -0.2294  0.9906
 4963SOL    HW216567   5.404   2.003   5.609  0.9963 -0.0667  1.1670
 4964SOL     OW16568   2.700   3.524   7.803 -0.0729  0.2290  0.5964
 4964SOL    HW116569   2.775   3.465   7.793 -0.4310 -0.6317  2.6270
 4964SOL    HW216570   2.724   3.603   7.754  1.2412 -0.8600 -0.5446
 4965SOL     OW16571   5.719   8.716   5.405 -1.0510 -0.5701 -0.1570
 4965SOL    HW116572   5.686   8.717   5.495  0.3398 -0.2199  0.3727
 4965SOL    HW216573   5.792   8.654   5.408 -0.0693  0.5372 -0.6872
 4966SOL     OW16574   0.297   6.534   0.353 -0.0709  0.1421  0.7669
 4966SOL    HW116575   0.384   6.559   0.323  0.5253 -0.6111  1.8043
 4966SOL    HW216576   0.266   6.472   0.287 -0.9490  2.4360 -1.0173
 4967SOL     OW16577   6.561   8.725   4.262 -0.5401 -0.2585 -0.2497
 4967SOL    HW116578   6.512   8.690   4.336 -0.2402  1.7445  0.9190
 4967SOL    HW216579   6.554   8.820   4.271  2.5171  0.0509 -0.7844
 4968SOL     OW16580   2.754   0.159   2.426  0.1115  0.5167 -0.3241
 4968SOL    HW116581   2.812   0.235   2.420 -0.1100  0.7987  0.9836
 4968SOL    HW216582   2.671   0.195   2.459 -0.1206 -0.2263 -0.0873
 4969SOL     OW16583   3.550   5.156   8.143  0.2337 -0.0470  0.3712
 4969SOL    HW116584   3.568   5.066   8.116  0.4552 -0.5630  2.1955
 4969SOL    HW216585   3.636   5.194   8.162  0.0196  0.0530  1.1447
 4970SOL     OW16586   3.767   8.590   8.164 -0.1265 -0.2796  0.1340
 4970SOL    HW116587   3.758   8.614   8.256 -2.5084  1.2412 -0.4265
 4970SOL    HW216588   3.680   8.558   8.139  0.2218  0.2156 -1.8147
 4971SOL     OW16589   3.065   1.532   2.518 -0.4934  0.1931 -0.3490
 4971SOL    HW116590   3.018   1.501   2.595 -0.7302  1.8415  0.2014
 4971SOL    HW216591   3.084   1.453   2.468  0.5031 -1.0408  1.8585
 4972SOL     OW16592   0.184   4.766   0.696  0.9140  0.6105  0.0644
 4972SOL    HW116593   0.244   4.801   0.762  1.4089 -3.2441  1.8242
 4972SOL    HW216594   0.236   4.698   0.651 -0.8960 -0.0395 -1.0946
 4973SOL     OW16595   5.635   5.373   3.958 -0.6411  0.1595 -0.2360
 4973SOL    HW116596   5.723   5.359   3.993 -0.6354  0.2354 -0.2199
 4973SOL    HW216597   5.644   5.359   3.864 -0.2647  1.7825 -0.4561
 4974SOL     OW16598   4.982   1.667   5.111 -0.3963  0.4825 -0.3720
 4974SOL    HW116599   4.902   1.699   5.070 -0.0766  0.1975 -1.2440
 4974SOL    HW216600   5.018   1.742   5.157 -1.5071  0.4486  0.5927
 4975SOL     OW16601   2.178   6.075   5.804  0.1503 -0.1136  0.9449
 4975SOL    HW116602   2.083   6.074   5.794  0.1206 -1.9834  1.2723
 4975SOL    HW216603   2.208   5.996   5.760  1.7091  1.1511 -0.3481
 4976SOL     OW16604   6.395   3.725   1.206  0.1941 -0.3038  0.1794
 4976SOL    HW116605   6.377   3.681   1.123  0.4546 -1.4085  0.6975
 4976SOL    HW216606   6.342   3.805   1.203 -0.4093 -0.7320 -0.7043
 4977SOL     OW16607   0.404   7.348   6.990 -0.1830 -0.8147  0.0566
 4977SOL    HW116608   0.333   7.294   6.956  0.1737 -0.0267 -2.0618
 4977SOL    HW216609   0.469   7.347   6.920  0.5193  1.0472  0.6645
 4978SOL     OW16610   0.705   6.834   3.773 -0.3012 -0.0503 -0.1460
 4978SOL    HW116611   0.680   6.907   3.830  2.4324 -0.7459  2.0516
 4978SOL    HW216612   0.786   6.863   3.732  0.4571 -1.5633  0.2570
 4979SOL     OW16613   9.080   6.486   0.451  0.0007 -0.1736  0.0704
 4979SOL    HW116614   9.091   6.448   0.538 -0.0166 -1.3376 -0.4299
 4979SOL    HW216615   9.012   6.552   0.462 -0.0444 -0.3582  0.9231
 4980SOL     OW16616   8.985   4.117   9.287  0.1691 -0.1067 -0.0173
 4980SOL    HW116617   8.890   4.111   9.297  0.1470 -0.0919 -0.2074
 4980SOL    HW216618   9.007   4.051   9.221  0.0248  1.2817 -1.4790
 4981SOL     OW16619   4.172   2.302   2.908  0.4116  0.1629 -0.6205
 4981SOL    HW116620   4.117   2.326   2.983  1.8631 -0.1077  0.5762
 4981SOL    HW216621   4.232   2.236   2.944  0.7408 -0.3938 -2.1851
 4982SOL     OW16622   6.345   8.890   3.700  0.1589  0.0468 -0.1132
 4982SOL    HW116623   6.404   8.838   3.753 -0.4523 -0.5795 -0.0419
 4982SOL    HW216624   6.396   8.915   3.623  0.2195 -1.2903 -0.5161
 4983SOL     OW16625   1.940   8.792   8.945  0.0947  0.0810 -0.5801
 4983SOL    HW116626   1.941   8.798   9.040  1.8677  2.1809 -0.6919
 4983SOL    HW216627   1.900   8.875   8.917  3.4736  1.3926 -1.7308
 4984SOL     OW16628   8.292   5.446   7.631  0.1086  0.1854  0.6803
 4984SOL    HW116629   8.356   5.393   7.679 -0.8603  0.1240  1.9309
 4984SOL    HW216630   8.221   5.386   7.611 -0.1845  0.5791  0.5211
 4985SOL     OW16631   0.462   8.463   0.668  0.3539 -0.0799  0.1437
 4985SOL    HW116632   0.473   8.479   0.574  1.4467 -0.6039  0.1749
 4985SOL    HW216633   0.551   8.452   0.701 -0.0035  0.4205  1.3056
 4986SOL     OW16634   2.400   5.612   0.807 -0.1715  0.3119  1.0968
 4986SOL    HW116635   2.388   5.667   0.884  0.7987 -0.0807  1.5354
 4986SOL    HW216636   2.376   5.524   0.835 -2.2002  0.5804  0.2584
 4987SOL     OW16637   8.520   7.813   7.034  0.3427 -0.5933 -0.0398
 4987SOL    HW116638   8.446   7.752   7.035 -0.7923  0.7641 -0.2108
 4987SOL    HW216639   8.542   7.822   6.941 -0.7386  0.7340 -0.1783
 4988SOL     OW16640   0.351   0.416   6.524 -0.3745  0.1002  0.8312
 4988SOL    HW116641   0.390   0.379   6.444 -0.2425 -0.6063  1.2172
 4988SOL    HW216642   0.256   0.405   6.511 -0.3867  0.6493  0.4534
 4989SOL     OW16643   7.039   6.004   8.206  0.2447 -0.3080  0.7144
 4989SOL    HW116644   7.053   5.940   8.276  0.7397 -0.1030  0.8035
 4989SOL    HW216645   7.035   5.952   8.126 -1.1797 -0.6318  0.9863
 4990SOL     OW16646   2.340   7.972   1.874  0.3055 -0.4222 -0.1829
 4990SOL    HW116647   2.371   7.961   1.784 -0.4522 -0.3023 -0.4609
 4990SOL    HW216648   2.406   8.027   1.915 -0.2467  1.0338 -1.1800
 4991SOL     OW16649   2.837   3.374   4.901 -0.0315 -0.3738 -0.7432
 4991SOL    HW116650   2.810   3.411   4.985  1.8536 -0.5558 -0.0220
 4991SOL    HW216651   2.805   3.437   4.836  2.9632  2.6104  0.4531
 4992SOL     OW16652   1.924   4.168   6.032  0.0129 -0.1681  0.1867
 4992SOL    HW116653   1.940   4.103   6.100  0.6855 -0.6369 -0.4182
 4992SOL    HW216654   1.829   4.166   6.019 -0.0926 -0.2228  0.9613
 4993SOL     OW16655   5.154   2.113   0.984  0.0041 -0.8523 -0.3603
 4993SOL    HW116656   5.242   2.140   1.007  0.1811 -0.6638 -1.2663
 4993SOL    HW216657   5.097   2.182   1.018  0.3025 -0.3313 -0.9235
 4994SOL     OW16658   0.796   2.784   1.013 -0.3447 -0.4655  0.2887
 4994SOL    HW116659   0.889   2.767   1.030 -0.3753  0.3512  1.3119
 4994SOL    HW216660   0.768   2.838   1.087 -0.7544  2.1577 -1.6790
 4995SOL     OW16661   4.648   5.307   1.754  0.7662  0.5049  0.0840
 4995SOL    HW116662   4.714   5.365   1.789 -0.0837  1.1538  0.6322
 4995SOL    HW216663   4.607   5.268   1.831 -0.0195  0.7121 -0.2240
 4996SOL     OW16664   8.580   0.641   2.650 -0.5050 -0.0043 -0.4023
 4996SOL    HW116665   8.530   0.649   2.731 -1.6515 -1.0866 -0.9825
 4996SOL    HW216666   8.571   0.727   2.608 -0.3400  0.3931  0.3669
 4997SOL     OW16667   5.177   8.577   0.630 -0.7343 -0.0002  0.0331
 4997SOL    HW116668   5.197   8.665   0.596 -1.5334  0.2380  0.1761
 4997SOL    HW216669   5.205   8.580   0.722  1.4844 -0.6665 -0.5838
 4998SOL     OW16670   8.213   5.653   6.797  0.3884  0.0107  0.0031
 4998SOL    HW116671   8.231   5.692   6.711 -0.1503  0.0647 -0.0848
 4998SOL    HW216672   8.244   5.562   6.788 -1.1366 -0.4494 -0.7766
 4999SOL     OW16673   1.134   7.135   5.758  0.2287  0.8023 -0.3556
 4999SOL    HW116674   1.222   7.121   5.794 -0.4189 -3.1895 -0.1472
 4999SOL    HW216675   1.148   7.159   5.667  1.5552  1.4996  0.0245
 5000SOL     OW16676   0.690   5.533   4.667  0.0301  0.5148 -0.3927
 5000SOL    HW116677   0.713   5.617   4.627 -0.6585  0.4615 -0.9076
 5000SOL    HW216678   0.595   5.537   4.677  0.0549 -0.0040  0.0409
 5001SOL     OW16679   4.862   0.191   8.453  0.1049  0.4063  0.0336
 5001SOL    HW116680   4.823   0.150   8.376 -0.3458  0.6014  0.1524
 5001SOL    HW216681   4.947   0.149   8.463  0.6435  1.1577 -1.2349
 5002SOL     OW16682   5.683   7.349   3.956 -0.0111 -0.2793  0.2363
 5002SOL    HW116683   5.680   7.285   4.027  1.3888  0.4813  1.0126
 5002SOL    HW216684   5.646   7.429   3.995 -2.7053 -0.8448 -1.0262
 5003SOL     OW16685   3.140   2.762   1.556 -0.2659 -0.7182 -0.0044
 5003SOL    HW116686   3.169   2.781   1.646  0.4001 -0.3121 -0.2941
 5003SOL    HW216687   3.123   2.668   1.555  2.5021 -1.2752 -0.2001
 5004SOL     OW16688   6.867   5.470   2.709 -0.2783 -0.0090  0.1056
 5004SOL    HW116689   6.948   5.498   2.751 -0.2477 -0.9241  0.6589
 5004SOL    HW216690   6.847   5.540   2.647  1.3487 -0.1605 -0.6086
 5005SOL     OW16691   4.242   7.029   0.630 -0.1892 -0.0992  0.2363
 5005SOL    HW116692   4.186   6.953   0.613 -1.1263  0.6831 -0.2093
 5005SOL    HW216693   4.327   6.991   0.654 -0.9756 -1.3023  1.1991
 5006SOL     OW16694   4.602   3.426   5.770  0.3271 -0.1489  0.8112
 5006SOL    HW116695   4.517   3.470   5.780  0.2190 -0.1114 -0.1972
 5006SOL    HW216696   4.635   3.458   5.686  0.4619 -1.6392  0.2835
 5007SOL     OW16697   0.217   2.366   0.981 -0.2628  0.0420 -0.3729
 5007SOL    HW116698   0.188   2.291   1.033 -1.5045  0.8638  0.1520
 5007SOL    HW216699   0.156   2.370   0.908 -0.2266  0.5598 -0.3800
 5008SOL     OW16700   7.863   5.075   8.623 -0.1438 -1.0112  0.5907
 5008SOL    HW116701   7.792   5.048   8.565 -0.2716 -0.7852  0.6428
 5008SOL    HW216702   7.889   4.995   8.669 -1.3312 -0.8158  1.6339
 5009SOL     OW16703   7.919   6.981   0.240 -0.3891  0.2832  0.0910
 5009SOL    HW116704   7.976   6.926   0.187  2.6236  1.7030  1.6970
 5009SOL    HW216705   7.899   7.056   0.184 -2.3445 -1.1551 -1.1733
 5010SOL     OW16706   8.173   6.125   4.513 -0.6609 -0.8417 -0.4548
 5010SOL    HW116707   8.091   6.174   4.514  0.0708  0.4231 -1.1955
 5010SOL    HW216708   8.230   6.172   4.574 -0.6537 -2.0231  0.4614
 5011SOL     OW16709   6.438   5.451   4.653  0.3045 -0.0168 -0.0166
 5011SOL    HW116710   6.378   5.388   4.695  0.8462  0.1627  1.0514
 5011SOL    HW216711   6.494   5.481   4.724 -0.2716  2.0767 -0.4245
 5012SOL     OW16712   7.777   2.912   3.340 -0.2589  0.4588  0.4819
 5012SOL    HW116713   7.705   2.882   3.396 -1.5047  1.4892 -0.5247
 5012SOL    HW216714   7.835   2.961   3.398 -1.0915  0.7905  1.0454
 5013SOL     OW16715   2.445   3.925   0.319 -0.1644  0.0291  0.0597
 5013SOL    HW116716   2.484   3.854   0.268  0.2046  0.2549  0.0223
 5013SOL    HW216717   2.370   3.955   0.267  0.1054  0.1406 -0.2684
 5014SOL     OW16718   2.074   4.411   6.781 -0.3306 -0.7482 -0.0328
 5014SOL    HW116719   2.153   4.451   6.745 -1.3771  0.0856 -1.4969
 5014SOL    HW216720   2.095   4.393   6.873  1.6519 -0.8483 -0.4913
 5015SOL     OW16721   5.734   3.213   1.472 -0.2967 -0.4204  0.5905
 5015SOL    HW116722   5.795   3.284   1.492  1.6036 -2.6886  3.1290
 5015SOL    HW216723   5.663   3.223   1.535 -0.8678  0.1995 -0.1441
 5016SOL     OW16724   5.386   8.516   4.331 -0.4772  0.5136 -0.3156
 5016SOL    HW116725   5.428   8.582   4.277 -0.3168  0.1451 -0.6372
 5016SOL    HW216726   5.356   8.449   4.270 -2.5850  1.3313 -0.2259
 5017SOL     OW16727   2.908   8.367   8.047 -0.3033  0.3982 -0.1583
 5017SOL    HW116728   2.960   8.380   7.968 -0.6020 -2.5604 -0.9156
 5017SOL    HW216729   2.909   8.452   8.091  1.0246  1.7249 -2.6323
 5018SOL     OW16730   6.298   1.779   0.214 -0.0145 -0.5452  0.1549
 5018SOL    HW116731   6.283   1.792   0.121 -1.4661  1.2413  0.6087
 5018SOL    HW216732   6.380   1.825   0.232 -0.0711 -0.3329 -0.1267
 5019SOL     OW16733   4.008   2.968   3.813  0.2643 -0.5270 -0.2052
 5019SOL    HW116734   4.052   2.980   3.897  1.8297  1.5038 -1.2853
 5019SOL    HW216735   4.046   3.034   3.756 -2.7982 -0.0053 -1.7415
 5020SOL     OW16736   2.729   8.664   0.161 -0.6257  0.8775 -1.1645
 5020SOL    HW116737   2.705   8.715   0.084 -0.1313  1.6220 -0.8354
 5020SOL    HW216738   2.655   8.605   0.175 -0.7409  0.7782 -2.1704
 5021SOL     OW16739   7.826   7.987   2.463  0.3637 -0.2600  0.5767
 5021SOL    HW116740   7.879   7.992   2.383 -0.1235  1.0065  0.3314
 5021SOL    HW216741   7.784   7.900   2.457  0.3695 -0.2029 -0.5235
 5022SOL     OW16742   4.744   7.069   5.463  0.2948 -0.4123  0.5020
 5022SOL    HW116743   4.784   7.145   5.421 -0.0463 -1.3032 -1.4998
 5022SOL    HW216744   4.795   7.056   5.544  1.9574  0.4316 -0.3880
 5023SOL     OW16745   6.041   6.536   2.730  0.0937 -0.1155  0.3333
 5023SOL    HW116746   6.088   6.600   2.676 -0.4208  1.1895  1.3987
 5023SOL    HW216747   5.979   6.494   2.670  0.3189  0.5024 -0.3402
 5024SOL     OW16748   2.684   1.369   2.890 -0.0758  0.2446  0.0284
 5024SOL    HW116749   2.616   1.331   2.835 -1.0185  0.9600  0.6834
 5024SOL    HW216750   2.670   1.329   2.976 -0.8845  1.8242  0.6467
 5025SOL     OW16751   1.494   3.304   4.613  0.2519  0.1812 -0.0226
 5025SOL    HW116752   1.555   3.377   4.601 -0.9615  1.2873  0.4286
 5025SOL    HW216753   1.416   3.331   4.565  0.2787 -1.4507 -1.0293
 5026SOL     OW16754   6.894   6.146   0.229  0.8734 -0.2201  0.4857
 5026SOL    HW116755   6.912   6.092   0.151  2.4096 -0.5261  1.0404
 5026SOL    HW216756   6.861   6.229   0.194 -0.7813 -1.2133 -0.4057
 5027SOL     OW16757   0.231   5.369   5.771  0.3641  0.1949  0.0257
 5027SOL    HW116758   0.323   5.378   5.797 -0.4519 -0.7261  3.4005
 5027SOL    HW216759   0.220   5.274   5.760  0.2511  0.4425 -2.1563
 5028SOL     OW16760   8.908   3.068   9.207 -0.5637  0.5492  0.7037
 5028SOL    HW116761   8.976   3.084   9.141  0.1078 -3.1009  0.3780
 5028SOL    HW216762   8.888   3.154   9.243  0.6759  2.3304 -2.6819
 5029SOL     OW16763   8.448   3.744   2.298 -0.4117  0.3989  0.2827
 5029SOL    HW116764   8.482   3.775   2.214 -0.0215 -0.3302  0.1703
 5029SOL    HW216765   8.358   3.776   2.301 -1.0320 -1.1032 -1.2243
 5030SOL     OW16766   2.608   1.652   8.312 -0.0321  0.1956  0.2583
 5030SOL    HW116767   2.613   1.723   8.248  3.0779  0.3632  0.5883
 5030SOL    HW216768   2.593   1.696   8.396  2.2434  0.5614  0.5140
 5031SOL     OW16769   3.110   2.034   6.013 -0.4955 -0.0672 -0.0306
 5031SOL    HW116770   3.095   2.119   6.053  1.1485  0.0166  0.4586
 5031SOL    HW216771   3.094   2.048   5.920 -0.6552  0.6662  0.1024
 5032SOL     OW16772   6.713   2.137   3.714 -0.2300 -0.1667  0.6505
 5032SOL    HW116773   6.770   2.193   3.767  1.3930 -1.6466  0.5379
 5032SOL    HW216774   6.753   2.050   3.721 -0.9066 -0.6952 -1.6864
 5033SOL     OW16775   3.027   8.917   7.313  0.5139  0.1028 -0.1740
 5033SOL    HW116776   3.000   8.862   7.387  2.0124  1.0060  1.0719
 5033SOL    HW216777   3.019   8.860   7.237 -0.0008 -1.1871  0.8246
 5034SOL     OW16778   8.109   6.868   1.027 -0.6398  0.1050  0.0850
 5034SOL    HW116779   8.119   6.899   1.117  0.4421  1.2870 -0.4299
 5034SOL    HW216780   8.156   6.784   1.027  0.4174  0.6759  0.3358
 5035SOL     OW16781   7.008   0.023   1.052  0.7225  0.4814  0.0183
 5035SOL    HW116782   6.962   0.106   1.051 -0.3256 -0.1027 -1.1268
 5035SOL    HW216783   7.050   0.017   0.966 -2.1388 -1.7457 -1.3157
 5036SOL     OW16784   8.825   7.518   2.487  0.9127 -0.1249 -0.3817
 5036SOL    HW116785   8.843   7.602   2.528 -0.8252 -0.6007  1.5045
 5036SOL    HW216786   8.877   7.455   2.537 -0.8424 -0.6473  0.8544
 5037SOL     OW16787   6.264   2.848   0.923 -0.2308 -0.2107 -0.2426
 5037SOL    HW116788   6.220   2.923   0.963  0.2117  0.5224 -1.1157
 5037SOL    HW216789   6.233   2.773   0.973 -1.6767  0.4101 -0.1843
 5038SOL     OW16790   0.776   0.421   6.037  0.0110 -0.1394 -0.1618
 5038SOL    HW116791   0.764   0.335   6.077 -0.3590  1.1725  2.6467
 5038SOL    HW216792   0.860   0.452   6.071 -0.9327  1.5602  0.7169
 5039SOL     OW16793   8.841   4.336   7.825  0.1062 -0.0207 -0.1006
 5039SOL    HW116794   8.828   4.420   7.782  0.4825  0.3889  0.5748
 5039SOL    HW216795   8.807   4.271   7.763 -0.7434  0.6730 -0.3627
 5040SOL     OW16796   4.599   4.264   5.017  0.6262 -0.3848  0.1949
 5040SOL    HW116797   4.552   4.191   5.056  0.3182  0.2034  0.9353
 5040SOL    HW216798   4.546   4.341   5.039  1.5232  0.1870  0.3604
 5041SOL     OW16799   6.765   2.185   4.777 -0.2979  0.1099 -0.0613
 5041SOL    HW116800   6.683   2.140   4.755 -0.3554  1.0544 -1.8077
 5041SOL    HW216801   6.741   2.242   4.850 -1.1618  0.2411 -0.4389
 5042SOL     OW16802   8.778   4.630   5.328  0.1867  0.0168  0.1351
 5042SOL    HW116803   8.869   4.600   5.318 -0.0815 -1.1263  1.0064
 5042SOL    HW216804   8.786   4.715   5.372  0.8363 -0.0230  0.1083
 5043SOL     OW16805   3.873   5.698   9.033 -0.3597 -0.2589 -0.0666
 5043SOL    HW116806   3.904   5.735   9.115  0.8405 -0.5488 -0.3667
 5043SOL    HW216807   3.783   5.729   9.024  0.2957  1.8051  0.1471
 5044SOL     OW16808   2.349   5.345   0.605  0.3402  0.6176  0.1609
 5044SOL    HW116809   2.295   5.364   0.682 -0.0074  2.2774 -0.4666
 5044SOL    HW216810   2.294   5.289   0.550  1.3330 -2.2995  1.9882
 5045SOL     OW16811   7.229   0.800   3.521 -0.1775  0.2993 -0.7664
 5045SOL    HW116812   7.259   0.773   3.434  0.2360  0.1918 -0.5912
 5045SOL    HW216813   7.303   0.784   3.578 -1.4425 -2.4272  0.1637
 5046SOL     OW16814   1.141   8.177   4.086 -0.4662 -0.4610  0.0727
 5046SOL    HW116815   1.110   8.215   4.168 -0.2817  1.4007 -0.7162
 5046SOL    HW216816   1.237   8.180   4.092 -0.4211  2.2635 -1.3598
 5047SOL     OW16817   8.011   0.127   8.929  0.6624 -0.5168  0.1701
 5047SOL    HW116818   8.103   0.110   8.908  0.9718  0.8005  0.4744
 5047SOL    HW216819   7.970   0.145   8.844  0.2103 -3.1800 -0.2441
 5048SOL     OW16820   1.202   4.783   1.365 -0.3672 -0.0796  0.0148
 5048SOL    HW116821   1.284   4.823   1.393 -0.9757  1.0339  0.2315
 5048SOL    HW216822   1.171   4.735   1.442 -0.1746 -0.0687  0.0986
 5049SOL     OW16823   1.453   3.025   7.651 -0.0767 -0.4127  0.7503
 5049SOL    HW116824   1.463   3.091   7.719  4.0622  1.7292 -1.6885
 5049SOL    HW216825   1.498   3.062   7.575 -2.3815 -3.7352 -2.4352
 5050SOL     OW16826   2.574   2.756   4.893 -0.2864  0.0887  0.0822
 5050SOL    HW116827   2.664   2.748   4.924 -0.7603 -1.5103  1.1214
 5050SOL    HW216828   2.528   2.806   4.961 -0.7617 -1.3178  0.8168
 5051SOL     OW16829   2.619   6.037   4.866 -0.0427 -0.1291  0.3624
 5051SOL    HW116830   2.670   6.092   4.926  1.5320 -1.7728  0.5942
 5051SOL    HW216831   2.666   5.953   4.867 -0.6340 -0.5057 -2.3470
 5052SOL     OW16832   8.867   5.336   7.714  0.5565 -0.4209 -0.4045
 5052SOL    HW116833   8.913   5.335   7.630  1.3088  2.7853 -0.1061
 5052SOL    HW216834   8.879   5.248   7.749  3.0591 -0.8300 -2.1530
 5053SOL     OW16835   1.034   3.802   8.449 -0.4904  0.2592  0.2069
 5053SOL    HW116836   1.112   3.845   8.483 -0.6784  0.5668  0.2478
 5053SOL    HW216837   1.059   3.710   8.441 -0.6409  0.0639  1.8037
 5054SOL     OW16838   6.564   6.155   0.180  0.6915  0.1329  0.7880
 5054SOL    HW116839   6.508   6.217   0.226 -0.3570 -1.1058  1.2329
 5054SOL    HW216840   6.645   6.203   0.162 -0.0901  1.5992  1.1308
 5055SOL     OW16841   7.364   1.336   8.985  0.0856  0.9036  0.6563
 5055SOL    HW116842   7.369   1.294   8.899 -0.0203 -0.1227  1.1398
 5055SOL    HW216843   7.278   1.379   8.985  0.1956  1.1328  0.1539
 5056SOL     OW16844   8.192   0.649   4.559 -0.3901 -0.4578 -0.2342
 5056SOL    HW116845   8.257   0.647   4.489  2.5388 -1.6674  2.4053
 5056SOL    HW216846   8.198   0.563   4.600 -0.8150  0.7776  2.5613
 5057SOL     OW16847   3.552   4.858   5.765 -0.0236  0.3039  0.1799
 5057SOL    HW116848   3.468   4.861   5.810  0.5128  0.4873  1.2070
 5057SOL    HW216849   3.536   4.808   5.686 -0.4960 -1.9976  1.6954
 5058SOL     OW16850   7.848   1.831   5.324  0.0860  0.4544 -0.4823
 5058SOL    HW116851   7.817   1.890   5.392  1.9636  0.7372  0.1606
 5058SOL    HW216852   7.802   1.749   5.339 -0.8366  1.0619  0.0157
 5059SOL     OW16853   7.467   3.609   4.920  0.3863  0.3214 -0.2322
 5059SOL    HW116854   7.396   3.557   4.960  1.1559 -1.5833 -1.2766
 5059SOL    HW216855   7.436   3.629   4.832  1.0356 -0.3168 -0.6121
 5060SOL     OW16856   3.797   2.048   2.792  0.1056  0.2400 -0.4479
 5060SOL    HW116857   3.725   2.093   2.748 -1.1608  0.6442  1.9626
 5060SOL    HW216858   3.871   2.057   2.733 -1.5324  0.7795 -2.4745
 5061SOL     OW16859   8.554   4.995   3.848 -0.2781 -0.5434  0.5138
 5061SOL    HW116860   8.629   4.944   3.878  0.5664  0.5180  0.2601
 5061SOL    HW216861   8.561   5.078   3.897  0.1043  0.5059 -1.2925
 5062SOL     OW16862   3.470   6.592   0.548  0.3493 -0.1600 -0.3270
 5062SOL    HW116863   3.519   6.674   0.544 -0.0568  0.0482 -1.2310
 5062SOL    HW216864   3.524   6.529   0.501  0.9552 -0.5700  0.9109
 5063SOL     OW16865   3.162   5.798   6.547  0.5494 -0.1798 -0.0906
 5063SOL    HW116866   3.149   5.887   6.581  0.6063 -0.7415  1.4787
 5063SOL    HW216867   3.257   5.788   6.541  0.5398  1.4192 -4.6626
 5064SOL     OW16868   3.389   6.568   8.031 -0.5711 -0.1104  0.1759
 5064SOL    HW116869   3.403   6.595   7.940  0.2673 -0.2745  0.2600
 5064SOL    HW216870   3.438   6.487   8.040  1.7368  1.3852  1.5967
 5065SOL     OW16871   1.338   4.210   3.714 -0.1353 -0.1771 -0.1553
 5065SOL    HW116872   1.332   4.246   3.626  2.7513 -0.7498 -0.6166
 5065SOL    HW216873   1.253   4.166   3.727 -1.1524  1.1424 -2.0664
 5066SOL     OW16874   6.585   2.956   2.125 -0.0808  0.2158 -0.3244
 5066SOL    HW116875   6.492   2.946   2.143 -0.7084  1.9745 -2.3710
 5066SOL    HW216876   6.608   2.878   2.074 -0.2296 -0.6059  0.8475
 5067SOL     OW16877   0.970   4.523   7.519  0.3706 -0.3626 -0.1936
 5067SOL    HW116878   0.957   4.473   7.599  0.2139  0.0228  0.0224
 5067SOL    HW216879   1.065   4.525   7.507  0.4500  0.4213  0.5224
 5068SOL     OW16880   8.154   3.523   6.131  0.0811 -0.4208  0.2886
 5068SOL    HW116881   8.122   3.597   6.182 -2.8509 -1.6707  0.3468
 5068SOL    HW216882   8.168   3.559   6.043  1.9694  0.9614  1.1255
 5069SOL     OW16883   8.645   2.842   3.146  0.2865 -0.4017  0.1785
 5069SOL    HW116884   8.554   2.837   3.174 -0.1681  0.5946 -1.1146
 5069SOL    HW216885   8.643   2.828   3.052  1.4440  0.0099  0.0813
 5070SOL     OW16886   6.470   6.516   3.316  0.2949  0.2016 -0.6594
 5070SOL    HW116887   6.439   6.426   3.323  1.2915 -0.0584  0.5569
 5070SOL    HW216888   6.516   6.519   3.232  0.6708 -0.5485 -0.4824
 5071SOL     OW16889   8.860   3.600   8.157  0.1733  0.0595  0.3859
 5071SOL    HW116890   8.908   3.572   8.079  0.0527 -0.9330  0.6523
 5071SOL    HW216891   8.778   3.637   8.123  0.4751  0.3852  0.0058
 5072SOL     OW16892   2.752   6.087   1.872  0.1319  0.1250 -0.3525
 5072SOL    HW116893   2.717   6.113   1.958 -0.9023 -0.8151 -0.4637
 5072SOL    HW216894   2.674   6.083   1.816  0.1640 -3.4514 -0.2426
 5073SOL     OW16895   5.365   1.521   6.738  0.8183  0.6517  0.3967
 5073SOL    HW116896   5.335   1.528   6.829 -0.1224 -1.3899  0.2565
 5073SOL    HW216897   5.365   1.612   6.706  0.6866  1.3332  2.2733
 5074SOL     OW16898   0.326   6.284   2.794  0.2031  0.0856 -0.2203
 5074SOL    HW116899   0.412   6.320   2.815 -0.6337  2.3279 -0.5581
 5074SOL    HW216900   0.345   6.200   2.751  2.2257  0.8823 -0.9233
 5075SOL     OW16901   5.024   7.778   1.820  0.1618  0.1984 -0.1607
 5075SOL    HW116902   5.058   7.691   1.798  0.7654  0.8432 -1.9470
 5075SOL    HW216903   5.005   7.818   1.735  0.3082  1.9654  0.6079
 5076SOL     OW16904   4.840   3.601   8.278 -0.2692 -0.2792  0.5022
 5076SOL    HW116905   4.827   3.679   8.224  0.2710 -2.0569 -2.2952
 5076SOL    HW216906   4.752   3.562   8.284 -0.2047 -0.4666  0.2641
 5077SOL     OW16907   6.531   8.610   0.587 -0.0180  0.4142  0.6203
 5077SOL    HW116908   6.456   8.664   0.611 -0.9621 -0.8251  0.5334
 5077SOL    HW216909   6.504   8.521   0.610  1.0870 -0.1489 -0.2270
 5078SOL     OW16910   4.992   3.495   7.693  0.2383  0.6071 -0.4004
 5078SOL    HW116911   4.964   3.583   7.671 -1.8922 -0.2566 -1.2643
 5078SOL    HW216912   5.087   3.496   7.682  0.1178  2.5019 -1.3972
 5079SOL     OW16913   6.119   9.088   1.339  0.3136 -0.2073  0.3542
 5079SOL    HW116914   6.068   9.167   1.321  0.0370 -0.7451 -1.2918
 5079SOL    HW216915   6.208   9.110   1.310  0.3486 -0.3114  0.3815
 5080SOL     OW16916   0.873   8.254   5.937  0.6577 -0.0487  0.6243
 5080SOL    HW116917   0.954   8.239   5.986  0.9596 -1.4767 -0.2539
 5080SOL    HW216918   0.848   8.167   5.905 -0.9279  0.4629  0.4159
 5081SOL     OW16919   3.214   0.084   5.923 -0.8545 -0.4742 -0.4864
 5081SOL    HW116920   3.147   0.072   5.991  0.3726 -0.2559  0.7794
 5081SOL    HW216921   3.164   0.108   5.845 -2.2276  0.2407  0.5788
 5082SOL     OW16922   6.449   0.425   4.218 -0.3627  0.1888  0.0639
 5082SOL    HW116923   6.526   0.478   4.237 -0.5271  0.6243 -0.4797
 5082SOL    HW216924   6.451   0.355   4.284  1.9869 -1.3836 -1.5864
 5083SOL     OW16925   6.068   6.725   8.216  0.4742  0.6577 -0.5000
 5083SOL    HW116926   6.129   6.797   8.197  1.1373  0.1629 -0.2737
 5083SOL    HW216927   6.000   6.765   8.270  1.2304  0.9605  0.2543
 5084SOL     OW16928   4.118   7.380   4.829 -0.1125  0.2645 -0.1812
 5084SOL    HW116929   4.046   7.357   4.770 -0.9959  0.1424  0.9238
 5084SOL    HW216930   4.132   7.301   4.881  2.9887 -0.8403 -2.5254
 5085SOL     OW16931   1.404   2.827   7.423 -0.7136  0.7062 -0.0472
 5085SOL    HW116932   1.429   2.919   7.415  0.5340  0.4258  0.4759
 5085SOL    HW216933   1.442   2.785   7.346 -0.7851  0.5190  0.0192
 5086SOL     OW16934   2.121   1.867   5.200 -0.4293  0.2781 -0.1326
 5086SOL    HW116935   2.113   1.774   5.177 -0.2814 -0.0610  1.1595
 5086SOL    HW216936   2.216   1.881   5.208 -0.4295  0.6517 -0.7532
 5087SOL     OW16937   3.663   0.390   1.320  0.1149  0.2043  0.3578
 5087SOL    HW116938   3.607   0.325   1.363  0.0429 -0.4371 -0.6849
 5087SOL    HW216939   3.616   0.473   1.330 -2.1537 -0.6569 -2.4399
 5088SOL     OW16940   1.904   7.426   3.795  0.0762 -0.1632  0.4682
 5088SOL    HW116941   1.874   7.517   3.798  1.5542  0.3093  2.0218
 5088SOL    HW216942   1.894   7.400   3.704 -0.7044  1.4409  0.0789
 5089SOL     OW16943   7.780   7.578   4.475 -0.5562 -0.0957  0.0642
 5089SOL    HW116944   7.771   7.507   4.411 -0.5695  0.2267 -0.2943
 5089SOL    HW216945   7.690   7.595   4.504 -0.6887  0.5771 -0.7302
 5090SOL     OW16946   8.847   2.763   5.726 -0.4144  0.3349  0.2669
 5090SOL    HW116947   8.826   2.830   5.791  1.5183  0.3990  0.8611
 5090SOL    HW216948   8.834   2.808   5.642 -0.8683  0.9100  0.6362
 5091SOL     OW16949   6.291   4.738   1.993  0.4353  0.0014  0.1994
 5091SOL    HW116950   6.251   4.708   2.075 -0.1868  0.7777  0.1948
 5091SOL    HW216951   6.236   4.812   1.967 -1.0151 -1.9135 -2.3375
 5092SOL     OW16952   7.846   6.517   7.667 -0.6635  0.1866 -0.3563
 5092SOL    HW116953   7.840   6.451   7.598 -1.6763  0.2975 -0.3691
 5092SOL    HW216954   7.933   6.503   7.706 -0.4386 -0.4350 -1.0783
 5093SOL     OW16955   7.924   0.701   1.350 -0.2004 -0.1593  0.4485
 5093SOL    HW116956   7.922   0.644   1.426  0.1810  0.6194  1.0508
 5093SOL    HW216957   7.854   0.764   1.365 -1.7802 -1.5349 -1.0631
 5094SOL     OW16958   4.440   8.897   3.650 -0.1603  0.3457  0.0247
 5094SOL    HW116959   4.418   8.854   3.732  1.1358  1.1572  0.8078
 5094SOL    HW216960   4.530   8.926   3.661 -0.2886  1.3272 -1.3169
 5095SOL     OW16961   5.497   9.171   7.268 -0.4992 -0.0476 -0.7519
 5095SOL    HW116962   5.574   9.196   7.318 -0.7264 -0.8802  0.0143
 5095SOL    HW216963   5.531   9.149   7.181  0.0580  0.0788 -0.5686
 5096SOL     OW16964   0.577   5.871   4.924 -0.3656  0.0196 -0.0010
 5096SOL    HW116965   0.624   5.912   4.851  1.8071  2.4305  2.6161
 5096SOL    HW216966   0.635   5.801   4.954 -0.4560  0.1154  0.4100
 5097SOL     OW16967   2.365   8.666   7.428  0.4980  0.6306  0.7114
 5097SOL    HW116968   2.282   8.713   7.426  0.7891  1.1373  0.2761
 5097SOL    HW216969   2.352   8.595   7.490  0.2191  1.6126  1.7788
 5098SOL     OW16970   7.244   3.189   2.704 -0.1523 -1.0499 -0.7775
 5098SOL    HW116971   7.184   3.183   2.629 -2.0456 -2.9623  0.8367
 5098SOL    HW216972   7.213   3.265   2.754 -0.8470 -1.6773 -0.2596
 5099SOL     OW16973   3.331   0.819   0.657  0.0198 -0.3800 -0.0203
 5099SOL    HW116974   3.423   0.837   0.675 -0.1172  0.4994 -0.1686
 5099SOL    HW216975   3.284   0.860   0.730 -0.2256 -1.3683  0.3925
 5100SOL     OW16976   3.596   4.553   3.940 -0.1813  0.3071  0.3723
 5100SOL    HW116977   3.688   4.581   3.941  0.2235 -0.9507 -0.9084
 5100SOL    HW216978   3.580   4.521   4.029  0.3192  1.4330  0.8864
 5101SOL     OW16979   1.406   1.800   4.850  0.3091  0.1343  0.5474
 5101SOL    HW116980   1.311   1.793   4.840  0.3977 -0.1081 -0.2071
 5101SOL    HW216981   1.440   1.784   4.762  1.0887 -0.4415  0.9512
 5102SOL     OW16982   9.035   0.312   6.199 -0.0653 -0.5304 -0.4182
 5102SOL    HW116983   9.036   0.371   6.124  1.9493  0.6746  0.5164
 5102SOL    HW216984   9.090   0.239   6.173  0.8932  0.0389 -0.0176
 5103SOL     OW16985   2.534   8.440   1.336  0.0463 -0.4722  0.8027
 5103SOL    HW116986   2.585   8.403   1.265  0.0525  0.3385  0.3737
 5103SOL    HW216987   2.582   8.520   1.361 -0.1605 -0.5441  1.4536
 5104SOL     OW16988   1.233   4.451   2.529 -0.5453  0.0952  0.8994
 5104SOL    HW116989   1.150   4.404   2.521 -0.4873  0.2911 -1.3140
 5104SOL    HW216990   1.236   4.480   2.620 -3.0049  0.2737  0.9591
 5105SOL     OW16991   0.582   0.128   4.876 -0.1791  0.1396  0.3314
 5105SOL    HW116992   0.597   0.124   4.970 -1.6552  0.3116  0.5957
 5105SOL    HW216993   0.651   0.073   4.838 -1.0437 -1.9596  1.6868
 5106SOL     OW16994   0.327   7.178   4.618 -0.2272 -0.4461 -0.1606
 5106SOL    HW116995   0.232   7.168   4.621 -0.5585  2.2311  0.0420
 5106SOL    HW216996   0.360   7.117   4.683 -1.8656 -1.0020  0.1578
 5107SOL     OW16997   6.581   6.906   7.682  0.5441  0.6288  0.5844
 5107SOL    HW116998   6.529   6.908   7.601 -0.1253  2.0985  1.0421
 5107SOL    HW216999   6.526   6.860   7.745  0.4295  0.8624  0.6523
 5108SOL     OW17000   4.239   7.364   2.784  0.2960  0.4821  0.6277
 5108SOL    HW117001   4.325   7.336   2.754  0.7431  2.3558  0.0764
 5108SOL    HW217002   4.194   7.283   2.810  2.5552 -0.4223  1.8272
 5109SOL     OW17003   8.707   2.756   8.475  0.2214 -0.1736 -0.2616
 5109SOL    HW117004   8.713   2.781   8.383 -0.8677  0.3382 -0.1897
 5109SOL    HW217005   8.734   2.835   8.523 -1.7611  0.4256 -0.0819
 5110SOL     OW17006   3.724   1.676   7.155 -0.0342  0.2489 -0.2059
 5110SOL    HW117007   3.813   1.656   7.186 -0.8565 -3.5084 -0.0159
 5110SOL    HW217008   3.736   1.695   7.062  1.0224  0.0908 -0.1161
 5111SOL     OW17009   3.386   8.312   3.566 -0.4293 -0.2588 -0.3497
 5111SOL    HW117010   3.309   8.357   3.602  0.7181  0.8952  0.7175
 5111SOL    HW217011   3.444   8.382   3.538  0.3282 -1.1183 -0.9674
 5112SOL     OW17012   3.399   5.795   9.211 -0.4302 -0.1764 -0.0562
 5112SOL    HW117013   3.307   5.805   9.234  0.0727  0.2027  1.8295
 5112SOL    HW217014   3.403   5.711   9.165 -1.7120 -0.1851 -0.1839
 5113SOL     OW17015   4.823   8.170   2.375  0.3372 -0.0964  0.1466
 5113SOL    HW117016   4.756   8.212   2.320 -0.9568 -1.6933  0.4549
 5113SOL    HW217017   4.780   8.158   2.460  0.8037 -1.6658  0.1776
 5114SOL     OW17018   2.691   8.641   1.113 -0.5570  0.0395  0.3401
 5114SOL    HW117019   2.715   8.684   1.031 -0.9431  0.6389  0.5425
 5114SOL    HW217020   2.764   8.662   1.172 -0.4081 -0.1685  0.2295
 5115SOL     OW17021   4.783   5.119   3.641  0.6994 -0.5751 -0.5165
 5115SOL    HW117022   4.836   5.183   3.593 -0.4293 -0.5582 -1.7420
 5115SOL    HW217023   4.807   5.035   3.603  0.4022 -0.6455 -0.5478
 5116SOL     OW17024   7.795   6.421   9.230  0.0152 -0.4582 -0.2690
 5116SOL    HW117025   7.886   6.450   9.231  0.3365 -1.3236  3.3843
 5116SOL    HW217026   7.753   6.469   9.302 -1.2311 -3.4299  1.1059
 5117SOL     OW17027   0.894   5.546   2.427  0.1337 -0.0441 -1.0024
 5117SOL    HW117028   0.801   5.531   2.446  0.1644 -0.5634 -1.2532
 5117SOL    HW217029   0.931   5.573   2.511 -0.2163  0.0362 -0.8713
 5118SOL     OW17030   5.246   2.095   2.298 -0.2122  0.1406  0.3020
 5118SOL    HW117031   5.262   2.020   2.241  0.6990  1.0376 -0.6650
 5118SOL    HW217032   5.279   2.069   2.383  3.1547  0.6111 -0.7952
 5119SOL     OW17033   9.214   4.702   0.635  0.1846 -0.2274  0.7446
 5119SOL    HW117034   9.308   4.687   0.643  0.4115  0.4622 -0.4770
 5119SOL    HW217035   9.180   4.621   0.598  0.3384 -0.3455  0.8546
 5120SOL     OW17036   1.821   4.544   3.258  0.2238 -0.7895  0.1717
 5120SOL    HW117037   1.828   4.457   3.297  2.5722 -0.4907  0.5141
 5120SOL    HW217038   1.792   4.600   3.330  1.2713 -0.8324  0.6321
 5121SOL     OW17039   4.121   2.680   9.057  0.0629 -0.1527  0.0260
 5121SOL    HW117040   4.147   2.771   9.068  0.7159 -0.1118 -1.7060
 5121SOL    HW217041   4.071   2.679   8.975 -0.8392 -1.1672  0.5732
 5122SOL     OW17042   6.707   6.697   0.957 -0.1298  0.5059 -0.2551
 5122SOL    HW117043   6.629   6.640   0.953  0.3727 -0.1842 -0.3599
 5122SOL    HW217044   6.780   6.639   0.935  0.3971  1.1955 -0.3476
 5123SOL     OW17045   7.051   1.579   7.176  0.0070 -0.6241  0.4541
 5123SOL    HW117046   7.088   1.600   7.090  0.1958 -0.1865  0.6399
 5123SOL    HW217047   7.088   1.494   7.198  0.6411 -0.3445  0.4855
 5124SOL     OW17048   6.510   0.324   6.048 -0.0428 -0.6245 -0.0848
 5124SOL    HW117049   6.422   0.304   6.081  0.9023 -1.2206  2.1835
 5124SOL    HW217050   6.559   0.242   6.061  0.7786 -0.3859 -1.6009
 5125SOL     OW17051   5.848   3.364   7.283  0.4085  0.2864 -0.6930
 5125SOL    HW117052   5.838   3.458   7.271  1.2860  0.7265  1.7067
 5125SOL    HW217053   5.941   3.348   7.273  0.9229  0.4083  3.1421
 5126SOL     OW17054   4.593   4.524   5.628 -0.0865  0.3185  0.2611
 5126SOL    HW117055   4.647   4.503   5.704  0.1307 -1.6256 -0.3940
 5126SOL    HW217056   4.508   4.548   5.664 -0.0144 -0.6892  1.1240
 5127SOL     OW17057   5.730   3.260   1.857 -0.0543 -0.3198 -0.2625
 5127SOL    HW117058   5.712   3.241   1.950 -2.0741 -1.3968 -0.8323
 5127SOL    HW217059   5.679   3.338   1.839  1.2667  0.5686 -0.1818
 5128SOL     OW17060   8.323   6.978   5.876 -0.4082  0.5500 -0.2770
 5128SOL    HW117061   8.264   6.928   5.934 -0.8759  0.7941 -0.5343
 5128SOL    HW217062   8.268   7.049   5.843  0.0601  0.8220 -0.4621
 5129SOL     OW17063   5.867   2.920   6.856 -0.7174  0.3773  0.4865
 5129SOL    HW117064   5.960   2.923   6.831 -0.5943 -0.3110  0.8587
 5129SOL    HW217065   5.820   2.928   6.773 -0.3562  2.6180  0.4593
 5130SOL     OW17066   7.579   3.314   7.254 -0.1454 -0.6234  0.2444
 5130SOL    HW117067   7.509   3.289   7.194 -0.3137  0.2827  0.0625
 5130SOL    HW217068   7.536   3.324   7.339 -0.2160 -0.1754  0.1555
 5131SOL     OW17069   5.054   1.796   6.213  0.2985  0.5157  0.1463
 5131SOL    HW117070   5.125   1.847   6.174  1.6642 -1.0553  0.4722
 5131SOL    HW217071   5.088   1.706   6.214 -1.2212 -0.0695  1.4466
 5132SOL     OW17072   6.290   5.574   7.970  0.0732  0.0793  0.4248
 5132SOL    HW117073   6.232   5.605   8.040 -0.1645  0.2662  0.1490
 5132SOL    HW217074   6.352   5.515   8.013  0.1129  0.4301  0.8381
 5133SOL     OW17075   2.056   1.522   1.850  0.1864 -0.1251  0.0031
 5133SOL    HW117076   2.026   1.598   1.901  1.3878  0.1131  0.3591
 5133SOL    HW217077   2.135   1.553   1.805 -1.4844  0.0574 -2.9801
 5134SOL     OW17078   2.261   8.453   4.612 -0.0482 -0.4004  0.3366
 5134SOL    HW117079   2.221   8.539   4.624 -3.1160 -1.9653  1.8818
 5134SOL    HW217080   2.190   8.397   4.581  1.5420 -2.7080  0.6824
 5135SOL     OW17081   1.095   0.217   2.457 -0.6152  0.1694  0.2223
 5135SOL    HW117082   1.175   0.255   2.495 -0.4384 -1.3549  1.3950
 5135SOL    HW217083   1.049   0.179   2.532 -1.5242 -0.5959 -0.7239
 5136SOL     OW17084   1.334   3.881   4.546 -0.4374 -0.6340  0.2789
 5136SOL    HW117085   1.345   3.793   4.584  2.2313 -1.4097 -2.0820
 5136SOL    HW217086   1.255   3.874   4.493 -0.0926 -1.7153 -0.1150
 5137SOL     OW17087   2.736   6.930   8.234  0.4515 -0.1057  0.0274
 5137SOL    HW117088   2.737   6.996   8.304  0.4800 -0.3291  0.2392
 5137SOL    HW217089   2.816   6.948   8.184  0.1906  0.3545 -0.2302
 5138SOL     OW17090   8.264   8.707   8.087 -0.3772 -0.1988 -0.2116
 5138SOL    HW117091   8.211   8.765   8.142 -0.6419 -2.0251  1.5330
 5138SOL    HW217092   8.350   8.706   8.128 -0.5114 -1.3903  0.0873
 5139SOL     OW17093   5.133   6.469   8.008  0.1230 -0.1709 -0.5151
 5139SOL    HW117094   5.140   6.401   8.075 -0.1752  0.3753  0.0829
 5139SOL    HW217095   5.224   6.493   7.988  0.2016  0.6098  0.6895
 5140SOL     OW17096   6.981   1.447   9.294  0.0482 -0.1048 -0.3001
 5140SOL    HW117097   6.894   1.485   9.309  0.5975  1.7976 -1.8404
 5140SOL    HW217098   7.004   1.407   9.377 -1.5595  0.8993  0.6495
 5141SOL     OW17099   0.106   8.442   7.948  0.5335 -0.5026  0.2176
 5141SOL    HW117100   0.201   8.429   7.943  0.4661 -1.0703  0.4684
 5141SOL    HW217101   0.070   8.355   7.958  0.0219 -0.2193  0.8150
 5142SOL     OW17102   1.526   1.793   2.018 -0.0087 -0.4759 -0.5314
 5142SOL    HW117103   1.589   1.865   2.019  1.4352 -1.6986 -1.7269
 5142SOL    HW217104   1.475   1.807   1.938 -1.6472  0.8205  0.7138
 5143SOL     OW17105   0.836   8.468   9.093 -0.6353  0.1514 -0.3647
 5143SOL    HW117106   0.909   8.409   9.077 -0.5042  0.0265  0.6384
 5143SOL    HW217107   0.766   8.412   9.127 -0.0558  0.7286  1.9047
 5144SOL     OW17108   1.879   5.928   5.040  0.5195 -0.2800 -0.2307
 5144SOL    HW117109   1.885   5.859   4.975 -3.3327 -0.0390 -0.9473
 5144SOL    HW217110   1.904   6.008   4.993  0.0044 -0.4408 -0.7715
 5145SOL     OW17111   3.896   9.098   6.897 -0.3579 -0.2496 -0.6914
 5145SOL    HW117112   3.834   9.034   6.932 -0.5120 -0.5159 -1.4442
 5145SOL    HW217113   3.895   9.083   6.802 -0.2208  0.7048 -0.8525
 5146SOL     OW17114   8.077   1.032   2.188 -0.1767 -0.4598 -0.0020
 5146SOL    HW117115   8.032   0.974   2.126  1.2106 -0.5350 -0.9576
 5146SOL    HW217116   8.075   0.985   2.271  2.3403 -2.6238 -1.1213
 5147SOL     OW17117   3.705   0.486   4.329 -0.0657 -0.1342  0.3792
 5147SOL    HW117118   3.637   0.552   4.341 -0.5203 -0.5629  0.1523
 5147SOL    HW217119   3.746   0.508   4.246 -1.4871 -1.2738 -0.6409
 5148SOL     OW17120   9.209   1.906   5.558 -0.2156 -0.6773 -0.3934
 5148SOL    HW117121   9.117   1.931   5.546  0.5107  1.2227 -2.2895
 5148SOL    HW217122   9.214   1.876   5.649 -2.8131 -1.3360 -0.4206
 5149SOL     OW17123   7.212   7.531   3.780  0.1521  0.0487 -0.2022
 5149SOL    HW117124   7.258   7.590   3.840 -0.3497 -1.0399  1.3097
 5149SOL    HW217125   7.131   7.510   3.827 -1.5984  1.4003 -2.5032
 5150SOL     OW17126   0.547   3.695   8.669 -0.2259  0.2758  0.2037
 5150SOL    HW117127   0.549   3.637   8.746 -0.8695 -0.8659 -0.6291
 5150SOL    HW217128   0.577   3.640   8.597  0.9485  1.5167 -0.2646
 5151SOL     OW17129   4.174   0.780   8.770 -0.3356  0.0291  0.0680
 5151SOL    HW117130   4.245   0.776   8.706  0.1623  0.8162  0.5576
 5151SOL    HW217131   4.194   0.857   8.823 -0.6064 -0.7532  1.3248
 5152SOL     OW17132   2.695   5.563   8.631 -0.0327  0.2733 -0.4038
 5152SOL    HW117133   2.663   5.540   8.718  1.4150 -0.3834 -0.0301
 5152SOL    HW217134   2.718   5.656   8.638  0.2567  0.1763 -0.0290
 5153SOL     OW17135   4.377   3.037   1.833  0.0000  0.0111 -0.0694
 5153SOL    HW117136   4.439   3.076   1.771  0.3035  0.9279  0.7993
 5153SOL    HW217137   4.414   3.056   1.919 -0.6421 -0.8811  0.4127
 5154SOL     OW17138   8.081   5.698   1.217 -0.3058  0.0721 -0.6844
 5154SOL    HW117139   8.104   5.744   1.297 -1.5563 -0.6778  0.1263
 5154SOL    HW217140   8.063   5.609   1.245 -0.2712 -0.3158 -1.8778
 5155SOL     OW17141   8.212   5.735   4.303  0.2813  0.0780 -0.0152
 5155SOL    HW117142   8.278   5.771   4.244 -1.0707  1.1251 -0.9355
 5155SOL    HW217143   8.223   5.784   4.384  0.4417  0.4549 -0.2627
 5156SOL     OW17144   0.455   0.782   3.448 -0.0364  0.4358  0.0695
 5156SOL    HW117145   0.388   0.844   3.422 -1.4826 -0.1889  2.1259
 5156SOL    HW217146   0.428   0.699   3.408  0.1181  0.4395 -0.0404
 5157SOL     OW17147   4.752   8.708   1.682 -0.1184 -0.2626  0.0922
 5157SOL    HW117148   4.683   8.725   1.746 -0.6174 -0.6681 -0.3224
 5157SOL    HW217149   4.754   8.786   1.627  0.4179  0.1474  0.6949
 5158SOL     OW17150   2.258   1.794   6.278  0.0570  0.3727 -0.5261
 5158SOL    HW117151   2.290   1.836   6.198  1.1490 -0.0401 -0.3166
 5158SOL    HW217152   2.189   1.735   6.249 -0.3738  1.1065 -1.0135
 5159SOL     OW17153   0.336   4.271   7.294 -0.2756 -0.3231  0.1938
 5159SOL    HW117154   0.282   4.209   7.246 -0.1055 -0.3318  0.0100
 5159SOL    HW217155   0.337   4.239   7.384 -1.7697  0.4885  0.5053
 5160SOL     OW17156   8.232   8.801   0.617  0.8736 -0.5069 -0.3511
 5160SOL    HW117157   8.258   8.865   0.551 -0.9201  1.0513  0.4196
 5160SOL    HW217158   8.246   8.846   0.700 -0.6074 -1.0357  0.1939
 5161SOL     OW17159   6.392   5.445   4.244  0.1191 -0.3671 -0.2517
 5161SOL    HW117160   6.405   5.483   4.157  2.1753 -0.0995  0.1281
 5161SOL    HW217161   6.403   5.350   4.231 -4.2887 -0.8790 -1.0688
 5162SOL     OW17162   7.446   8.168   1.767  0.5445 -0.3148  0.3421
 5162SOL    HW117163   7.368   8.181   1.820  1.0839 -1.2772  1.4038
 5162SOL    HW217164   7.443   8.237   1.701  0.4307  1.6063  2.3130
 5163SOL     OW17165   3.177   0.310   7.411 -0.3400  0.4459  0.4412
 5163SOL    HW117166   3.230   0.234   7.436  0.0726  0.8559  0.8305
 5163SOL    HW217167   3.092   0.294   7.450 -0.8237 -0.7181 -1.0574
 5164SOL     OW17168   3.319   2.878   8.566  0.4089 -0.4975 -0.3936
 5164SOL    HW117169   3.314   2.863   8.661 -1.7609  0.8390 -0.2600
 5164SOL    HW217170   3.387   2.945   8.556 -0.7353  0.8366  0.4494
 5165SOL     OW17171   1.861   0.225   4.007  0.0317 -0.2747  0.1464
 5165SOL    HW117172   1.915   0.159   4.050  2.1396  0.7953 -0.7947
 5165SOL    HW217173   1.857   0.197   3.916  0.8879  0.8594 -0.2451
 5166SOL     OW17174   7.016   6.165   7.353 -0.0732 -0.1805  0.5142
 5166SOL    HW117175   6.986   6.111   7.427 -1.5649  1.3585  1.0770
 5166SOL    HW217176   7.081   6.110   7.309 -0.6221 -1.9412  1.7843
 5167SOL     OW17177   8.832   7.076   2.337 -0.2937 -0.3580 -0.3950
 5167SOL    HW117178   8.912   7.024   2.327  0.1121  0.3413 -0.7944
 5167SOL    HW217179   8.763   7.011   2.350  0.3444 -0.9627 -0.0208
 5168SOL     OW17180   3.729   8.542   1.502 -0.2719 -0.3621 -0.1251
 5168SOL    HW117181   3.720   8.637   1.501  0.0262 -0.3337  0.0195
 5168SOL    HW217182   3.714   8.516   1.411  1.3247 -0.0258 -0.4850
 5169SOL     OW17183   4.467   4.654   1.105  0.0974  0.3776  0.2759
 5169SOL    HW117184   4.421   4.639   1.023 -0.9621  1.1115  0.7240
 5169SOL    HW217185   4.405   4.704   1.159  1.1779  0.8373  1.1199
 5170SOL     OW17186   5.018   7.387   5.762  0.8630 -0.4881 -0.3489
 5170SOL    HW117187   5.092   7.329   5.750  0.5155 -0.7383 -1.3366
 5170SOL    HW217188   5.043   7.468   5.718  1.6700  0.4122  1.6956
 5171SOL     OW17189   7.074   3.455   8.242 -0.5594  0.6973 -0.1154
 5171SOL    HW117190   7.054   3.370   8.203  0.2754 -0.2222  1.4274
 5171SOL    HW217191   7.103   3.435   8.331 -0.0178  2.5698  0.1575
 5172SOL     OW17192   1.049   8.163   2.046 -0.1246  0.8088  0.0826
 5172SOL    HW117193   1.082   8.174   1.957 -0.9560 -1.2282 -0.5061
 5172SOL    HW217194   1.125   8.135   2.097 -0.1920 -0.6031 -0.5662
 5173SOL     OW17195   5.136   9.158   6.725  0.4618 -0.1276 -0.4642
 5173SOL    HW117196   5.167   9.146   6.635  1.3448 -1.4123  0.0037
 5173SOL    HW217197   5.144   9.252   6.740  2.2548 -0.1686 -1.0404
 5174SOL     OW17198   4.916   0.580   0.393 -0.2203  1.1898 -0.7371
 5174SOL    HW117199   4.822   0.561   0.397 -0.1366  0.9142 -0.0753
 5174SOL    HW217200   4.925   0.667   0.431 -0.0802  0.7780  0.1802
 5175SOL     OW17201   6.841   8.306   3.532 -0.6461  0.2738 -0.1616
 5175SOL    HW117202   6.865   8.368   3.464  1.5724 -1.4032 -0.9481
 5175SOL    HW217203   6.806   8.230   3.485  0.6486 -0.7836  0.5656
 5176SOL     OW17204   4.666   3.999   0.292 -0.0911 -0.4735 -0.2867
 5176SOL    HW117205   4.715   4.032   0.217  2.5426 -2.7950  0.3535
 5176SOL    HW217206   4.598   3.943   0.254 -2.1401  2.4425 -1.1438
 5177SOL     OW17207   1.600   0.210   4.058 -0.4826 -0.4436 -0.6078
 5177SOL    HW117208   1.544   0.165   3.994  1.3721  0.0188 -2.6493
 5177SOL    HW217209   1.689   0.195   4.026  0.2950  3.4978 -0.6177
 5178SOL     OW17210   4.567   8.729   6.902  0.1900  0.3321 -0.2780
 5178SOL    HW117211   4.647   8.680   6.885 -0.3710  0.0537 -2.2004
 5178SOL    HW217212   4.527   8.685   6.978  0.5001 -1.1901 -0.9819
 5179SOL     OW17213   2.462   5.842   6.300  0.0559  0.4715 -0.6089
 5179SOL    HW117214   2.383   5.884   6.265 -0.1582 -1.3725 -2.4893
 5179SOL    HW217215   2.432   5.795   6.377 -0.3450  1.1550 -0.3459
 5180SOL     OW17216   6.444   8.709   2.948  0.1794  0.2276  0.0326
 5180SOL    HW117217   6.394   8.674   2.874 -1.4623  1.0474  0.7105
 5180SOL    HW217218   6.510   8.765   2.907  0.6906 -1.0352 -0.9007
 5181SOL     OW17219   3.406   3.504   5.526 -0.1876  0.8287 -0.4448
 5181SOL    HW117220   3.471   3.524   5.593 -1.1762  0.5126  0.6338
 5181SOL    HW217221   3.449   3.439   5.470  0.4098  0.6013  0.2676
 5182SOL     OW17222   4.632   2.750   8.356 -0.0920 -0.4636 -0.2408
 5182SOL    HW117223   4.623   2.738   8.451 -0.0562 -0.1600 -0.1984
 5182SOL    HW217224   4.724   2.733   8.339  0.0876  0.3325 -0.0940
 5183SOL     OW17225   7.972   6.644   1.231 -0.1872 -0.3158  0.2029
 5183SOL    HW117226   7.911   6.622   1.301 -0.7774 -1.0887 -0.5416
 5183SOL    HW217227   8.023   6.718   1.265 -1.3030  0.1086  0.9606
 5184SOL     OW17228   1.092   1.914   0.725 -0.9142  0.0543 -0.5046
 5184SOL    HW117229   1.179   1.936   0.692 -0.6593 -0.7220 -0.3475
 5184SOL    HW217230   1.034   1.928   0.649 -0.5788  0.0477 -0.7636
 5185SOL     OW17231   5.533   0.773   5.197 -0.5692  0.5289 -0.0691
 5185SOL    HW117232   5.555   0.680   5.189 -0.4974  0.6199 -1.0945
 5185SOL    HW217233   5.544   0.793   5.290 -1.3438 -0.6688  0.2908
 5186SOL     OW17234   9.152   7.573   5.416  0.0799 -0.3071  0.6111
 5186SOL    HW117235   9.143   7.646   5.355  1.1176 -0.6189  0.0809
 5186SOL    HW217236   9.138   7.612   5.502  0.7666  0.5496  0.3392
 5187SOL     OW17237   2.479   4.930   3.329 -0.0747  0.1252 -0.1956
 5187SOL    HW117238   2.520   4.853   3.370  0.1498  0.4871  0.2642
 5187SOL    HW217239   2.551   4.975   3.285 -0.0713  0.4805  0.1737
 5188SOL     OW17240   0.500   6.412   5.581  0.2535 -0.8216 -0.4444
 5188SOL    HW117241   0.465   6.385   5.496 -1.6049 -0.1815  0.1058
 5188SOL    HW217242   0.458   6.354   5.644 -0.8709  0.8078  0.3473
 5189SOL     OW17243   8.104   4.108   3.701 -0.0062 -0.4045  0.6611
 5189SOL    HW117244   8.029   4.147   3.657  0.1168  0.4270  1.1764
 5189SOL    HW217245   8.100   4.015   3.678 -0.3884 -0.1210 -0.4643
 5190SOL     OW17246   4.532   5.035   5.898  0.0914  0.4417  0.7747
 5190SOL    HW117247   4.474   5.111   5.901  0.4904  0.7197  1.6795
 5190SOL    HW217248   4.611   5.067   5.855 -1.0991 -0.4268 -2.2148
 5191SOL     OW17249   7.054   2.769   9.019  0.4093  0.1854  0.0215
 5191SOL    HW117250   7.047   2.674   9.012 -0.0964  0.2666 -0.6616
 5191SOL    HW217251   7.134   2.784   9.069  1.6125 -0.5534 -1.6432
 5192SOL     OW17252   6.393   4.125   3.007  0.0719 -0.3611 -0.5863
 5192SOL    HW117253   6.346   4.086   3.081  1.8820 -0.7786  0.3657
 5192SOL    HW217254   6.432   4.205   3.043 -1.8936  1.2926 -1.9962
 5193SOL     OW17255   1.749   5.636   7.375 -0.1100 -0.6087  0.3138
 5193SOL    HW117256   1.749   5.723   7.334 -0.6831  0.1826  1.9459
 5193SOL    HW217257   1.820   5.641   7.439  0.3798 -1.6397 -0.1331
 5194SOL     OW17258   1.526   1.944   7.268  0.2690  0.1867 -0.0158
 5194SOL    HW117259   1.572   1.901   7.340 -0.6578 -0.1156  0.4097
 5194SOL    HW217260   1.588   1.943   7.195  1.7546  1.7660  1.1908
 5195SOL     OW17261   9.236   0.417   7.437 -0.2894 -0.2048  0.7420
 5195SOL    HW117262   9.153   0.370   7.431  0.3560 -1.2285 -0.2929
 5195SOL    HW217263   9.290   0.379   7.368  1.1615  0.2102  1.6332
 5196SOL     OW17264   4.974   8.020   7.639 -0.3448  0.2594 -0.5166
 5196SOL    HW117265   4.987   7.941   7.692  1.3772 -0.3120 -1.7262
 5196SOL    HW217266   4.992   7.991   7.549 -0.4005  1.8651 -1.0498
 5197SOL     OW17267   4.611   6.023   9.269 -0.5486  0.0296 -0.4804
 5197SOL    HW117268   4.533   6.072   9.296 -0.6104 -0.2238 -0.1923
 5197SOL    HW217269   4.620   5.955   9.336 -1.5016 -1.4574 -1.8208
 5198SOL     OW17270   2.686   7.977   8.118 -0.0382  0.1769 -0.3232
 5198SOL    HW117271   2.719   7.935   8.197 -0.2042 -0.9649 -0.8534
 5198SOL    HW217272   2.601   8.013   8.144 -1.1345 -2.1344 -0.5422
 5199SOL     OW17273   2.596   6.448   3.641  0.1914 -0.2594 -0.0555
 5199SOL    HW117274   2.666   6.475   3.701  0.8719 -0.2983 -0.8240
 5199SOL    HW217275   2.631   6.467   3.554 -1.6226  1.8310 -0.3704
 5200SOL     OW17276   8.822   7.913   4.177  0.2354 -0.2012  0.2282
 5200SOL    HW117277   8.901   7.862   4.165  1.5063  1.5229  1.0377
 5200SOL    HW217278   8.846   8.002   4.151 -1.3854  0.3776  0.6280
 5201SOL     OW17279   3.763   1.303   3.259  0.1982 -0.0625  0.3813
 5201SOL    HW117280   3.710   1.324   3.336  0.3371 -2.2639  1.1159
 5201SOL    HW217281   3.826   1.374   3.254  1.6410 -0.9916  3.6818
 5202SOL     OW17282   2.893   4.836   4.537 -0.8070  0.0902 -0.0611
 5202SOL    HW117283   2.938   4.912   4.573 -0.4699  0.1770 -0.6489
 5202SOL    HW217284   2.846   4.869   4.461  1.1151 -0.6701 -1.6382
 5203SOL     OW17285   2.350   0.490   4.115 -0.4945  0.3974  0.0239
 5203SOL    HW117286   2.445   0.493   4.121 -0.4954  1.7533 -0.6577
 5203SOL    HW217287   2.332   0.436   4.038 -0.3027 -0.4504  0.5600
 5204SOL     OW17288   7.208   8.334   2.605 -0.1621 -0.6689  0.4320
 5204SOL    HW117289   7.268   8.323   2.679 -0.6409 -0.8551  0.7921
 5204SOL    HW217290   7.195   8.429   2.599 -1.3978 -0.7460  1.6106
 5205SOL     OW17291   2.099   8.347   0.288  0.2981 -0.2672  0.1992
 5205SOL    HW117292   2.028   8.351   0.223  2.5980 -1.8711 -2.5321
 5205SOL    HW217293   2.079   8.270   0.340  0.1303 -0.8808 -0.7475
 5206SOL     OW17294   6.294   6.136   5.493  0.0790  0.1878  0.3129
 5206SOL    HW117295   6.349   6.148   5.570  1.7086 -0.7357 -0.6681
 5206SOL    HW217296   6.204   6.144   5.525  0.7214 -0.5763  2.3664
 5207SOL     OW17297   1.159   0.237   5.886  0.8821  0.3347  0.2683
 5207SOL    HW117298   1.241   0.205   5.850  0.7600 -1.0573  1.2070
 5207SOL    HW217299   1.114   0.278   5.812  2.3391  0.9627 -0.2777
 5208SOL     OW17300   1.449   8.624   2.312 -0.0565  0.1621 -0.2393
 5208SOL    HW117301   1.503   8.691   2.354 -2.2366  1.2794  0.8873
 5208SOL    HW217302   1.410   8.575   2.385 -0.0656 -1.0431 -1.0334
 5209SOL     OW17303   0.821   6.189   8.170  0.5403  0.5821 -0.6296
 5209SOL    HW117304   0.727   6.170   8.162  0.3888  1.2945 -0.5764
 5209SOL    HW217305   0.853   6.127   8.235 -0.0197  0.7573 -0.1845
 5210SOL     OW17306   4.917   4.380   1.305  0.5620 -0.5280  0.2835
 5210SOL    HW117307   4.980   4.323   1.261  1.7821  1.7091 -0.9683
 5210SOL    HW217308   4.846   4.390   1.243 -0.2058 -1.5951  0.9723
 5211SOL     OW17309   5.971   7.893   1.627 -0.8445 -0.3331  0.2639
 5211SOL    HW117310   6.056   7.894   1.671 -0.7130  0.3053 -0.0101
 5211SOL    HW217311   5.961   7.981   1.591 -0.3555 -1.2244 -2.1259
 5212SOL     OW17312   1.147   6.870   8.718  0.1702  0.2481  0.0768
 5212SOL    HW117313   1.164   6.964   8.716  0.5406  0.1631 -1.4654
 5212SOL    HW217314   1.203   6.836   8.788  0.6446  1.0601  0.0849
 5213SOL     OW17315   7.767   5.141   6.754 -0.1615 -0.4345 -0.2873
 5213SOL    HW117316   7.822   5.198   6.700  0.4972  0.1100  0.9301
 5213SOL    HW217317   7.745   5.194   6.831 -0.8863 -1.2695  0.0914
 5214SOL     OW17318   9.128   8.613   2.709 -0.1834 -0.0912  0.1037
 5214SOL    HW117319   9.120   8.635   2.802  0.4487 -2.0791  0.6486
 5214SOL    HW217320   9.196   8.673   2.676  0.5040 -0.2432  1.2170
 5215SOL     OW17321   0.118   6.805   7.267 -0.0147 -0.2886  0.4894
 5215SOL    HW117322   0.164   6.835   7.345 -2.5824 -0.8398  2.2718
 5215SOL    HW217323   0.081   6.720   7.292 -2.6877  0.5039 -0.5652
 5216SOL     OW17324   3.803   7.862   1.705 -0.1641 -0.0935 -0.6402
 5216SOL    HW117325   3.726   7.909   1.738  1.6281  3.8720 -1.7642
 5216SOL    HW217326   3.856   7.845   1.783  0.2012  1.8639 -0.4282
 5217SOL     OW17327   7.662   4.869   0.303 -0.0505 -0.1371 -0.4152
 5217SOL    HW117328   7.747   4.842   0.336  0.1132 -0.6644 -1.2627
 5217SOL    HW217329   7.632   4.935   0.366  0.4909 -0.7382  0.4878
 5218SOL     OW17330   4.442   1.423   2.344  0.3614 -0.1087 -0.1742
 5218SOL    HW117331   4.368   1.482   2.358 -0.8804 -2.1118  1.8692
 5218SOL    HW217332   4.422   1.346   2.396  2.2747 -2.1191 -2.3211
 5219SOL     OW17333   0.592   9.128   3.354 -0.4456  0.8101  0.5211
 5219SOL    HW117334   0.625   9.180   3.280 -0.8383  1.5416  0.8580
 5219SOL    HW217335   0.501   9.156   3.365 -2.0682 -3.0141 -2.0324
 5220SOL     OW17336   0.049   0.097   6.424 -0.3723 -0.3630  0.2657
 5220SOL    HW117337  -0.014   0.041   6.468  0.3605 -1.7759 -0.4368
 5220SOL    HW217338   0.128   0.043   6.415 -0.0371  0.3615 -1.4729
 5221SOL     OW17339   4.795   2.205   3.024 -0.0601 -0.9353 -0.4279
 5221SOL    HW117340   4.833   2.118   3.041  1.1434 -0.3719 -0.2252
 5221SOL    HW217341   4.706   2.199   3.060  0.8131 -1.3239  1.7350
 5222SOL     OW17342   5.843   0.079   2.512  0.1556  0.5860 -0.3092
 5222SOL    HW117343   5.863  -0.012   2.488  1.4549  0.8374 -0.2240
 5222SOL    HW217344   5.777   0.071   2.581 -1.2822 -0.2295 -1.7438
 5223SOL     OW17345   4.064   0.501   6.130  0.3575 -0.1194 -0.1295
 5223SOL    HW117346   4.148   0.515   6.174  0.3835 -2.5244  0.6109
 5223SOL    HW217347   4.084   0.442   6.058 -0.3996  0.7744 -1.0932
 5224SOL     OW17348   1.657   1.013   0.781 -0.8737  0.1440 -0.0009
 5224SOL    HW117349   1.623   0.925   0.770  1.7819 -1.2512  2.2376
 5224SOL    HW217350   1.600   1.053   0.847  0.8369 -1.6852  2.6821
 5225SOL     OW17351   0.039   6.212   3.904  0.6246  0.1587  0.5713
 5225SOL    HW117352   0.068   6.232   3.814  0.4520  1.1501  0.7334
 5225SOL    HW217353   0.073   6.124   3.920  1.6106  0.4070 -0.0713
 5226SOL     OW17354   9.072   4.659   7.265  0.5019 -0.8441 -0.7349
 5226SOL    HW117355   9.046   4.586   7.322 -0.1237  0.3886  0.6096
 5226SOL    HW217356   9.105   4.617   7.186 -1.0252 -2.5726 -0.5041
 5227SOL     OW17357   7.909   6.112   3.825  0.6120 -0.0426  0.0520
 5227SOL    HW117358   7.981   6.058   3.858 -0.1089 -1.6714 -0.9813
 5227SOL    HW217359   7.893   6.079   3.737 -0.5667  1.1569 -0.2009
 5228SOL     OW17360   8.798   6.832   3.437  0.6389  0.0227 -0.3874
 5228SOL    HW117361   8.841   6.784   3.366  2.4669 -0.4781  1.0383
 5228SOL    HW217362   8.778   6.918   3.399  0.3065 -0.7175 -1.9374
 5229SOL     OW17363   8.466   7.785   2.327  0.4637  0.4075 -0.1549
 5229SOL    HW117364   8.472   7.862   2.385  0.6814 -0.1252  0.5368
 5229SOL    HW217365   8.526   7.722   2.365 -2.3062 -1.4325  1.3282
 5230SOL     OW17366   5.625   6.348   6.869  0.0796  0.4121  0.3946
 5230SOL    HW117367   5.672   6.411   6.815 -0.0316  0.3003  0.1672
 5230SOL    HW217368   5.622   6.268   6.816 -0.5160  0.4691  0.3409
 5231SOL     OW17369   4.502   0.430   5.968 -0.6292  0.3724  0.0244
 5231SOL    HW117370   4.589   0.470   5.979 -0.2859 -0.6104  0.9770
 5231SOL    HW217371   4.444   0.504   5.951  0.2326  1.1437  0.3758
 5232SOL     OW17372   7.356   7.089   5.955  0.3783  0.1265 -0.4619
 5232SOL    HW117373   7.315   7.125   5.877 -1.0876  0.0998  0.2790
 5232SOL    HW217374   7.381   7.000   5.930 -0.4011 -0.0037 -0.8086
 5233SOL     OW17375   4.829   3.424   4.001 -0.5031  0.3787  0.3308
 5233SOL    HW117376   4.891   3.390   3.936  0.9615 -1.7895  2.7701
 5233SOL    HW217377   4.858   3.514   4.017  0.9387 -0.0456  0.1496
 5234SOL     OW17378   5.033   0.707   0.781  0.0832 -0.1085  0.3796
 5234SOL    HW117379   4.962   0.691   0.718  0.0211  0.4621  0.3042
 5234SOL    HW217380   5.030   0.801   0.797  1.8250  0.1771 -0.8210
 5235SOL     OW17381   0.990   2.209   5.487  0.2032  0.0040  1.1858
 5235SOL    HW117382   0.924   2.151   5.451 -1.1196  0.8290  2.2476
 5235SOL    HW217383   1.069   2.155   5.492 -0.4345 -1.0475  0.1099
 5236SOL     OW17384   8.940   1.672   2.124  0.5687 -0.0126  0.4095
 5236SOL    HW117385   8.984   1.719   2.194  0.6737  0.1522  0.2331
 5236SOL    HW217386   8.916   1.588   2.163 -0.0309  0.3606  0.8569
 5237SOL     OW17387   6.988   0.607   3.212  0.8254  0.3351  0.2799
 5237SOL    HW117388   7.079   0.612   3.242  0.7482 -1.2900  0.8342
 5237SOL    HW217389   6.988   0.536   3.148  0.0016  0.5233  0.0699
 5238SOL     OW17390   5.066   8.376   3.427  0.3109 -0.3210  0.4582
 5238SOL    HW117391   5.128   8.303   3.426 -0.5288 -1.0236 -0.4926
 5238SOL    HW217392   5.109   8.445   3.376  0.4359 -0.6907  0.0693
 5239SOL     OW17393   2.394   4.956   1.461  0.6145 -0.0408  0.1265
 5239SOL    HW117394   2.352   5.015   1.399  0.8610 -0.0343 -0.0314
 5239SOL    HW217395   2.370   4.992   1.547  0.3962  0.0325  0.0367
 5240SOL     OW17396   7.890   3.632   5.550 -0.4728  0.2608 -0.2783
 5240SOL    HW117397   7.905   3.539   5.534  1.2089  0.2400  1.2281
 5240SOL    HW217398   7.816   3.635   5.611 -0.6377 -0.0856 -0.4635
 5241SOL     OW17399   4.299   5.549   4.741  0.0548  0.1036 -0.2022
 5241SOL    HW117400   4.253   5.471   4.710 -0.7567 -0.4541  2.2947
 5241SOL    HW217401   4.230   5.615   4.749  0.3531  0.4055 -0.0992
 5242SOL     OW17402   2.751   6.418   2.009  0.0338 -0.0746  0.9902
 5242SOL    HW117403   2.779   6.338   2.055 -1.9121 -0.9725  0.6725
 5242SOL    HW217404   2.656   6.413   2.010 -0.0627  1.1006 -1.0610
 5243SOL     OW17405   6.879   0.857   4.534  0.4397  0.0706 -0.3997
 5243SOL    HW117406   6.954   0.801   4.512 -0.7688 -1.4961 -0.6393
 5243SOL    HW217407   6.854   0.829   4.622 -1.3615 -1.1359 -1.2684
 5244SOL     OW17408   8.914   1.255   1.262  0.5294  0.0465 -0.1551
 5244SOL    HW117409   9.008   1.243   1.250  0.9368  1.0372  1.9361
 5244SOL    HW217410   8.878   1.166   1.263  1.5175 -0.3550 -0.3736
 5245SOL     OW17411   2.484   6.195   0.847  0.3788 -0.1719  0.5410
 5245SOL    HW117412   2.396   6.204   0.810  0.6304 -0.8636 -0.2356
 5245SOL    HW217413   2.523   6.282   0.837  0.1547 -0.1402 -0.0832
 5246SOL     OW17414   9.029   9.151   1.049  0.6111 -0.4788  0.4961
 5246SOL    HW117415   9.009   9.062   1.018  1.1325 -0.4935  0.1935
 5246SOL    HW217416   8.986   9.156   1.135 -1.5234 -0.1620 -0.5420
 5247SOL     OW17417   2.475   2.525   3.812  0.4598  0.2460  0.2750
 5247SOL    HW117418   2.526   2.444   3.808  1.3748  0.8692 -0.9908
 5247SOL    HW217419   2.537   2.591   3.844 -0.5658  0.2475  2.3510
 5248SOL     OW17420   7.722   6.778   5.400 -0.2910 -0.1518 -0.1971
 5248SOL    HW117421   7.714   6.863   5.358  0.2663 -0.2420 -0.4862
 5248SOL    HW217422   7.815   6.755   5.391 -0.4126 -0.7279 -0.0108
 5249SOL     OW17423   4.607   8.960   7.507  0.1819 -0.1766 -0.2002
 5249SOL    HW117424   4.581   8.872   7.533 -0.8791  0.0530 -0.4582
 5249SOL    HW217425   4.527   9.012   7.513  1.2012  1.2265  1.8326
 5250SOL     OW17426   6.493   7.253   8.251 -0.0371  0.7065  0.3720
 5250SOL    HW117427   6.543   7.212   8.322 -0.0857 -0.1830 -0.0958
 5250SOL    HW217428   6.555   7.257   8.178 -0.6036 -0.2963 -0.1730
 5251SOL     OW17429   6.606   9.127   2.959 -0.2848  0.0373 -0.1671
 5251SOL    HW117430   6.655   9.064   3.013 -1.0162 -1.0840 -0.7951
 5251SOL    HW217431   6.665   9.146   2.886  0.5345  1.2300  0.7955
 5252SOL     OW17432   1.324   7.889   6.236  0.0231 -0.9330 -0.3238
 5252SOL    HW117433   1.356   7.944   6.307  1.6480 -0.9719 -0.9935
 5252SOL    HW217434   1.389   7.818   6.230 -1.2727 -2.1224 -0.4079
 5253SOL     OW17435   1.385   0.963   3.851  0.0445  0.3587  0.0306
 5253SOL    HW117436   1.454   0.931   3.909  0.5797 -0.5969 -1.1246
 5253SOL    HW217437   1.304   0.933   3.893  0.5113 -2.2515 -0.8005
 5254SOL     OW17438   4.543   2.077   1.422  0.0227  0.1003  0.3985
 5254SOL    HW117439   4.618   2.136   1.420 -0.6712  0.9697 -0.3282
 5254SOL    HW217440   4.476   2.121   1.370 -0.7860 -0.9499  0.5260
 5255SOL     OW17441   0.563   6.174   2.107 -0.2674  0.3164  0.8997
 5255SOL    HW117442   0.600   6.261   2.094  0.8572 -0.1448  0.9416
 5255SOL    HW217443   0.638   6.119   2.132 -0.8547 -0.7994  0.2633
 5256SOL     OW17444   9.204   6.731   1.616  0.3663 -0.3046  0.5187
 5256SOL    HW117445   9.296   6.758   1.607  0.0910  0.4892  0.0696
 5256SOL    HW217446   9.198   6.700   1.707  1.1337 -0.5978  0.4791
 5257SOL     OW17447   6.997   1.515   6.796 -0.0156  0.3055 -0.0034
 5257SOL    HW117448   7.041   1.573   6.858  1.4010 -0.6694 -0.0703
 5257SOL    HW217449   7.008   1.558   6.711  0.2435  0.4007  0.0764
 5258SOL     OW17450   4.882   0.647   1.949  0.7553 -0.7075 -0.6918
 5258SOL    HW117451   4.816   0.669   1.884  0.6224 -1.5370 -0.8431
 5258SOL    HW217452   4.849   0.566   1.989  0.7568 -0.1240  0.5043
 5259SOL     OW17453   1.548   4.865   6.649 -0.1568  0.4401  0.2372
 5259SOL    HW117454   1.539   4.770   6.656 -1.0565  0.5405  0.5372
 5259SOL    HW217455   1.459   4.898   6.656  0.0316  1.2442 -0.9839
 5260SOL     OW17456   2.867   6.237   1.521  0.2841 -0.2295  0.6041
 5260SOL    HW117457   2.893   6.290   1.596  0.7322 -1.5185  1.3533
 5260SOL    HW217458   2.948   6.197   1.490  0.0892  0.1882 -0.5113
 5261SOL     OW17459   7.580   3.901   4.982 -0.1083  0.0177  0.4282
 5261SOL    HW117460   7.537   3.818   4.961  0.0586 -0.2363  1.0916
 5261SOL    HW217461   7.634   3.920   4.905  0.6514 -1.0099  0.7055
 5262SOL     OW17462   4.198   7.286   7.907 -0.0334  0.5799  0.3370
 5262SOL    HW117463   4.199   7.266   7.813  0.3502 -1.0016  0.6699
 5262SOL    HW217464   4.289   7.274   7.935 -0.5099 -0.9203  1.3079
 5263SOL     OW17465   8.676   2.530   1.265  1.2070  0.1692  0.2769
 5263SOL    HW117466   8.722   2.467   1.321 -0.6750 -0.7396  0.8122
 5263SOL    HW217467   8.682   2.493   1.177  0.0945 -0.7704  0.5922
 5264SOL     OW17468   3.914   7.023   3.385  0.2880 -0.2669 -0.2565
 5264SOL    HW117469   3.856   7.087   3.345  1.5074  0.3922 -0.9975
 5264SOL    HW217470   3.940   7.063   3.468 -0.4788 -0.6560  0.1742
 5265SOL     OW17471   5.385   2.538   2.619 -0.3671  0.0392  0.7565
 5265SOL    HW117472   5.315   2.473   2.612 -0.5139  0.3241 -0.5676
 5265SOL    HW217473   5.354   2.600   2.684 -1.8136  0.7143 -0.5543
 5266SOL     OW17474   0.446   7.973   2.432 -0.1295  0.0204  0.2182
 5266SOL    HW117475   0.403   8.048   2.391  0.4648  1.5670  2.3646
 5266SOL    HW217476   0.408   7.897   2.387 -2.1767  1.4988 -0.6558
 5267SOL     OW17477   5.516   8.737   0.175  0.2052 -0.0578 -0.3353
 5267SOL    HW117478   5.539   8.649   0.145  2.0234  0.1377  0.4327
 5267SOL    HW217479   5.566   8.749   0.256 -3.6653 -0.1267  2.2105
 5268SOL     OW17480   2.631   8.564   2.414  0.1919 -0.0154 -0.2351
 5268SOL    HW117481   2.642   8.469   2.407  0.6343  0.0433 -0.3095
 5268SOL    HW217482   2.536   8.577   2.404 -0.0108 -0.5492  0.8526
 5269SOL     OW17483   1.062   1.348   1.213 -0.5252  0.6343  0.2128
 5269SOL    HW117484   1.101   1.412   1.273  3.4044 -1.7231  0.4079
 5269SOL    HW217485   1.040   1.274   1.269 -0.9633  0.1337 -0.6204
 5270SOL     OW17486   4.677   8.503   3.349 -0.1647  0.1059 -0.1389
 5270SOL    HW117487   4.653   8.484   3.258  1.6515 -0.3740 -0.5542
 5270SOL    HW217488   4.747   8.568   3.342 -0.0225  0.0811  0.9148
 5271SOL     OW17489   7.746   3.593   0.033 -0.3099 -0.2333 -0.3926
 5271SOL    HW117490   7.710   3.530   0.096 -0.3645 -0.0950 -0.2855
 5271SOL    HW217491   7.833   3.560   0.013  0.1081  0.2838  0.5452
 5272SOL     OW17492   5.300   4.521   5.014 -0.1096 -0.5328 -0.1079
 5272SOL    HW117493   5.339   4.578   4.946 -1.4384 -0.3734 -0.7618
 5272SOL    HW217494   5.374   4.492   5.066  0.7005  1.1284 -0.2943
 5273SOL     OW17495   7.533   3.025   0.291 -0.2255 -0.1644  0.4979
 5273SOL    HW117496   7.476   3.063   0.224  1.3948  0.6972 -0.4212
 5273SOL    HW217497   7.622   3.044   0.261  0.5381 -0.1199  2.7018
 5274SOL     OW17498   1.609   6.348   6.095  0.5085  0.0962  0.2694
 5274SOL    HW117499   1.548   6.277   6.117  1.2534 -0.4023  0.7499
 5274SOL    HW217500   1.569   6.427   6.131 -0.0425 -0.1675  0.2343
 5275SOL     OW17501   3.850   6.868   0.200 -0.4083 -0.2719 -0.0800
 5275SOL    HW117502   3.819   6.863   0.109 -0.2682 -0.6521 -0.1050
 5275SOL    HW217503   3.880   6.780   0.220  1.5749  0.2973 -0.3965
 5276SOL     OW17504   4.888   6.119   7.050 -0.0733 -0.0836  0.5616
 5276SOL    HW117505   4.827   6.111   6.978 -0.1278 -0.3473  0.6344
 5276SOL    HW217506   4.867   6.202   7.092  0.2686  0.2922 -0.0104
 5277SOL     OW17507   7.961   8.340   3.897 -0.3681  0.2526 -0.0717
 5277SOL    HW117508   7.873   8.327   3.932 -0.1671  0.6561  0.5795
 5277SOL    HW217509   7.953   8.417   3.840 -1.1414 -1.5399 -2.4997
 5278SOL     OW17510   1.781   0.019   1.830  0.1585  0.6786  0.2713
 5278SOL    HW117511   1.713   0.082   1.806 -0.5040  1.0297  2.8835
 5278SOL    HW217512   1.861   0.072   1.835  0.2874  0.6202 -0.9442
 5279SOL     OW17513   4.468   6.052   5.604 -0.5769 -0.2957  0.4747
 5279SOL    HW117514   4.549   6.093   5.634 -0.1445 -1.8506  1.4991
 5279SOL    HW217515   4.491   6.011   5.521 -0.6367  0.2872  0.1671
 5280SOL     OW17516   2.480   8.642   7.038  0.1618  0.1093  0.2602
 5280SOL    HW117517   2.397   8.605   7.007  0.3013 -0.0278  0.0428
 5280SOL    HW217518   2.531   8.656   6.958  0.0327  0.9679  0.3308
 5281SOL     OW17519   0.345   8.810   2.045  0.4050 -0.0438  0.2692
 5281SOL    HW117520   0.252   8.797   2.063  0.1709 -0.8582 -1.4764
 5281SOL    HW217521   0.374   8.870   2.114 -1.4075  0.2274  0.8241
 5282SOL     OW17522   9.262   7.245   9.110 -0.4572  0.4339 -0.2157
 5282SOL    HW117523   9.275   7.332   9.147 -0.9455  0.1815  0.5544
 5282SOL    HW217524   9.350   7.207   9.109 -0.2028  1.0384 -0.8172
 5283SOL     OW17525   6.436   2.585   7.692  0.1702  0.0861  0.2637
 5283SOL    HW117526   6.470   2.674   7.704  0.2978 -0.2236  2.2384
 5283SOL    HW217527   6.481   2.533   7.758  0.2800 -1.5148 -1.0540
 5284SOL     OW17528   4.376   0.457   3.641 -0.0059 -0.0053  0.1241
 5284SOL    HW117529   4.426   0.418   3.712  1.5440  1.4270 -0.1441
 5284SOL    HW217530   4.385   0.395   3.568  0.8004 -0.0855  0.2943
 5285SOL     OW17531   3.122   5.541   4.193 -0.4850  0.2286 -0.2637
 5285SOL    HW117532   3.054   5.485   4.232  0.8075 -0.6924  0.6972
 5285SOL    HW217533   3.084   5.629   4.197 -1.1816 -0.1138  1.3339
 5286SOL     OW17534   6.734   1.609   2.770 -0.3628 -0.6485 -0.0665
 5286SOL    HW117535   6.639   1.619   2.763 -0.2612  0.3616 -0.1759
 5286SOL    HW217536   6.747   1.548   2.843 -1.0849 -0.1458  0.4902
 5287SOL     OW17537   3.188   8.676   2.627 -0.1690 -0.7451 -0.4675
 5287SOL    HW117538   3.159   8.724   2.550  0.9647  0.1795 -0.3394
 5287SOL    HW217539   3.234   8.600   2.592 -1.8146 -1.6522 -0.6737
 5288SOL     OW17540   2.527   3.891   0.619  0.1016 -0.2257  0.4291
 5288SOL    HW117541   2.473   3.863   0.693  0.4017 -1.0709  0.3363
 5288SOL    HW217542   2.468   3.887   0.544  0.0971 -0.4599  0.4442
 5289SOL     OW17543   5.553   6.180   2.836 -0.2141 -0.1339 -0.8381
 5289SOL    HW117544   5.459   6.182   2.853 -0.0644 -3.4951  0.9139
 5289SOL    HW217545   5.590   6.243   2.898 -1.1492 -0.2373 -0.1538
 5290SOL     OW17546   0.825   0.171   7.507  0.3112 -0.5528  0.3835
 5290SOL    HW117547   0.799   0.114   7.580  1.6518 -3.5755 -1.4021
 5290SOL    HW217548   0.909   0.208   7.534 -0.6609  0.8323  1.6358
 5291SOL     OW17549   8.958   4.964   8.014  0.3978 -0.4807 -0.3337
 5291SOL    HW117550   8.939   4.991   8.104 -0.2676  0.5235 -0.7562
 5291SOL    HW217551   8.896   5.015   7.961  0.3548 -1.5342 -1.3056
 5292SOL     OW17552   1.269   4.400   0.890  0.5460 -0.2867  0.4598
 5292SOL    HW117553   1.280   4.445   0.974  2.6973  1.2417 -0.6032
 5292SOL    HW217554   1.174   4.391   0.880  0.1018  3.0039  1.2261
 5293SOL     OW17555   0.177   9.064   1.929 -0.2331 -0.1429 -0.1476
 5293SOL    HW117556   0.167   9.085   2.022  0.7834  0.1471 -0.1000
 5293SOL    HW217557   0.270   9.044   1.919 -0.2010  0.5210 -1.2486
 5294SOL     OW17558   5.848   6.055   1.521 -0.7360  0.4425  0.4080
 5294SOL    HW117559   5.813   6.126   1.576 -2.0069 -0.9959  1.4995
 5294SOL    HW217560   5.770   6.017   1.479 -0.0773 -0.4013 -0.0472
 5295SOL     OW17561   3.536   6.191   5.142 -0.5543 -0.3655 -0.4883
 5295SOL    HW117562   3.522   6.225   5.054 -4.2668  0.5145  0.3639
 5295SOL    HW217563   3.467   6.125   5.154 -0.1553 -0.4241  1.7920
 5296SOL     OW17564   9.233   0.274   0.622 -0.2079 -0.0963 -0.2226
 5296SOL    HW117565   9.282   0.212   0.676 -0.2859  1.8974  2.2185
 5296SOL    HW217566   9.158   0.299   0.676 -0.3178  1.9217 -1.2554
 5297SOL     OW17567   1.200   0.518   6.342 -0.3961  0.3123  0.4219
 5297SOL    HW117568   1.158   0.483   6.421  1.6377 -1.8753  0.5724
 5297SOL    HW217569   1.293   0.519   6.362 -0.1029  2.7891 -0.8194
 5298SOL     OW17570   7.248   2.122   4.468  0.4602 -0.0929  0.1240
 5298SOL    HW117571   7.182   2.053   4.454 -0.3371  0.4454  1.2023
 5298SOL    HW217572   7.218   2.168   4.546  1.5246  0.8689 -0.0330
 5299SOL     OW17573   3.158   6.658   8.587  0.0435 -0.6038 -0.4079
 5299SOL    HW117574   3.147   6.573   8.629 -0.6035 -0.2542  0.1483
 5299SOL    HW217575   3.082   6.667   8.530  0.1309 -0.4121 -0.4952
 5300SOL     OW17576   2.200   1.763   1.858 -0.6186  0.5899 -0.0801
 5300SOL    HW117577   2.157   1.848   1.856 -1.2011  0.2907 -0.3319
 5300SOL    HW217578   2.293   1.783   1.870 -0.7987  1.2448  0.2237
 5301SOL     OW17579   0.093   4.285   8.644  0.2278 -0.4905 -0.3570
 5301SOL    HW117580   0.189   4.281   8.651  0.1746 -0.1051  0.5770
 5301SOL    HW217581   0.062   4.222   8.709 -0.1702 -0.3255 -0.3888
 5302SOL     OW17582   2.083   2.152   5.892 -0.1895 -0.6103  0.4450
 5302SOL    HW117583   2.136   2.111   5.824 -1.1271 -0.7904 -0.1911
 5302SOL    HW217584   2.045   2.079   5.941 -1.4217 -0.5076 -0.3426
 5303SOL     OW17585   2.880   5.098   6.030  0.0688 -0.1829  1.0599
 5303SOL    HW117586   2.958   5.142   6.065  0.7031  0.1634 -0.7689
 5303SOL    HW217587   2.807   5.149   6.065  0.6745  0.0731  2.0023
 5304SOL     OW17588   0.084   0.752   8.873  0.1734 -0.1414  0.0109
 5304SOL    HW117589   0.127   0.668   8.888  0.4955  0.0785  0.3527
 5304SOL    HW217590   0.085   0.794   8.959 -0.2904  0.0701 -0.0853
 5305SOL     OW17591   2.375   4.426   7.056 -0.0073 -0.2029 -0.5650
 5305SOL    HW117592   2.401   4.518   7.067 -0.2416 -0.2082  0.0502
 5305SOL    HW217593   2.281   4.429   7.041 -0.1073 -0.3781  0.0091
 5306SOL     OW17594   7.534   8.871   8.221  0.3945 -0.1050 -0.3838
 5306SOL    HW117595   7.622   8.899   8.199  0.6987  1.5613  2.7372
 5306SOL    HW217596   7.484   8.952   8.229 -1.0462 -0.9566 -0.5443
 5307SOL     OW17597   5.355   8.959   2.996  0.0201 -0.7121  0.0768
 5307SOL    HW117598   5.394   8.872   3.002 -1.4327 -1.3363  0.7041
 5307SOL    HW217599   5.427   9.019   3.017  1.2568 -1.6916 -1.2079
 5308SOL     OW17600   2.914   2.920   6.949  0.0330 -0.1395 -0.2161
 5308SOL    HW117601   2.818   2.921   6.956  0.0895 -0.7752  0.6342
 5308SOL    HW217602   2.945   2.913   7.039  0.8970  0.6071 -0.4452
 5309SOL     OW17603   4.060   7.946   2.801  0.3050  0.0096  0.5020
 5309SOL    HW117604   4.155   7.934   2.801  0.1053 -1.6848  1.4541
 5309SOL    HW217605   4.033   7.923   2.712  0.6273 -0.9723  0.6525
 5310SOL     OW17606   7.822   7.445   2.242 -0.6191 -0.4401  0.8340
 5310SOL    HW117607   7.887   7.475   2.304  0.6108 -0.5742 -0.3648
 5310SOL    HW217608   7.846   7.486   2.159 -2.6733  0.3455  0.5787
 5311SOL     OW17609   4.295   7.748   4.360  0.2484  0.3933 -0.5319
 5311SOL    HW117610   4.319   7.837   4.383 -2.8064  1.2854 -0.5201
 5311SOL    HW217611   4.213   7.732   4.408  0.6424 -2.3530 -0.6685
 5312SOL     OW17612   3.300   0.570   3.682 -0.4043 -0.4183 -0.3948
 5312SOL    HW117613   3.281   0.653   3.638 -0.1587  0.4093  1.0234
 5312SOL    HW217614   3.391   0.580   3.713  0.9324 -2.6567 -3.3760
 5313SOL     OW17615   2.409   6.630   4.578  0.1166 -0.2703  0.1462
 5313SOL    HW117616   2.504   6.628   4.564  0.1670 -0.4830  0.5241
 5313SOL    HW217617   2.397   6.593   4.665 -0.5580 -3.4049 -1.2258
 5314SOL     OW17618   6.849   4.590   0.199 -0.0230  0.0771  0.3787
 5314SOL    HW117619   6.860   4.583   0.105  0.5631  0.1282  0.4444
 5314SOL    HW217620   6.762   4.628   0.210 -0.2256 -0.2353 -0.1321
 5315SOL     OW17621   4.698   3.918   4.421 -0.0090 -0.7600  0.5633
 5315SOL    HW117622   4.757   3.861   4.469 -1.0794 -1.3057  1.2350
 5315SOL    HW217623   4.738   4.005   4.426  0.7214 -1.1283  1.0231
 5316SOL     OW17624   7.666   3.131   4.068 -0.2267 -0.6498 -0.4804
 5316SOL    HW117625   7.684   3.221   4.040 -0.7237 -0.3790  0.0838
 5316SOL    HW217626   7.628   3.090   3.990 -1.3606  0.0287 -0.2921
 5317SOL     OW17627   8.096   6.747   7.830  0.3397  0.0560  0.5370
 5317SOL    HW117628   8.073   6.797   7.908  0.1821  1.5951 -0.4925
 5317SOL    HW217629   8.026   6.765   7.767  2.3876  1.8203 -1.2963
 5318SOL     OW17630   8.229   6.701   2.887  0.0329  0.2122 -0.1430
 5318SOL    HW117631   8.249   6.763   2.957  0.7792 -1.2945  1.0244
 5318SOL    HW217632   8.185   6.628   2.931 -0.3295 -0.3418 -1.3925
 5319SOL     OW17633   1.964   8.122   7.964  0.0979 -0.0804  0.1087
 5319SOL    HW117634   1.904   8.050   7.945  1.9832 -1.1932 -1.9749
 5319SOL    HW217635   2.021   8.088   8.033 -1.0068  0.6170  1.3891
 5320SOL     OW17636   4.462   4.046   7.269 -0.0935 -0.0373 -0.2702
 5320SOL    HW117637   4.376   4.012   7.244 -1.5797  1.5964  2.3762
 5320SOL    HW217638   4.444   4.133   7.304  2.8358  0.9060 -0.9912
 5321SOL     OW17639   7.728   0.974   8.351  0.5727  0.0256  0.2262
 5321SOL    HW117640   7.809   0.948   8.308  0.2485 -1.7623  0.6632
 5321SOL    HW217641   7.755   0.996   8.440  0.4906 -1.2454  0.5739
 5322SOL     OW17642   4.738   1.932   5.763  0.3520  0.4089  0.2205
 5322SOL    HW117643   4.742   1.861   5.827 -0.7489  0.0382 -0.1189
 5322SOL    HW217644   4.823   1.976   5.771  1.2495 -1.2610  0.0517
 5323SOL     OW17645   4.603   9.183   2.764  0.8168  0.7566  0.1881
 5323SOL    HW117646   4.511   9.206   2.768  1.0430  1.9537 -1.0737
 5323SOL    HW217647   4.643   9.229   2.838  0.1692 -1.0444  1.7054
 5324SOL     OW17648   4.707   1.361   0.493 -0.8969  0.4791 -0.4965
 5324SOL    HW117649   4.705   1.437   0.435 -0.2545 -0.2947 -1.5367
 5324SOL    HW217650   4.616   1.352   0.524 -0.9284  1.7826 -0.2052
 5325SOL     OW17651   8.051   0.802   2.683 -0.1768  0.4788 -0.0167
 5325SOL    HW117652   8.002   0.847   2.751 -1.6136  0.0982 -0.7856
 5325SOL    HW217653   8.005   0.718   2.671  0.6825  0.0916 -0.7061
 5326SOL     OW17654   2.565   1.317   7.505 -0.2087 -0.0531 -0.3732
 5326SOL    HW117655   2.500   1.361   7.559  0.0444  1.3700 -1.2123
 5326SOL    HW217656   2.643   1.312   7.561 -0.4803 -0.1328 -0.0040
 5327SOL     OW17657   1.062   7.087   9.172 -0.6058 -0.1230 -0.6450
 5327SOL    HW117658   1.141   7.086   9.117 -0.6251 -1.8571 -0.6594
 5327SOL    HW217659   0.997   7.039   9.121 -0.5902 -1.8557  0.9139
 5328SOL     OW17660   3.192   3.626   8.726  0.2659  0.4283  0.1321
 5328SOL    HW117661   3.188   3.544   8.776 -1.1304  0.6096  0.3282
 5328SOL    HW217662   3.155   3.604   8.641 -3.1274  1.6042  1.2344
 5329SOL     OW17663   3.574   7.589   4.042 -0.1269  0.4480 -0.0230
 5329SOL    HW117664   3.510   7.629   3.984  0.3366  1.3193  0.0583
 5329SOL    HW217665   3.659   7.612   4.004  0.1580  0.0732  0.3792
 5330SOL     OW17666   5.321   4.222   7.957 -0.5122  0.2660 -0.0162
 5330SOL    HW117667   5.353   4.137   7.927 -1.0516  0.3654 -0.8658
 5330SOL    HW217668   5.347   4.283   7.888 -2.0603  0.4387 -0.4682
 5331SOL     OW17669   7.170   6.325   1.136 -0.0342  0.2986  0.0275
 5331SOL    HW117670   7.077   6.345   1.139 -0.1992 -0.3467 -0.9221
 5331SOL    HW217671   7.191   6.299   1.226 -0.4970  1.6028  0.5380
 5332SOL     OW17672   4.588   9.274   5.693  0.1507  0.0177 -0.0121
 5332SOL    HW117673   4.675   9.270   5.732 -0.4896 -0.1429  1.4391
 5332SOL    HW217674   4.571   9.368   5.682  0.9365  0.0124 -1.3051
 5333SOL     OW17675   6.908   2.604   5.943  0.4571  0.0712 -0.0348
 5333SOL    HW117676   6.984   2.642   5.987  0.0180  0.4483  0.3953
 5333SOL    HW217677   6.942   2.524   5.902  1.3760  0.9192 -0.9446
 5334SOL     OW17678   8.552   2.917   9.115 -0.1017 -0.0491 -0.3714
 5334SOL    HW117679   8.533   2.858   9.043 -1.6305  0.5831 -0.5029
 5334SOL    HW217680   8.579   2.999   9.073 -0.4125  0.1308 -0.2245
 5335SOL     OW17681   5.434   8.574   1.908 -0.8071  0.0809  0.3703
 5335SOL    HW117682   5.404   8.595   1.820 -0.8883  0.2302  0.4350
 5335SOL    HW217683   5.355   8.569   1.961 -0.7958 -0.4466  0.3427
 5336SOL     OW17684   1.710   1.027   6.661  0.0270  0.9487  0.1382
 5336SOL    HW117685   1.743   0.953   6.712  1.7013  0.9007 -0.9738
 5336SOL    HW217686   1.696   0.992   6.573  1.9025  2.1912 -0.6854
 5337SOL     OW17687   5.130   1.168   2.681  0.2733 -0.0290 -0.0336
 5337SOL    HW117688   5.056   1.204   2.729 -0.0270 -1.1021  0.3215
 5337SOL    HW217689   5.205   1.181   2.739 -0.1122 -1.4604  0.8059
 5338SOL     OW17690   1.180   8.100   6.570  0.3216 -0.3274  0.5333
 5338SOL    HW117691   1.162   8.070   6.659 -0.6186 -0.0349  0.4487
 5338SOL    HW217692   1.106   8.068   6.519  0.6744 -0.1780 -0.0660
 5339SOL     OW17693   0.512   6.628   3.843  0.1766  0.0282  0.7069
 5339SOL    HW117694   0.430   6.617   3.795  0.5377 -0.2049  0.1413
 5339SOL    HW217695   0.559   6.697   3.797  0.5870 -0.2952  0.6331
 5340SOL     OW17696   8.622   4.869   0.608 -0.0865 -0.3365  0.1236
 5340SOL    HW117697   8.652   4.899   0.522  0.0585 -0.6173  0.0760
 5340SOL    HW217698   8.605   4.776   0.596 -1.2137 -0.1386  0.0739
 5341SOL     OW17699   1.027   7.442   3.309  0.4298  0.2131  0.0455
 5341SOL    HW117700   1.062   7.381   3.374 -2.1763 -1.1028  0.2667
 5341SOL    HW217701   0.932   7.429   3.313  0.1197  1.4191 -2.7567
 5342SOL     OW17702   0.653   4.367   5.866 -0.3845  0.4040  0.8429
 5342SOL    HW117703   0.666   4.459   5.890  0.7257  0.5099 -0.0765
 5342SOL    HW217704   0.673   4.365   5.772 -1.1261 -0.6443  0.7104
 5343SOL     OW17705   5.021   8.759   7.706  0.0057 -0.4888 -0.0535
 5343SOL    HW117706   5.092   8.720   7.655 -0.1637  1.1640 -1.6244
 5343SOL    HW217707   4.943   8.711   7.680  0.4596 -1.9877  1.3099
 5344SOL     OW17708   3.223   3.319   8.254 -0.0301  0.2779  0.3961
 5344SOL    HW117709   3.317   3.301   8.254 -0.1849 -0.5605  1.4423
 5344SOL    HW217710   3.199   3.320   8.161  1.0695  0.8133  0.1146
 5345SOL     OW17711   1.110   4.269   3.517  0.3303 -0.2681 -0.3139
 5345SOL    HW117712   1.017   4.284   3.504  0.0096  0.0295  2.0292
 5345SOL    HW217713   1.148   4.356   3.522  0.2646 -0.3357  1.6489
 5346SOL     OW17714   7.228   0.108   5.686  0.2839  0.0283 -0.3194
 5346SOL    HW117715   7.191   0.196   5.674  0.2821 -0.5751 -5.8512
 5346SOL    HW217716   7.153   0.053   5.706 -0.2350  0.6309 -0.5783
 5347SOL     OW17717   6.796   3.761   1.973 -0.2762 -0.6079 -0.6914
 5347SOL    HW117718   6.825   3.816   2.046 -1.2187  0.3553 -1.0280
 5347SOL    HW217719   6.876   3.736   1.928  0.1093  1.2949 -1.0917
 5348SOL     OW17720   1.788   2.519   4.318  0.3261  0.1225  0.0271
 5348SOL    HW117721   1.796   2.428   4.291 -0.3845  0.4959 -1.5267
 5348SOL    HW217722   1.879   2.552   4.320  0.6534 -0.8118  1.3941
 5349SOL     OW17723   0.162   2.033   4.253  0.0462  0.1115 -0.5928
 5349SOL    HW117724   0.069   2.011   4.254 -0.0572  0.4271 -1.7631
 5349SOL    HW217725   0.168   2.113   4.306 -0.4702  0.5068 -1.1168
 5350SOL     OW17726   5.218   6.034   0.053  0.9585 -0.2403  0.1776
 5350SOL    HW117727   5.248   5.989   0.132 -0.9312  0.1276  1.1449
 5350SOL    HW217728   5.167   5.969   0.006 -0.1270  0.2840  0.5985
 5351SOL     OW17729   3.327   7.936   8.190 -0.0254  0.2054 -0.5530
 5351SOL    HW117730   3.391   7.865   8.198  0.4048  0.8723  2.3673
 5351SOL    HW217731   3.377   8.009   8.154  0.1225 -0.1800 -1.1478
 5352SOL     OW17732   7.331   0.144   2.792 -0.0142  0.2673 -0.1856
 5352SOL    HW117733   7.306   0.059   2.829 -0.9148  1.5477  2.2385
 5352SOL    HW217734   7.426   0.140   2.783  0.1798 -0.2049  1.9560
 5353SOL     OW17735   9.040   4.261   5.185 -0.0722  0.3809 -0.1276
 5353SOL    HW117736   9.107   4.200   5.215  0.7772  1.2374 -0.2563
 5353SOL    HW217737   8.965   4.245   5.242  0.3647 -0.3237  0.2542
 5354SOL     OW17738   3.255   4.391   8.460  0.2464  0.3151  0.4396
 5354SOL    HW117739   3.267   4.297   8.473 -0.9923  0.1858  0.6640
 5354SOL    HW217740   3.161   4.402   8.451  0.3686  1.5643  0.6408
 5355SOL     OW17741   2.819   1.430   1.810 -0.1876 -0.7113 -0.1066
 5355SOL    HW117742   2.756   1.429   1.738 -0.6538  0.8096  0.2553
 5355SOL    HW217743   2.870   1.510   1.796 -0.0872 -0.5611  1.0815
 5356SOL     OW17744   3.988   1.555   3.613  0.0350  0.3190 -0.5030
 5356SOL    HW117745   4.050   1.616   3.573  1.8768 -0.0398  1.7335
 5356SOL    HW217746   3.903   1.599   3.605  0.9985  2.1464 -0.9398
 5357SOL     OW17747   1.579   0.209   1.780  0.4201  0.2771  0.1539
 5357SOL    HW117748   1.513   0.185   1.715 -0.6860  1.4573  0.8158
 5357SOL    HW217749   1.544   0.288   1.822  1.2629 -0.2709  1.9586
 5358SOL     OW17750   2.149   7.500   3.550  0.2114  0.5271 -0.7958
 5358SOL    HW117751   2.184   7.450   3.477 -0.9145  1.1124 -1.7562
 5358SOL    HW217752   2.054   7.493   3.541  0.0333  2.4216 -0.6769
 5359SOL     OW17753   1.646   5.134   1.467  0.1156 -0.5847  0.0699
 5359SOL    HW117754   1.644   5.124   1.562  0.3529  1.8587  0.3653
 5359SOL    HW217755   1.554   5.135   1.441  0.0490 -1.2205  0.2740
 5360SOL     OW17756   1.571   6.885   9.119  0.3028  0.1512 -0.4200
 5360SOL    HW117757   1.518   6.812   9.151 -0.0503  0.2517 -0.7760
 5360SOL    HW217758   1.534   6.962   9.162  1.4434 -0.0104  0.9123
 5361SOL     OW17759   7.750   6.420   4.936  0.1671 -0.7021 -0.6267
 5361SOL    HW117760   7.655   6.419   4.948  0.2958  0.2362  0.5328
 5361SOL    HW217761   7.782   6.483   5.000  1.4890 -0.3112 -1.6405
 5362SOL     OW17762   6.026   2.669   2.663 -0.7265 -0.3398  0.0561
 5362SOL    HW117763   6.009   2.756   2.698  0.5639 -0.1429  0.1917
 5362SOL    HW217764   6.043   2.683   2.570  1.1700 -0.2408  0.4063
 5363SOL     OW17765   6.281   0.085   1.051 -0.1025  0.6291  0.3637
 5363SOL    HW117766   6.240   0.074   0.965  0.0131  3.0161 -0.0267
 5363SOL    HW217767   6.372   0.059   1.039  0.0712  1.5937 -0.4031
 5364SOL     OW17768   2.377   4.552   0.472 -0.6357 -0.2184 -0.0826
 5364SOL    HW117769   2.350   4.620   0.534 -1.5048  0.1494 -0.8562
 5364SOL    HW217770   2.465   4.577   0.445 -0.9650  0.6343 -0.3956
 5365SOL     OW17771   4.500   1.670   1.471 -0.3453  0.3149  0.4008
 5365SOL    HW117772   4.490   1.755   1.514  2.9021  1.1219 -0.2509
 5365SOL    HW217773   4.534   1.612   1.539  1.2202  0.6047 -0.1207
 5366SOL     OW17774   1.919   0.173   2.751 -0.6160 -0.1313  0.1818
 5366SOL    HW117775   1.944   0.129   2.670 -3.5424  0.1215 -0.9049
 5366SOL    HW217776   1.974   0.252   2.753 -0.3822 -0.2318 -1.4481
 5367SOL     OW17777   5.623   3.271   7.156  0.0427  0.6112 -0.1046
 5367SOL    HW117778   5.637   3.179   7.178 -1.4338  0.3037 -0.3682
 5367SOL    HW217779   5.686   3.318   7.209  0.3181 -0.5114  0.5884
 5368SOL     OW17780   6.455   6.150   1.388 -0.0614  0.0691 -0.3143
 5368SOL    HW117781   6.378   6.098   1.364 -0.3511 -0.1826  1.1168
 5368SOL    HW217782   6.501   6.096   1.453  1.3726  0.1866 -1.2116
 5369SOL     OW17783   0.763   7.118   7.045  0.6514 -0.6493 -0.2854
 5369SOL    HW117784   0.767   7.068   6.963  5.6562 -0.7380 -0.1141
 5369SOL    HW217785   0.746   7.052   7.112 -1.7411 -0.8007 -0.9682
 5370SOL     OW17786   6.997   1.276   8.227  0.2197 -0.0223 -0.2862
 5370SOL    HW117787   6.936   1.206   8.249  1.9295 -2.0940 -1.8221
 5370SOL    HW217788   6.942   1.343   8.185 -1.0519 -1.8025 -1.5917
 5371SOL     OW17789   9.236   7.982   4.406  0.1658 -0.1529  0.0870
 5371SOL    HW117790   9.151   8.021   4.386 -0.0065 -0.8202 -0.5051
 5371SOL    HW217791   9.299   8.038   4.360 -0.1683 -1.1979 -1.6791
 5372SOL     OW17792   8.466   3.749   9.249  0.0187  0.5779 -0.6250
 5372SOL    HW117793   8.384   3.736   9.296  0.1168 -0.4995 -0.7292
 5372SOL    HW217794   8.491   3.661   9.220  1.1969  0.8982 -0.6149
 5373SOL     OW17795   8.751   8.444   8.038  0.3983  0.0108 -0.1363
 5373SOL    HW117796   8.666   8.405   8.060  0.5996 -0.0939  0.4603
 5373SOL    HW217797   8.784   8.478   8.121 -0.0379  2.0071 -0.7484
 5374SOL     OW17798   8.981   8.823   8.345  0.3510  0.0037  0.2258
 5374SOL    HW117799   8.900   8.847   8.389  0.1867  0.0110 -0.0810
 5374SOL    HW217800   9.030   8.905   8.337 -0.4350  0.3352 -1.2850
 5375SOL     OW17801   9.026   4.497   6.439 -0.1685 -0.2035 -0.2290
 5375SOL    HW117802   8.950   4.556   6.439  0.8244  1.1046 -1.0823
 5375SOL    HW217803   8.989   4.410   6.455 -1.7714  0.5020  0.0130
 5376SOL     OW17804   0.927   8.422   6.319  0.2691 -0.3932  0.1400
 5376SOL    HW117805   0.867   8.375   6.378 -0.0739  0.1662  0.2362
 5376SOL    HW217806   0.988   8.466   6.378  0.9497 -1.1888  0.0371
 5377SOL     OW17807   6.893   7.987   5.054  0.3200 -0.1994 -1.0767
 5377SOL    HW117808   6.983   8.017   5.039  0.9262 -1.0013  0.8519
 5377SOL    HW217809   6.902   7.896   5.081 -1.0001 -0.0208  0.0231
 5378SOL     OW17810   5.200   4.817   7.472 -0.2730 -0.3829 -0.6072
 5378SOL    HW117811   5.139   4.877   7.515 -1.5080 -0.0333 -2.7680
 5378SOL    HW217812   5.144   4.749   7.433  0.9552 -1.7705 -0.0058
 5379SOL     OW17813   5.848   8.827   1.544 -0.4962 -0.1561 -0.5677
 5379SOL    HW117814   5.923   8.882   1.568 -0.7079  0.0337 -0.3431
 5379SOL    HW217815   5.837   8.842   1.450  0.0339 -0.5346 -0.6932
 5380SOL     OW17816   2.665   3.609   8.379  0.4582  0.3973  0.4685
 5380SOL    HW117817   2.701   3.645   8.459 -0.8825  2.5653  0.1324
 5380SOL    HW217818   2.660   3.683   8.319 -0.9599 -0.6415 -0.7470
 5381SOL     OW17819   3.809   5.447   5.282 -0.3797 -0.0212 -0.5505
 5381SOL    HW117820   3.782   5.538   5.272  0.3821  0.3454  0.6640
 5381SOL    HW217821   3.744   5.409   5.341 -1.1179 -0.4706 -1.6334
 5382SOL     OW17822   2.447   2.212   2.431 -0.0698  0.1205 -0.1165
 5382SOL    HW117823   2.373   2.273   2.427 -1.0495 -1.0728 -0.4266
 5382SOL    HW217824   2.524   2.268   2.434 -0.9719  1.3796 -0.1780
 5383SOL     OW17825   8.022   5.279   5.729 -0.0174  0.2836  0.2800
 5383SOL    HW117826   7.941   5.286   5.779 -0.0448  2.0300 -0.0035
 5383SOL    HW217827   7.998   5.309   5.641  0.9109  0.6686  0.1619
 5384SOL     OW17828   7.893   4.788   5.958 -0.4659 -0.2181 -0.0076
 5384SOL    HW117829   7.978   4.803   5.917  0.3587  0.0492  1.7175
 5384SOL    HW217830   7.833   4.845   5.912  0.0179 -1.3547 -2.1144
 5385SOL     OW17831   0.485   4.334   2.294 -0.2305 -0.4486 -0.1659
 5385SOL    HW117832   0.401   4.380   2.287 -0.8206 -1.2948  1.3507
 5385SOL    HW217833   0.470   4.251   2.248  0.3541  0.1629 -1.5022
 5386SOL     OW17834   4.442   1.856   6.065 -0.0295  0.2829  0.2286
 5386SOL    HW117835   4.374   1.810   6.114 -0.2922 -0.4972 -0.8631
 5386SOL    HW217836   4.478   1.919   6.128  0.2537 -1.3314  1.7076
 5387SOL     OW17837   7.323   5.897   5.521  0.0855 -0.1809 -0.0189
 5387SOL    HW117838   7.264   5.899   5.445 -0.9806 -2.7329  0.6847
 5387SOL    HW217839   7.384   5.826   5.502 -0.9945 -1.7232  2.0482
 5388SOL     OW17840   7.852   8.769   4.809  0.1850 -0.5087  0.8018
 5388SOL    HW117841   7.849   8.832   4.881 -2.6742 -1.4995  1.6271
 5388SOL    HW217842   7.835   8.822   4.731 -1.1256 -0.0704  1.3674
 5389SOL     OW17843   8.456   4.219   1.034 -0.5928  0.8784 -0.2825
 5389SOL    HW117844   8.439   4.249   1.123  1.3651  1.7764 -0.1877
 5389SOL    HW217845   8.506   4.289   0.993 -0.2016 -0.1446 -1.6245
 5390SOL     OW17846   4.110   6.617   3.438 -0.6954  0.2235  0.4854
 5390SOL    HW117847   4.137   6.709   3.436  2.5940 -0.6472  1.0881
 5390SOL    HW217848   4.131   6.583   3.351 -0.7840 -0.2486  0.6427
 5391SOL     OW17849   6.061   4.559   8.186 -0.2802 -0.4231 -0.0060
 5391SOL    HW117850   6.017   4.487   8.141 -0.0098 -1.2224  0.9935
 5391SOL    HW217851   5.993   4.596   8.242 -0.1971 -0.4186  0.0908
 5392SOL     OW17852   6.645   7.462   1.089  0.5279  0.1324 -0.4469
 5392SOL    HW117853   6.722   7.467   1.032  0.7395 -0.4173 -0.2081
 5392SOL    HW217854   6.577   7.424   1.033  1.2593 -2.2118  0.2000
 5393SOL     OW17855   5.292   5.683   8.685  0.3780 -0.0602 -0.1920
 5393SOL    HW117856   5.263   5.754   8.743  0.3910  0.0163 -0.2774
 5393SOL    HW217857   5.211   5.649   8.647  0.3090 -0.5592  0.3877
 5394SOL     OW17858   3.745   8.191   8.226  0.1824  0.2295  0.1505
 5394SOL    HW117859   3.760   8.227   8.139 -2.1157  1.4614  0.2289
 5394SOL    HW217860   3.758   8.265   8.286  1.6452 -0.5809  0.8490
 5395SOL     OW17861   1.383   7.123   5.911 -0.0759 -0.4999  0.2982
 5395SOL    HW117862   1.374   7.030   5.888  0.6006 -0.6610  0.6405
 5395SOL    HW217863   1.477   7.141   5.900 -0.5072  0.6859 -1.7319
 5396SOL     OW17864   2.185   0.391   7.189 -0.9197 -0.1733  0.1955
 5396SOL    HW117865   2.125   0.353   7.254  0.4124 -0.1607  1.4624
 5396SOL    HW217866   2.167   0.485   7.192 -0.5857 -0.1243  0.8546
 5397SOL     OW17867   2.380   1.706   7.235  0.0397 -0.2433  0.4900
 5397SOL    HW117868   2.395   1.797   7.261  1.1998 -0.2698 -0.0683
 5397SOL    HW217869   2.455   1.658   7.271 -0.4964 -0.9724  0.6699
 5398SOL     OW17870   5.713   5.469   4.783  0.5654 -0.5627 -0.4099
 5398SOL    HW117871   5.762   5.498   4.706  0.3245  0.5575 -0.1426
 5398SOL    HW217872   5.773   5.481   4.856  0.8136 -1.6808 -0.4176
 5399SOL     OW17873   0.754   1.885   1.769  0.1289 -0.7153  0.0296
 5399SOL    HW117874   0.843   1.919   1.762 -0.4870  1.3469  1.6814
 5399SOL    HW217875   0.755   1.829   1.846  0.0752 -0.9440 -0.1352
 5400SOL     OW17876   1.426   3.147   3.696 -0.3493  0.7290 -0.0830
 5400SOL    HW117877   1.450   3.176   3.608 -0.1337  0.9874  0.0593
 5400SOL    HW217878   1.351   3.202   3.720 -0.3206  0.7549 -0.0512
 5401SOL     OW17879   8.538   7.587   3.582  0.1448 -0.2938  0.7147
 5401SOL    HW117880   8.491   7.663   3.550  0.4074 -0.3856  0.1095
 5401SOL    HW217881   8.607   7.623   3.639  0.5993 -0.0440  0.0161
 5402SOL     OW17882   2.446   7.799   2.821  0.5190 -0.1063  0.1510
 5402SOL    HW117883   2.377   7.808   2.887  1.4906  1.0171  1.0452
 5402SOL    HW217884   2.399   7.783   2.740 -0.7430 -0.6087  0.9596
 5403SOL     OW17885   4.031   6.684   2.135 -0.2303 -0.0659  0.3346
 5403SOL    HW117886   3.988   6.651   2.215  0.1752 -0.3719  0.4305
 5403SOL    HW217887   3.991   6.633   2.064  0.4861 -0.8647  0.4960
 5404SOL     OW17888   8.192   1.774   1.855  0.4028  0.5183 -0.2686
 5404SOL    HW117889   8.143   1.692   1.866  3.2256 -1.5861 -2.4924
 5404SOL    HW217890   8.269   1.763   1.910 -0.4063  2.7934  1.3709
 5405SOL     OW17891   8.259   2.825   4.227  0.5110 -0.1645  0.0307
 5405SOL    HW117892   8.197   2.879   4.276 -0.9675 -1.6687 -0.1324
 5405SOL    HW217893   8.242   2.736   4.259  0.9438 -0.8842 -1.7383
 5406SOL     OW17894   8.551   0.432   0.536  0.4858  0.0896  0.7991
 5406SOL    HW117895   8.593   0.347   0.526  2.0266  0.8747  0.3152
 5406SOL    HW217896   8.583   0.464   0.621  1.0493  0.7861  0.3308
 5407SOL     OW17897   7.360   5.343   0.951 -0.2172  0.1668 -0.1006
 5407SOL    HW117898   7.298   5.300   1.010 -0.8805 -0.5609 -1.3056
 5407SOL    HW217899   7.388   5.421   0.999 -1.8712  0.3739  0.5746
 5408SOL     OW17900   1.518   4.263   2.569  0.5761 -0.7757 -0.0648
 5408SOL    HW117901   1.560   4.348   2.558  1.0965 -1.1866 -1.2830
 5408SOL    HW217902   1.455   4.277   2.639 -1.0837  1.2516 -1.9051
 5409SOL     OW17903   7.886   8.042   5.761  0.6300  0.2358 -0.6919
 5409SOL    HW117904   7.830   7.971   5.793 -1.0563  1.5755 -0.6329
 5409SOL    HW217905   7.908   8.016   5.672 -0.3785 -0.1534 -0.8385
 5410SOL     OW17906   0.642   8.586   5.797 -0.1706 -0.0279 -0.2894
 5410SOL    HW117907   0.678   8.515   5.849  0.1173  0.8524  0.7349
 5410SOL    HW217908   0.550   8.590   5.823  0.0301  0.5750  0.3736
 5411SOL     OW17909   2.042   1.201   2.149 -0.0356  0.3981 -0.3397
 5411SOL    HW117910   1.970   1.261   2.130  0.5944  1.9068  1.9670
 5411SOL    HW217911   2.105   1.215   2.078 -0.2053  1.9726 -0.1876
 5412SOL     OW17912   7.709   0.295   0.411  0.7060 -0.4108  0.1463
 5412SOL    HW117913   7.659   0.357   0.463 -1.1227 -0.2173 -1.7876
 5412SOL    HW217914   7.798   0.331   0.411 -0.0106  1.4313  0.2362
 5413SOL     OW17915   1.911   6.086   5.752 -0.2835 -0.1690 -0.3760
 5413SOL    HW117916   1.894   6.162   5.808 -1.2100 -2.3178  2.3774
 5413SOL    HW217917   1.848   6.095   5.680 -1.8775  0.5638  1.0705
 5414SOL     OW17918   5.081   9.214   6.350  0.0949 -0.4026 -0.1658
 5414SOL    HW117919   5.019   9.160   6.399  0.7137 -1.1232 -0.1719
 5414SOL    HW217920   5.167   9.191   6.386  0.4991 -0.5051 -1.1791
 5415SOL     OW17921   1.623   1.690   2.804 -0.0007 -0.1790  0.4664
 5415SOL    HW117922   1.681   1.614   2.796  1.8107  1.3457 -1.3661
 5415SOL    HW217923   1.649   1.732   2.886 -0.9181 -1.4297  1.4171
 5416SOL     OW17924   8.335   3.456   8.639 -0.6306 -0.1063  0.5998
 5416SOL    HW117925   8.240   3.457   8.649 -0.6771 -0.3710  0.1823
 5416SOL    HW217926   8.351   3.398   8.565 -0.3274  2.2899 -1.2510
 5417SOL     OW17927   7.866   3.350   3.557  0.3826 -0.2917  0.1253
 5417SOL    HW117928   7.817   3.379   3.480  1.5499  1.4144 -0.0190
 5417SOL    HW217929   7.930   3.287   3.522  0.3411 -0.1753 -0.1618
 5418SOL     OW17930   5.689   1.307   8.337 -0.1547  0.5780 -0.1926
 5418SOL    HW117931   5.713   1.375   8.401 -1.2600  0.5140  0.2926
 5418SOL    HW217932   5.760   1.309   8.273 -0.2788  2.3611 -0.3098
 5419SOL     OW17933   0.498   5.113   3.621 -0.0071  0.2029  0.2768
 5419SOL    HW117934   0.553   5.051   3.669 -1.1665 -0.4572  0.7973
 5419SOL    HW217935   0.458   5.167   3.689 -0.3848  0.3416 -0.0525
 5420SOL     OW17936   0.179   8.023   3.159 -0.2364  0.5500 -0.7646
 5420SOL    HW117937   0.233   7.945   3.167  0.4461  1.1326  0.3681
 5420SOL    HW217938   0.218   8.071   3.086  1.8736  1.8032  1.1229
 5421SOL     OW17939   3.233   5.378   4.913  0.1365 -0.5791  0.1265
 5421SOL    HW117940   3.209   5.455   4.965 -1.7007  0.9461 -2.8471
 5421SOL    HW217941   3.149   5.336   4.892  0.9935 -2.3458  0.0719
 5422SOL     OW17942   6.553   4.653   8.877  0.4260  0.2263  0.5569
 5422SOL    HW117943   6.567   4.620   8.966  0.7658  1.9871  1.1664
 5422SOL    HW217944   6.626   4.712   8.860  0.5304 -0.3143 -1.0286
 5423SOL     OW17945   6.662   6.068   1.224 -0.4692  0.0818  0.7583
 5423SOL    HW117946   6.625   6.116   1.151  0.3865  1.6653  1.3356
 5423SOL    HW217947   6.623   6.108   1.302  1.5631  1.0516  1.3241
 5424SOL     OW17948   3.150   8.521   7.958 -0.2275  0.1933 -0.1724
 5424SOL    HW117949   3.098   8.594   7.924  0.7574  0.7037 -0.6063
 5424SOL    HW217950   3.214   8.563   8.016 -0.7700 -0.5004  0.9215
 5425SOL     OW17951   6.153   2.434   6.509 -0.7739 -0.6731 -0.1236
 5425SOL    HW117952   6.139   2.522   6.475 -0.5634 -0.1661  1.0725
 5425SOL    HW217953   6.218   2.395   6.450  0.1495  0.4630  0.1250
 5426SOL     OW17954   6.362   1.634   2.516 -0.0395 -0.3778 -0.3726
 5426SOL    HW117955   6.356   1.542   2.541 -1.2413 -0.4577 -0.9410
 5426SOL    HW217956   6.289   1.677   2.561  2.0197  0.7985  1.9705
 5427SOL     OW17957   8.837   7.447   2.082  0.0821  0.4503  0.4117
 5427SOL    HW117958   8.776   7.510   2.119  0.6414  1.0003  0.4050
 5427SOL    HW217959   8.918   7.461   2.130  0.2640 -0.1358  0.2770
 5428SOL     OW17960   3.361   3.525   4.546  0.5815 -0.6810 -0.3621
 5428SOL    HW117961   3.402   3.532   4.632  1.6211 -1.9750 -0.7382
 5428SOL    HW217962   3.267   3.531   4.564  0.8999  2.0815  0.5291
 5429SOL     OW17963   7.519   6.453   2.574  0.2796  0.2934  0.4122
 5429SOL    HW117964   7.526   6.458   2.670 -0.4498  1.5669  0.4146
 5429SOL    HW217965   7.598   6.495   2.542  0.8748 -0.7760  0.4430
 5430SOL     OW17966   0.180   5.045   1.189  0.7168  0.5107 -0.1173
 5430SOL    HW117967   0.165   4.961   1.147 -1.1916  0.1856  1.1676
 5430SOL    HW217968   0.191   5.024   1.282 -0.6860  1.7490  0.3534
 5431SOL     OW17969   3.022   2.334   4.026  0.4565 -0.0468 -0.0305
 5431SOL    HW117970   3.032   2.412   4.081 -1.1281 -0.9774  1.6091
 5431SOL    HW217971   3.005   2.369   3.938  1.0054  1.4416  0.4359
 5432SOL     OW17972   4.285   1.095   6.694  0.3806  0.2274 -0.0636
 5432SOL    HW117973   4.305   1.095   6.788  1.8100  0.1278 -0.3555
 5432SOL    HW217974   4.238   1.012   6.680  0.8666 -0.1342  0.4191
 5433SOL     OW17975   0.145   0.021   2.825  0.2097  0.0145  0.3348
 5433SOL    HW117976   0.133   0.043   2.918  0.9407 -3.4728  1.3440
 5433SOL    HW217977   0.069  -0.033   2.804  0.7121 -0.2681 -0.7498
 5434SOL     OW17978   9.202   3.946   3.803  0.5767 -0.8833 -0.3998
 5434SOL    HW117979   9.164   4.033   3.816  1.0300 -0.5428 -1.2623
 5434SOL    HW217980   9.283   3.948   3.854  0.3357 -0.9772 -0.0127
 5435SOL     OW17981   8.779   0.770   0.586 -0.1750 -0.2309 -0.3583
 5435SOL    HW117982   8.832   0.690   0.589 -0.5002 -0.4382 -0.0723
 5435SOL    HW217983   8.693   0.740   0.554 -0.7083 -0.2255  1.0412
 5436SOL     OW17984   2.907   4.167   7.734 -0.2598  0.2434 -0.3995
 5436SOL    HW117985   2.982   4.210   7.694  0.2692  0.9108  1.2697
 5436SOL    HW217986   2.833   4.225   7.717 -0.4576 -0.4687 -2.1431
 5437SOL     OW17987   2.768   1.828   1.717  0.0899  0.2196  0.0513
 5437SOL    HW117988   2.830   1.756   1.703  0.0329  0.1632  0.0841
 5437SOL    HW217989   2.792   1.865   1.802 -0.8353 -0.7438  0.7554
 5438SOL     OW17990   3.510   5.551   9.030  0.1577  0.0417 -0.5831
 5438SOL    HW117991   3.591   5.514   9.066  0.7049  0.9357 -0.8757
 5438SOL    HW217992   3.445   5.538   9.098  0.7031 -0.1122 -0.0896
 5439SOL     OW17993   9.160   9.116   5.569  0.8299 -0.3421 -0.0155
 5439SOL    HW117994   9.199   9.105   5.483  0.5794 -0.7984 -0.0729
 5439SOL    HW217995   9.230   9.153   5.623  1.2724 -0.9512 -0.1712
 5440SOL     OW17996   0.612   2.215   7.488  0.2819  0.2582 -0.4866
 5440SOL    HW117997   0.686   2.246   7.436 -0.3445  1.8633 -0.4529
 5440SOL    HW217998   0.647   2.207   7.577  0.7565 -0.2598 -0.7189
 5441SOL     OW17999   6.901   0.803   6.630  0.3801  0.5262 -0.0057
 5441SOL    HW118000   6.821   0.753   6.612  0.3651 -0.8613  3.5333
 5441SOL    HW218001   6.972   0.743   6.606  0.4106  1.1207 -1.4934
 5442SOL     OW18002   5.847   0.802   6.282  0.7763 -0.0336 -0.1564
 5442SOL    HW118003   5.833   0.709   6.263 -0.4082  0.4650 -1.8845
 5442SOL    HW218004   5.786   0.821   6.353  0.1123 -0.3180 -0.6344
 5443SOL     OW18005   2.521   6.437   4.344  0.0337 -0.0831  0.8055
 5443SOL    HW118006   2.579   6.496   4.392 -1.0125  1.5236  0.1492
 5443SOL    HW218007   2.480   6.383   4.412  1.3009 -0.3345  1.3810
 5444SOL     OW18008   3.653   2.336   3.634  0.0157 -0.2542  0.0785
 5444SOL    HW118009   3.633   2.332   3.727  0.3251  1.2896  0.2284
 5444SOL    HW218010   3.716   2.265   3.620 -0.9142 -1.2291  0.8028
 5445SOL     OW18011   8.008   1.068   4.056  0.4381 -0.4641  0.6721
 5445SOL    HW118012   8.085   1.102   4.010 -0.5582  1.5963  0.4619
 5445SOL    HW218013   7.976   0.997   4.001  3.2183 -2.5887  1.6659
 5446SOL     OW18014   1.339   2.658   6.816 -0.1035 -0.0385  0.3518
 5446SOL    HW118015   1.424   2.620   6.836  0.2885  0.2696 -0.7242
 5446SOL    HW218016   1.288   2.586   6.779 -0.7416 -0.5417  2.1597
 5447SOL     OW18017   5.471   0.227   4.243 -0.1043  0.2184 -0.3381
 5447SOL    HW118018   5.468   0.321   4.260 -2.5444 -0.1437  1.4889
 5447SOL    HW218019   5.517   0.191   4.319  3.3567  0.1501 -2.3601
 5448SOL     OW18020   3.010   8.854   3.728  0.2094  0.6156  0.2940
 5448SOL    HW118021   2.962   8.928   3.692 -0.6119 -0.0337  0.0449
 5448SOL    HW218022   2.952   8.818   3.796  1.2293  1.1045  1.4526
 5449SOL     OW18023   1.989   5.053   6.333  0.1475  0.7008 -0.0122
 5449SOL    HW118024   1.907   5.011   6.360  0.9558 -0.5764  0.5078
 5449SOL    HW218025   2.052   4.981   6.328  1.1992  1.6492 -0.5775
 5450SOL     OW18026   4.592   3.363   3.203 -0.1039  0.1686  0.2620
 5450SOL    HW118027   4.496   3.369   3.199 -0.1479 -1.3003 -1.0587
 5450SOL    HW218028   4.616   3.301   3.134  1.9924  2.3854 -1.1065
 5451SOL     OW18029   4.345   3.607   2.409  0.0545  0.5516  0.3413
 5451SOL    HW118030   4.321   3.697   2.389 -0.5547  0.1679 -0.6944
 5451SOL    HW218031   4.440   3.605   2.403 -0.0190  0.7857 -1.1526
 5452SOL     OW18032   5.526   2.479   6.001 -0.6752 -0.3858 -0.5014
 5452SOL    HW118033   5.612   2.509   5.971  0.6547  0.2401  3.6908
 5452SOL    HW218034   5.539   2.387   6.024 -1.0070 -0.1540  0.6121
 5453SOL     OW18035   5.541   7.681   3.315 -0.6499  0.1250 -0.0843
 5453SOL    HW118036   5.590   7.628   3.252  1.7786  1.2836  0.7397
 5453SOL    HW218037   5.524   7.763   3.269  1.0969  0.9598  0.7200
 5454SOL     OW18038   7.553   1.795   5.588 -0.1166  0.2852 -0.2361
 5454SOL    HW118039   7.493   1.847   5.642 -1.0087 -0.6350 -0.3151
 5454SOL    HW218040   7.633   1.847   5.583 -0.0555  0.4260  1.8844
 5455SOL     OW18041   1.891   5.141   3.260 -0.1381 -0.1653 -0.1125
 5455SOL    HW118042   1.944   5.061   3.255  0.4423  0.0385  2.0623
 5455SOL    HW218043   1.936   5.203   3.203 -0.8257 -1.5020 -2.1388
 5456SOL     OW18044   3.859   1.727   0.477  0.7300  0.5410 -0.3459
 5456SOL    HW118045   3.913   1.757   0.403 -0.6036  0.4839 -1.3556
 5456SOL    HW218046   3.861   1.800   0.539  1.8866  0.5787 -0.4223
 5457SOL     OW18047   0.719   0.003   1.587  0.3909  0.0748 -0.1147
 5457SOL    HW118048   0.644   0.023   1.643  0.6643  0.5115  0.0884
 5457SOL    HW218049   0.697  -0.083   1.549 -0.7188  0.6831 -0.9004
 5458SOL     OW18050   7.229   5.657   3.506  0.2706  0.2333 -0.1544
 5458SOL    HW118051   7.309   5.708   3.491  0.8593 -1.1966 -2.0239
 5458SOL    HW218052   7.235   5.584   3.445 -2.2561 -0.1547  0.0126
 5459SOL     OW18053   5.465   1.940   8.520 -0.1203  0.5753 -0.5363
 5459SOL    HW118054   5.524   1.867   8.540  1.1673  0.8604 -3.1316
 5459SOL    HW218055   5.406   1.907   8.453 -1.9345  0.8091  0.8924
 5460SOL     OW18056   8.113   6.627   6.626  0.4531 -0.2575  0.1628
 5460SOL    HW118057   8.094   6.598   6.716  1.2829 -1.5499 -0.0643
 5460SOL    HW218058   8.135   6.719   6.635  0.3372 -0.3261  1.2755
 5461SOL     OW18059   0.310   8.153   2.282  0.8326 -0.1462  0.3521
 5461SOL    HW118060   0.320   8.209   2.206 -0.1737 -1.1392 -0.5421
 5461SOL    HW218061   0.224   8.112   2.270  0.7819 -0.5180  1.8808
 5462SOL     OW18062   3.872   8.816   8.069  0.0751  0.3355 -0.1911
 5462SOL    HW118063   3.798   8.867   8.100  0.0578  0.1908  0.0079
 5462SOL    HW218064   3.854   8.727   8.100  0.0747  0.1957 -0.5875
 5463SOL     OW18065   5.361   3.120   4.121 -0.0578  0.2986  0.3628
 5463SOL    HW118066   5.376   3.207   4.083 -1.6110  0.1552 -0.6273
 5463SOL    HW218067   5.424   3.063   4.079  1.5413  1.0963  1.6275
 5464SOL     OW18068   4.828   0.137   1.619  0.1115 -0.6337 -0.1990
 5464SOL    HW118069   4.767   0.169   1.551 -0.1989  0.0474  0.3960
 5464SOL    HW218070   4.902   0.102   1.570  0.6428  1.3702 -0.8608
 5465SOL     OW18071   2.349   4.770   0.647 -0.3822 -0.0500 -0.3533
 5465SOL    HW118072   2.393   4.853   0.668  0.9233 -0.8637  0.2226
 5465SOL    HW218073   2.272   4.796   0.597  0.3089  1.4869 -0.6685
 5466SOL     OW18074   6.786   9.109   5.280  0.3173 -1.0503 -0.2316
 5466SOL    HW118075   6.815   9.135   5.193 -0.1663 -1.5588 -0.5513
 5466SOL    HW218076   6.856   9.053   5.313  1.7926  1.3235  0.8283
 5467SOL     OW18077   4.773   4.407   6.684 -0.3763 -0.6177  0.1649
 5467SOL    HW118078   4.844   4.387   6.623 -1.4753 -1.6661 -0.7761
 5467SOL    HW218079   4.741   4.493   6.656  0.6574 -0.0427  0.7275
 5468SOL     OW18080   8.908   4.131   3.620  0.5094 -0.5191  0.6345
 5468SOL    HW118081   8.850   4.147   3.545 -0.0515 -0.2436  1.1233
 5468SOL    HW218082   8.976   4.073   3.586 -0.8943 -2.0857  0.4488
 5469SOL     OW18083   1.273   6.228   1.946 -0.3819  0.2134 -0.1900
 5469SOL    HW118084   1.313   6.225   2.033 -1.4008 -1.3260  0.2470
 5469SOL    HW218085   1.343   6.202   1.886 -0.0674 -0.1225  0.3163
 5470SOL     OW18086   0.368   8.180   7.469 -0.0007 -0.4807 -0.0803
 5470SOL    HW118087   0.340   8.254   7.416  0.8849  1.2292  1.8078
 5470SOL    HW218088   0.427   8.131   7.412 -1.1672 -0.1910 -1.5998
 5471SOL     OW18089   4.955   1.487   1.432  0.3479  0.1389  0.0171
 5471SOL    HW118090   5.046   1.508   1.453  0.2908  1.0060 -0.5678
 5471SOL    HW218091   4.926   1.560   1.377 -0.6001 -0.2980 -0.0689
 5472SOL     OW18092   8.245   0.076   0.694 -0.5541  0.0818 -0.0399
 5472SOL    HW118093   8.207  -0.012   0.696 -0.0430 -0.1495 -0.4380
 5472SOL    HW218094   8.173   0.134   0.720 -1.0311 -0.4037 -0.2789
 5473SOL     OW18095   6.812   5.606   3.641 -0.6125 -0.0106  0.2163
 5473SOL    HW118096   6.823   5.537   3.706  0.1968  0.7462  0.9032
 5473SOL    HW218097   6.893   5.657   3.646 -1.1657  0.9410 -0.3315
 5474SOL     OW18098   1.926   7.660   2.064 -0.2269 -0.1491  0.6187
 5474SOL    HW118099   1.854   7.633   2.008  0.2957  0.5010 -0.3982
 5474SOL    HW218100   1.888   7.726   2.123 -0.3388  0.5884 -0.2742
 5475SOL     OW18101   8.203   1.749   2.286 -0.2127  0.1412  0.6639
 5475SOL    HW118102   8.121   1.700   2.275  0.9549 -1.7919  0.3316
 5475SOL    HW218103   8.176   1.841   2.286 -2.3457 -0.4532  0.2561
 5476SOL     OW18104   0.665   2.761   9.135 -0.2636 -0.4444 -0.0600
 5476SOL    HW118105   0.680   2.795   9.047  2.1263 -2.7738 -0.6185
 5476SOL    HW218106   0.722   2.815   9.191  0.5231 -0.9113 -0.3946
 5477SOL     OW18107   3.664   3.549   7.882 -0.0393  0.1928 -0.1535
 5477SOL    HW118108   3.602   3.558   7.810 -0.4265  2.3136  0.3967
 5477SOL    HW218109   3.717   3.629   7.879 -0.6308  0.7447  2.4212
 5478SOL     OW18110   8.556   4.694   8.969 -0.1685 -0.4744  0.1705
 5478SOL    HW118111   8.510   4.627   8.918 -0.1919 -1.1490  1.0821
 5478SOL    HW218112   8.629   4.720   8.912 -0.5484 -0.7802 -0.4679
 5479SOL     OW18113   5.848   7.188   8.952 -0.5325 -0.2516 -0.0024
 5479SOL    HW118114   5.897   7.259   8.910 -0.1963  0.7544  1.9970
 5479SOL    HW218115   5.873   7.109   8.904  1.2351  0.6009 -0.5131
 5480SOL     OW18116   5.359   7.766   4.052 -0.4365  0.1688  0.7863
 5480SOL    HW118117   5.346   7.756   4.147 -0.5006 -1.7017  0.5984
 5480SOL    HW218118   5.275   7.739   4.014  0.1772 -0.7923  0.1143
 5481SOL     OW18119   1.755   0.838   2.458 -0.2116  0.8293 -0.1785
 5481SOL    HW118120   1.674   0.887   2.473 -0.6839  1.0062 -3.0742
 5481SOL    HW218121   1.785   0.866   2.371 -0.1109 -3.4760 -1.6349
 5482SOL     OW18122   3.779   8.877   5.412  0.6801 -0.4040 -0.3823
 5482SOL    HW118123   3.863   8.905   5.448  1.8950 -2.1081 -1.8108
 5482SOL    HW218124   3.728   8.958   5.404  1.9209  0.5506  1.1302
 5483SOL     OW18125   8.034   2.318   5.414  0.5910 -0.4576 -0.4471
 5483SOL    HW118126   7.940   2.334   5.426  0.5901 -1.0971  0.5234
 5483SOL    HW218127   8.051   2.340   5.323 -0.7280 -1.3821 -0.9335
 5484SOL     OW18128   1.836   5.656   6.467  0.0837  0.5449 -0.5661
 5484SOL    HW118129   1.764   5.615   6.418 -1.7008  0.4092  2.0723
 5484SOL    HW218130   1.878   5.583   6.511 -0.2676  1.0113  0.5509
 5485SOL     OW18131   6.897   8.832   4.287  0.4222 -0.2947 -0.0837
 5485SOL    HW118132   6.905   8.784   4.205 -1.8085  0.5781 -0.8519
 5485SOL    HW218133   6.867   8.767   4.350 -1.6339 -0.1814 -0.8964
 5486SOL     OW18134   5.579   6.050   7.084  0.1594 -0.5326  0.1587
 5486SOL    HW118135   5.574   6.096   7.167 -1.1910 -2.4114  1.1565
 5486SOL    HW218136   5.566   5.958   7.107 -2.4891 -0.8609 -2.3844
 5487SOL     OW18137   8.344   4.107   4.396 -0.0971  0.2664 -0.1687
 5487SOL    HW118138   8.422   4.090   4.449  0.9986 -0.4365 -1.9482
 5487SOL    HW218139   8.352   4.199   4.370  1.1293 -0.2868 -1.8582
 5488SOL     OW18140   9.285   5.181   0.751  0.2842 -0.0530 -0.2305
 5488SOL    HW118141   9.197   5.144   0.750  0.2383  0.0719 -0.7449
 5488SOL    HW218142   9.330   5.138   0.679  0.1633  1.0536 -0.9821
 5489SOL     OW18143   7.177   7.406   0.110 -0.4306  0.5663 -0.2223
 5489SOL    HW118144   7.139   7.494   0.115 -1.1838  0.2155  0.1917
 5489SOL    HW218145   7.254   7.417   0.055 -2.0100  0.9721 -2.4038
 5490SOL     OW18146   6.287   6.672   3.432  0.0777 -0.4306 -0.2660
 5490SOL    HW118147   6.350   6.617   3.386  3.1928  1.8986  1.0270
 5490SOL    HW218148   6.317   6.672   3.523 -2.3904 -0.0474  0.5877
 5491SOL     OW18149   1.078   5.450   3.573  0.4395 -0.0086 -0.0767
 5491SOL    HW118150   1.139   5.507   3.620 -0.6427  2.5387 -1.6771
 5491SOL    HW218151   0.991   5.485   3.594 -0.3983 -2.2973  0.4689
 5492SOL     OW18152   7.816   5.679   1.555 -0.7084  0.2775 -0.0091
 5492SOL    HW118153   7.818   5.656   1.462 -1.7462  2.0445 -0.5050
 5492SOL    HW218154   7.725   5.706   1.571 -0.6919 -0.5846  1.6693
 5493SOL     OW18155   2.754   1.212   5.163 -0.3233 -0.0833  0.0057
 5493SOL    HW118156   2.787   1.131   5.124 -1.7007  0.3513 -2.1014
 5493SOL    HW218157   2.779   1.281   5.102  0.2766  1.0172  1.4701
 5494SOL     OW18158   9.067   7.526   3.944 -0.1277 -0.1978 -0.2416
 5494SOL    HW118159   9.110   7.549   3.861  0.7655 -2.1057 -0.3570
 5494SOL    HW218160   9.123   7.457   3.981 -2.2997 -1.6970  0.3367
 5495SOL     OW18161   8.070   7.787   2.854  0.4774  0.0643 -0.2674
 5495SOL    HW118162   8.104   7.748   2.935 -1.3377  0.3780  0.6701
 5495SOL    HW218163   7.981   7.753   2.847  0.4971  0.3284 -1.9667
 5496SOL     OW18164   5.469   9.038   8.588 -0.4726  0.2180 -0.3453
 5496SOL    HW118165   5.493   9.077   8.672  0.2967 -1.1368  0.0667
 5496SOL    HW218166   5.373   9.033   8.591 -0.5656  1.6523 -0.2352
 5497SOL     OW18167   2.278   0.570   2.845  0.3014  0.3315 -0.1909
 5497SOL    HW118168   2.246   0.642   2.899  2.3622  0.4645  0.9161
 5497SOL    HW218169   2.348   0.531   2.897  0.5424 -1.2201 -1.6479
 5498SOL     OW18170   5.378   7.518   3.918  0.3571 -0.1444 -0.6062
 5498SOL    HW118171   5.359   7.530   3.825  2.1187 -0.2166 -0.9812
 5498SOL    HW218172   5.434   7.592   3.941 -0.4789  0.1484  0.5253
 5499SOL     OW18173   5.464   4.505   2.773  0.0066  0.0033  0.2998
 5499SOL    HW118174   5.511   4.505   2.690  0.2140 -2.8359  0.3656
 5499SOL    HW218175   5.407   4.582   2.768  1.3250  0.8973 -1.6905
 5500SOL     OW18176   1.477   4.906   0.766  0.2781  0.3210 -0.1179
 5500SOL    HW118177   1.436   4.839   0.822 -0.0150 -0.7895 -1.6317
 5500SOL    HW218178   1.440   4.988   0.798  2.3866  0.0470  3.3023
 5501SOL     OW18179   8.048   6.939   1.844  0.0180 -0.1640 -0.1601
 5501SOL    HW118180   8.097   6.897   1.773  0.6329 -0.6396  0.5298
 5501SOL    HW218181   7.981   6.991   1.800  1.1254  0.4775 -1.1305
 5502SOL     OW18182   0.323   3.570   6.119  0.7558  0.1482 -0.7286
 5502SOL    HW118183   0.230   3.556   6.104  0.8080 -0.7204 -0.2513
 5502SOL    HW218184   0.346   3.641   6.059 -0.3319  0.7523 -0.4542
 5503SOL     OW18185   7.030   2.160   5.974 -0.3754  0.1970  0.1085
 5503SOL    HW118186   7.112   2.208   5.970 -0.9965  1.2085 -0.9558
 5503SOL    HW218187   7.024   2.129   6.065  1.9087 -1.2238 -0.2203
 5504SOL     OW18188   1.484   6.843   5.846  0.0039  0.3702 -0.4961
 5504SOL    HW118189   1.577   6.852   5.826  0.3011 -0.4317  0.4966
 5504SOL    HW218190   1.472   6.750   5.867 -0.5964  0.8446  1.3889
 5505SOL     OW18191   7.795   8.835   4.537  0.9688  0.0969  0.1632
 5505SOL    HW118192   7.845   8.766   4.494  0.8773  1.5689 -2.4185
 5505SOL    HW218193   7.804   8.910   4.479 -1.3919  1.3867  1.4024
 5506SOL     OW18194   1.962   5.912   8.371  0.1378  0.4735  0.8969
 5506SOL    HW118195   1.976   5.932   8.463  1.2815  1.4344  0.5389
 5506SOL    HW218196   2.016   5.977   8.324 -0.7408  0.2633 -0.4462
 5507SOL     OW18197   3.641   5.976   5.577 -0.2919 -0.5324 -0.1046
 5507SOL    HW118198   3.676   6.038   5.514 -0.0919 -1.8356 -1.3025
 5507SOL    HW218199   3.718   5.943   5.624 -0.1661 -1.4430 -0.9337
 5508SOL     OW18200   1.678   2.944   4.954  0.0665  0.3505  0.3498
 5508SOL    HW118201   1.741   2.968   4.886  0.4048 -0.1232  0.4916
 5508SOL    HW218202   1.607   3.008   4.945  0.8307  1.2183  0.5691
 5509SOL     OW18203   0.176   7.456   3.902 -0.2899  0.1606  0.2772
 5509SOL    HW118204   0.114   7.500   3.845 -0.4455 -0.1902  0.1765
 5509SOL    HW218205   0.258   7.504   3.889 -0.7032  1.0508  0.9233
 5510SOL     OW18206   1.265   1.578   3.759  0.2640  0.3561  0.7102
 5510SOL    HW118207   1.315   1.645   3.807 -0.9686  0.6709  1.5553
 5510SOL    HW218208   1.330   1.511   3.738  1.2196  1.1318  1.1177
 5511SOL     OW18209   8.211   0.124   1.561  0.3253 -0.0973 -0.2432
 5511SOL    HW118210   8.141   0.163   1.509 -0.6358 -1.5852 -0.1227
 5511SOL    HW218211   8.259   0.069   1.499  0.4327 -0.2724 -0.0081
 5512SOL     OW18212   0.918   2.821   7.662  0.3022  0.3746 -0.8573
 5512SOL    HW118213   1.012   2.811   7.673  0.0112 -1.0618  0.4705
 5512SOL    HW218214   0.895   2.758   7.593 -0.0311 -0.9971  0.4892
 5513SOL     OW18215   7.411   2.100   5.808  0.1739 -0.2003  0.8589
 5513SOL    HW118216   7.377   2.157   5.876 -0.0543  0.1872  0.4217
 5513SOL    HW218217   7.437   2.021   5.854  1.9219  0.8364  1.6956
 5514SOL     OW18218   8.973   9.254   7.248  0.9225  0.2793  0.7390
 5514SOL    HW118219   8.911   9.323   7.225  1.9133  0.4981 -1.3742
 5514SOL    HW218220   8.962   9.187   7.181  1.9224 -0.3625  1.1900
 5515SOL     OW18221   8.837   1.437   2.656 -0.6591  0.2223  0.2713
 5515SOL    HW118222   8.792   1.383   2.721  1.5540  0.0680  1.7032
 5515SOL    HW218223   8.884   1.502   2.707 -0.1043  1.0462 -1.2552
 5516SOL     OW18224   3.057   1.275   1.702  0.4160 -0.1766  0.3894
 5516SOL    HW118225   2.984   1.328   1.733  1.4772  1.1368  0.6732
 5516SOL    HW218226   3.067   1.206   1.768  0.2066  0.3386  0.9553
 5517SOL     OW18227   3.790   0.061   4.149  0.2892  0.2026 -0.2599
 5517SOL    HW118228   3.833   0.008   4.082 -1.5928 -1.0982 -0.4474
 5517SOL    HW218229   3.787   0.005   4.226 -0.4987  0.5338 -0.0477
 5518SOL     OW18230   1.799   6.362   3.566  0.2467 -0.2318 -0.2374
 5518SOL    HW118231   1.730   6.395   3.623  0.7844 -0.0256  0.3072
 5518SOL    HW218232   1.879   6.375   3.617  0.7759  0.2948 -1.1846
 5519SOL     OW18233   6.164   1.257   8.047 -0.1422  0.5623 -0.3147
 5519SOL    HW118234   6.117   1.199   7.987  1.1890  0.3264 -1.1535
 5519SOL    HW218235   6.209   1.319   7.990  0.6278  0.7317  0.4752
 5520SOL     OW18236   4.328   3.173   6.900 -0.1273 -0.2476  0.1774
 5520SOL    HW118237   4.246   3.166   6.949 -0.6724 -0.0668 -0.7121
 5520SOL    HW218238   4.396   3.177   6.968 -0.8353 -0.6232  0.9078
 5521SOL     OW18239   1.922   2.146   7.748  0.2098  0.2144  0.2500
 5521SOL    HW118240   1.924   2.052   7.732 -0.1590  0.1869  0.3673
 5521SOL    HW218241   1.914   2.185   7.661  0.4497  0.1432  0.1952
 5522SOL     OW18242   5.557   6.366   5.161  0.3077  0.0139  0.2093
 5522SOL    HW118243   5.635   6.405   5.200  0.4876 -0.4613  0.3329
 5522SOL    HW218244   5.554   6.400   5.072  0.0706  0.8615  0.5331
 5523SOL     OW18245   0.851   6.577   3.546 -0.1468  0.2412 -0.1594
 5523SOL    HW118246   0.862   6.546   3.456  1.1350 -3.6171  1.2163
 5523SOL    HW218247   0.792   6.514   3.586  2.0025 -0.1088  2.6159
 5524SOL     OW18248   6.785   5.067   2.509 -0.2685 -0.0897  0.0317
 5524SOL    HW118249   6.702   5.024   2.485 -1.4093  0.8274  2.1753
 5524SOL    HW218250   6.763   5.160   2.510  1.2465  0.2845 -1.0252
 5525SOL     OW18251   1.839   0.528   4.021 -0.0296  0.3865 -0.1716
 5525SOL    HW118252   1.840   0.546   3.927 -1.5839  0.7047 -0.1326
 5525SOL    HW218253   1.858   0.435   4.028 -0.7853  0.1815 -0.8489
 5526SOL     OW18254   4.957   0.332   7.093  0.0521 -0.3409 -0.0480
 5526SOL    HW118255   4.915   0.275   7.158  0.1176 -2.0695 -1.4944
 5526SOL    HW218256   4.931   0.420   7.118 -0.3023 -1.0228  2.0574
 5527SOL     OW18257   3.182   2.499   3.183 -0.2624 -0.2842 -0.0781
 5527SOL    HW118258   3.257   2.458   3.139  0.2232  0.3935  0.1105
 5527SOL    HW218259   3.108   2.479   3.126  0.4793  1.2049 -1.6284
 5528SOL     OW18260   1.777   2.262   4.262 -0.5044 -0.1413 -0.2781
 5528SOL    HW118261   1.828   2.190   4.300 -0.3369  0.8268  1.3520
 5528SOL    HW218262   1.695   2.221   4.234  0.7899 -1.5381 -2.1154
 5529SOL     OW18263   8.243   0.754   8.846  0.6216 -0.3904  0.3186
 5529SOL    HW118264   8.213   0.675   8.891 -0.4572  0.2231  0.6963
 5529SOL    HW218265   8.267   0.725   8.758 -2.1813 -0.6937 -0.3683
 5530SOL     OW18266   6.254   8.195   3.835  0.8733  0.8756  1.0338
 5530SOL    HW118267   6.264   8.289   3.849  0.2516  0.6390  3.2322
 5530SOL    HW218268   6.160   8.179   3.845  1.0323 -0.0372  1.0701
 5531SOL     OW18269   5.530   7.211   1.904 -0.3477 -0.2021  0.0097
 5531SOL    HW118270   5.483   7.136   1.867 -0.3707 -1.3727  2.3427
 5531SOL    HW218271   5.599   7.229   1.839 -1.6062 -0.9274 -1.5670
 5532SOL     OW18272   2.401   1.934   2.407  0.0870  0.2375  0.2952
 5532SOL    HW118273   2.427   2.024   2.423 -0.5442  0.8016 -1.6440
 5532SOL    HW218274   2.345   1.939   2.329 -1.4140 -1.6041  1.2158
 5533SOL     OW18275   1.313   3.076   9.138  0.1867  0.5000  0.1197
 5533SOL    HW118276   1.311   2.982   9.125  0.6168  0.3159  1.2355
 5533SOL    HW218277   1.366   3.088   9.218 -2.0697  1.5051  1.5249
 5534SOL     OW18278   3.833   3.534   3.062  0.1961  0.2154  0.3719
 5534SOL    HW118279   3.924   3.558   3.044 -0.8754  3.1723 -1.4670
 5534SOL    HW218280   3.810   3.471   2.994  0.9029 -0.7654  1.0160
 5535SOL     OW18281   5.463   1.184   4.866 -0.1630 -0.2277  1.3903
 5535SOL    HW118282   5.482   1.276   4.883 -1.2005  0.3743 -0.6040
 5535SOL    HW218283   5.476   1.141   4.951  1.5972  1.5255  2.0456
 5536SOL     OW18284   8.768   6.747   4.364  0.3345  0.0172 -0.0834
 5536SOL    HW118285   8.832   6.700   4.311 -1.0237 -0.2630 -1.5059
 5536SOL    HW218286   8.796   6.838   4.361  1.7523 -0.3655  0.9036
 5537SOL     OW18287   1.809   0.247   0.464 -0.0785  0.6069  0.0769
 5537SOL    HW118288   1.896   0.284   0.479  0.2963 -0.0886 -0.3411
 5537SOL    HW218289   1.810   0.221   0.372  0.0284 -1.3870  0.6296
 5538SOL     OW18290   0.990   8.766   1.496  0.4879 -0.4914  0.2453
 5538SOL    HW118291   0.955   8.817   1.423  0.6153 -1.2547 -0.3433
 5538SOL    HW218292   1.044   8.829   1.545 -1.5733  0.6783  1.1054
 5539SOL     OW18293   0.095   6.905   3.814  0.5713  0.7185  0.3950
 5539SOL    HW118294   0.153   6.915   3.889 -0.1372  2.2515  0.7662
 5539SOL    HW218295   0.101   6.989   3.768 -1.5634  1.0326  0.6270
 5540SOL     OW18296   8.742   6.042   5.923  0.3073 -0.0869 -0.2015
 5540SOL    HW118297   8.788   5.966   5.886  1.4673  0.7702 -0.5719
 5540SOL    HW218298   8.768   6.043   6.015 -2.6075 -2.2404  0.6922
 5541SOL     OW18299   5.812   7.153   6.315 -0.6992 -0.3959  0.3548
 5541SOL    HW118300   5.793   7.202   6.395 -1.0122  0.9340 -0.5143
 5541SOL    HW218301   5.850   7.071   6.345  1.7403  1.2192  1.7936
 5542SOL     OW18302   4.664   5.020   9.051 -0.5035  0.0558  0.1420
 5542SOL    HW118303   4.673   4.953   9.118  1.3292  0.0449 -0.0689
 5542SOL    HW218304   4.727   5.088   9.077  0.8040 -0.2971 -1.9328
 5543SOL     OW18305   1.786   0.575   7.003  0.0025  0.1492  0.0567
 5543SOL    HW118306   1.865   0.532   6.972  0.5439  0.2996  1.2005
 5543SOL    HW218307   1.795   0.576   7.099 -1.7759 -0.6056  0.2483
 5544SOL     OW18308   8.925   6.784   2.853  0.0236  0.2307 -0.1353
 5544SOL    HW118309   9.009   6.827   2.841  0.3813 -0.4955 -0.2571
 5544SOL    HW218310   8.860   6.851   2.828  0.5810  0.5591 -0.7292
 5545SOL     OW18311   9.017   2.430   4.112  0.3746  0.4211 -0.7601
 5545SOL    HW118312   9.017   2.413   4.017  0.9445  0.1915 -0.7242
 5545SOL    HW218313   9.049   2.520   4.120 -0.0121  0.5625 -0.8062
 5546SOL     OW18314   0.256   8.206   2.643  0.0457 -0.4139  0.1218
 5546SOL    HW118315   0.179   8.188   2.589 -0.2075  1.4172 -0.1708
 5546SOL    HW218316   0.284   8.293   2.616  1.0758 -0.2659  1.5994
 5547SOL     OW18317   7.223   4.351   1.010  0.3948  0.0523  0.3262
 5547SOL    HW118318   7.288   4.379   0.945 -0.1008 -1.8885 -1.0513
 5547SOL    HW218319   7.165   4.426   1.020  0.1391  0.1751 -1.9315
 5548SOL     OW18320   2.137   4.858   1.558  0.1941  0.4377 -0.4374
 5548SOL    HW118321   2.192   4.866   1.636  1.7268  1.4482 -1.5977
 5548SOL    HW218322   2.138   4.945   1.519 -0.1989 -0.1755 -1.8405
 5549SOL     OW18323   5.558   4.741   8.482  0.6208  0.5884 -0.4911
 5549SOL    HW118324   5.474   4.766   8.444  0.8377  1.4600 -0.4257
 5549SOL    HW218325   5.593   4.675   8.423  0.5778  1.3289 -1.3531
 5550SOL     OW18326   3.654   8.368   8.924  0.1382 -0.0109  0.6653
 5550SOL    HW118327   3.637   8.278   8.954 -1.4555  0.6743  1.9192
 5550SOL    HW218328   3.602   8.377   8.845  0.7104 -0.3616  0.2491
 5551SOL     OW18329   2.113   3.698   2.236  0.2846  0.3050  0.3004
 5551SOL    HW118330   2.155   3.696   2.150 -0.5913  1.0971 -0.1578
 5551SOL    HW218331   2.095   3.791   2.252 -0.2436  0.0891  0.9983
 5552SOL     OW18332   7.094   3.919   6.706 -0.3058  0.3729 -0.2205
 5552SOL    HW118333   7.028   3.873   6.756 -0.3980 -0.6914 -1.2984
 5552SOL    HW218334   7.044   3.980   6.651 -0.2101  1.4768  0.8896
 5553SOL     OW18335   7.063   3.045   7.564 -0.1511  0.4885 -0.1784
 5553SOL    HW118336   7.033   3.024   7.653 -0.6218 -0.4148 -0.5378
 5553SOL    HW218337   7.027   3.132   7.546 -0.1271  0.6389  0.4815
 5554SOL     OW18338   4.097   3.561   5.520 -0.4550  0.3785  0.1046
 5554SOL    HW118339   4.003   3.582   5.525 -0.3323  1.5998 -2.1109
 5554SOL    HW218340   4.115   3.558   5.427  1.4062 -1.4113  0.5012
 5555SOL     OW18341   4.697   5.850   2.657 -0.3579 -0.0822 -0.6435
 5555SOL    HW118342   4.680   5.940   2.685  0.7356  0.0534 -0.3662
 5555SOL    HW218343   4.752   5.860   2.579  0.6764 -0.5151  0.0185
 5556SOL     OW18344   5.780   6.946   3.930 -0.2434  0.5857 -0.3333
 5556SOL    HW118345   5.844   6.940   3.859 -0.3494 -2.1342 -0.2377
 5556SOL    HW218346   5.829   6.986   4.002  1.6896 -2.3467  0.0579
 5557SOL     OW18347   0.497   1.255   4.426  0.0866  0.2572 -0.5613
 5557SOL    HW118348   0.493   1.272   4.520 -0.3710 -1.2296 -0.2999
 5557SOL    HW218349   0.406   1.262   4.397  0.2979  1.2539 -0.9974
 5558SOL     OW18350   5.465   8.917   6.489  0.1933  0.1860  0.2077
 5558SOL    HW118351   5.385   8.872   6.517  0.5964  0.9712  2.6802
 5558SOL    HW218352   5.536   8.865   6.526  0.8491 -0.1344 -1.4415
 5559SOL     OW18353   2.831   0.205   0.956 -0.2728 -0.7042 -0.1717
 5559SOL    HW118354   2.743   0.175   0.932  0.3608 -1.7908 -1.1775
 5559SOL    HW218355   2.880   0.125   0.973  0.8164 -0.1532 -0.6483
 5560SOL     OW18356   0.439   5.576   2.096  0.0287 -0.4849 -0.2879
 5560SOL    HW118357   0.378   5.502   2.099  1.1067 -1.4352 -1.1407
 5560SOL    HW218358   0.522   5.537   2.068  0.5108  1.1414 -1.1751
 5561SOL     OW18359   9.274   1.098   7.579  0.2991 -0.2263 -0.1509
 5561SOL    HW118360   9.345   1.158   7.602 -0.3732  1.4610 -2.3247
 5561SOL    HW218361   9.279   1.090   7.483 -1.1468 -1.7089 -0.1252
 5562SOL     OW18362   9.077   7.120   8.968  0.2184 -0.2804  0.0034
 5562SOL    HW118363   9.021   7.069   9.027 -0.2387  0.1006 -0.0925
 5562SOL    HW218364   9.153   7.144   9.022  0.3502 -0.9127  0.0978
 5563SOL     OW18365   4.189   1.010   1.142  0.1702 -0.6729  0.0949
 5563SOL    HW118366   4.123   1.053   1.196 -1.0871 -3.4117  0.8306
 5563SOL    HW218367   4.272   1.027   1.187 -0.0829  2.1362 -0.4195
 5564SOL     OW18368   3.617   4.746   1.233  0.5844 -0.0418 -0.2320
 5564SOL    HW118369   3.527   4.778   1.231  0.8713  0.7249 -1.8027
 5564SOL    HW218370   3.626   4.694   1.153  1.1450 -1.2175  0.5862
 5565SOL     OW18371   7.925   0.619   8.359 -0.2726  0.1643  0.3576
 5565SOL    HW118372   7.860   0.559   8.397 -1.8481  1.4324 -0.2387
 5565SOL    HW218373   7.947   0.679   8.430 -0.0546 -0.0317  0.4541
 5566SOL     OW18374   7.535   7.015   1.938  0.3049  0.5492  0.4050
 5566SOL    HW118375   7.460   6.968   1.975  0.2983  0.3984  0.1956
 5566SOL    HW218376   7.499   7.099   1.909  0.3291  0.7135  0.8337
 5567SOL     OW18377   4.603   9.229   4.574 -0.6346  0.1215 -0.2641
 5567SOL    HW118378   4.557   9.309   4.550 -2.4417 -0.2892  1.6377
 5567SOL    HW218379   4.647   9.250   4.656  0.2220 -0.3490 -0.6001
 5568SOL     OW18380   3.420   6.309   8.453 -0.3643  0.8946 -0.0479
 5568SOL    HW118381   3.485   6.280   8.517 -0.1621 -0.3750 -0.8143
 5568SOL    HW218382   3.376   6.383   8.496  1.8918  2.0888  0.2932
 5569SOL     OW18383   6.123   6.793   8.927 -0.2462 -0.1055  0.1163
 5569SOL    HW118384   6.147   6.715   8.877 -1.7904 -0.3125 -0.3252
 5569SOL    HW218385   6.082   6.759   9.006 -3.1603  0.2113 -1.1751
 5570SOL     OW18386   0.172   3.506   8.242 -0.5505 -0.0544 -0.0854
 5570SOL    HW118387   0.197   3.435   8.302  0.5588  1.2446  1.0120
 5570SOL    HW218388   0.142   3.577   8.299  1.9913  1.7804 -0.9270
 5571SOL     OW18389   8.232   3.697   2.475  0.3172 -0.4135  0.2182
 5571SOL    HW118390   8.142   3.719   2.497  0.4048  0.2221 -0.0331
 5571SOL    HW218391   8.228   3.606   2.444 -0.6430  0.4056 -2.1920
 5572SOL     OW18392   4.634   3.759   5.453  0.3719 -0.4319 -0.0378
 5572SOL    HW118393   4.564   3.696   5.470  0.3099 -0.3692 -0.0630
 5572SOL    HW218394   4.589   3.841   5.433  0.4139 -0.7330 -1.4488
 5573SOL     OW18395   7.603   3.524   6.725  0.4946 -0.2473  0.3004
 5573SOL    HW118396   7.640   3.608   6.754 -1.0718  0.4501  0.3145
 5573SOL    HW218397   7.557   3.491   6.802 -0.4372 -0.2337 -0.2417
 5574SOL     OW18398   3.249   5.169   2.908  0.0531  0.8706 -0.0319
 5574SOL    HW118399   3.274   5.257   2.880  0.5555  0.6190 -0.3728
 5574SOL    HW218400   3.157   5.161   2.881 -0.2033  1.5398  0.6123
 5575SOL     OW18401   5.192   8.241   0.788 -0.2487 -0.4285  0.1477
 5575SOL    HW118402   5.146   8.322   0.767 -1.9758 -1.4314 -0.0545
 5575SOL    HW218403   5.203   8.243   0.883  1.2750  0.8425 -0.0501
 5576SOL     OW18404   6.161   8.302   9.103  0.1993 -0.3678  0.1578
 5576SOL    HW118405   6.141   8.386   9.062 -0.4572 -0.2424  0.7233
 5576SOL    HW218406   6.254   8.288   9.084  0.1337  0.1321 -0.5615
 5577SOL     OW18407   3.028   2.162   8.301 -0.1979 -0.3333 -0.1954
 5577SOL    HW118408   3.015   2.141   8.394  2.8532  2.5316  0.9943
 5577SOL    HW218409   2.956   2.222   8.280  0.0057  0.2932  0.8376
 5578SOL     OW18410   3.639   2.382   1.768 -0.0095  0.0535 -0.0799
 5578SOL    HW118411   3.570   2.440   1.735 -1.2904 -1.1143  0.5004
 5578SOL    HW218412   3.603   2.294   1.759  2.0582 -0.7213 -1.2888
 5579SOL     OW18413   2.906   6.781   5.481 -0.3230  1.2341 -0.6114
 5579SOL    HW118414   2.990   6.760   5.521  0.1945  0.9030 -1.8521
 5579SOL    HW218415   2.848   6.802   5.555 -0.3818 -2.7739  0.5588
 5580SOL     OW18416   3.098   6.773   0.547 -0.0797 -0.1527  0.0582
 5580SOL    HW118417   3.122   6.710   0.478 -1.6264 -0.0981 -0.5603
 5580SOL    HW218418   3.143   6.853   0.522  0.8988 -0.6613  0.1571
 5581SOL     OW18419   8.871   5.158   4.451 -0.5603 -0.3586  0.0650
 5581SOL    HW118420   8.908   5.162   4.539  0.6052 -1.1927 -0.3610
 5581SOL    HW218421   8.777   5.157   4.464 -0.4052 -0.0560  1.2799
 5582SOL     OW18422   3.471   2.201   4.120  0.8392  1.0447  0.6483
 5582SOL    HW118423   3.553   2.191   4.169 -0.2136  1.0861  2.4744
 5582SOL    HW218424   3.494   2.258   4.047  2.2388  1.8726  1.6922
 5583SOL     OW18425   7.831   1.911   0.734 -0.2393  0.0355 -0.1765
 5583SOL    HW118426   7.914   1.921   0.781 -0.8113 -1.4059  1.2080
 5583SOL    HW218427   7.836   1.974   0.663  1.6894  0.5693  0.3910
 5584SOL     OW18428   0.485   6.880   8.545 -0.2844  0.3295 -0.0434
 5584SOL    HW118429   0.445   6.809   8.596 -0.0011 -0.2798 -0.6511
 5584SOL    HW218430   0.563   6.904   8.595  1.3488 -1.9379 -1.3740
 5585SOL     OW18431   4.953   2.638   0.826  0.2189 -0.4008  0.4880
 5585SOL    HW118432   4.913   2.649   0.740  0.8384 -1.5516  0.0300
 5585SOL    HW218433   4.917   2.709   0.879 -2.1975 -1.2292  0.0309
 5586SOL     OW18434   0.882   0.818   8.932  0.1487 -0.4307  0.1855
 5586SOL    HW118435   0.838   0.875   8.869 -0.8773  0.0712  1.3418
 5586SOL    HW218436   0.974   0.822   8.906  0.0439  1.4347 -0.0137
 5587SOL     OW18437   6.181   1.103   4.303 -0.4680 -0.8118 -0.3556
 5587SOL    HW118438   6.210   1.130   4.216  1.8381 -0.4969  0.4689
 5587SOL    HW218439   6.141   1.181   4.340 -0.1288 -0.5154 -0.6058
 5588SOL     OW18440   4.775   0.993   5.052  0.0892 -0.0264 -0.0704
 5588SOL    HW118441   4.863   0.962   5.071  0.5300  1.8307  0.9774
 5588SOL    HW218442   4.722   0.962   5.125  0.1055 -0.1312 -0.1025
 5589SOL     OW18443   7.013   0.116   8.895  0.9200  0.0636  0.2739
 5589SOL    HW118444   7.021   0.188   8.833  3.0315 -0.2205  0.1653
 5589SOL    HW218445   7.003   0.038   8.840 -1.3816  0.2412  0.3897
 5590SOL     OW18446   2.668   5.251   3.718  0.0824 -0.1718 -0.1263
 5590SOL    HW118447   2.706   5.338   3.707 -1.3255  0.3959 -0.6212
 5590SOL    HW218448   2.725   5.208   3.781  1.7250  0.5445 -1.0720
 5591SOL     OW18449   2.029   5.472   3.386  0.2485  0.6499  0.5359
 5591SOL    HW118450   2.089   5.534   3.346  0.8891 -0.0424  0.4162
 5591SOL    HW218451   1.959   5.526   3.423  0.5642  1.4033  0.0321
 5592SOL     OW18452   5.001   6.243   2.063  0.7076 -0.1538  0.6050
 5592SOL    HW118453   5.089   6.279   2.069  1.0263 -0.6426 -0.8807
 5592SOL    HW218454   5.012   6.160   2.016 -0.5803 -0.0234  0.0525
 5593SOL     OW18455   6.856   5.593   5.423  0.1791  0.3132  0.5773
 5593SOL    HW118456   6.825   5.502   5.427  0.5404  0.1507 -0.3117
 5593SOL    HW218457   6.853   5.623   5.514  1.0103 -0.9042  1.0129
 5594SOL     OW18458   7.546   6.273   0.591 -0.3224 -0.0309  0.6176
 5594SOL    HW118459   7.451   6.269   0.601 -0.3450 -0.6496  0.2168
 5594SOL    HW218460   7.576   6.184   0.609  0.2991  0.4198  1.8243
 5595SOL     OW18461   2.962   6.467   3.091 -0.3015 -0.1187  0.3158
 5595SOL    HW118462   2.934   6.420   3.013  1.1437 -0.3040 -0.1148
 5595SOL    HW218463   3.019   6.405   3.137  0.4188  0.6659  0.4993
 5596SOL     OW18464   8.823   2.935   8.655 -0.3891  0.3600  0.6930
 5596SOL    HW118465   8.821   3.028   8.632 -1.4790  0.5717  1.6181
 5596SOL    HW218466   8.840   2.934   8.749 -1.2087 -0.3544  0.8316
 5597SOL     OW18467   8.159   5.203   7.584 -0.7000  0.0272 -0.1254
 5597SOL    HW118468   8.114   5.158   7.655 -1.2981 -0.0221 -0.5267
 5597SOL    HW218469   8.217   5.136   7.546 -0.6582 -0.0502  0.0784
 5598SOL     OW18470   5.202   8.321   7.198  0.5821  0.0154 -0.5046
 5598SOL    HW118471   5.242   8.326   7.112 -1.8310 -0.4524 -1.6946
 5598SOL    HW218472   5.139   8.250   7.191 -2.0991  2.2021  0.5709
 5599SOL     OW18473   5.035   3.411   5.700 -0.0541 -0.2005  0.8318
 5599SOL    HW118474   5.022   3.332   5.648  2.3359 -1.2434  1.7618
 5599SOL    HW218475   5.114   3.451   5.663  0.5465  0.0691  2.3682
 5600SOL     OW18476   3.549   8.641   5.672 -0.8677  0.6275 -0.0880
 5600SOL    HW118477   3.598   8.716   5.705 -1.4519  0.9037  0.1607
 5600SOL    HW218478   3.503   8.675   5.595  2.0457 -0.5084 -2.4467
 5601SOL     OW18479   4.957   3.701   7.916  0.0877  0.7485  0.8870
 5601SOL    HW118480   4.916   3.616   7.935  0.3210  1.0188  2.7144
 5601SOL    HW218481   4.898   3.765   7.956  0.0184  1.4367 -0.3125
 5602SOL     OW18482   1.677   5.331   7.581  0.0387 -0.4877  0.3236
 5602SOL    HW118483   1.705   5.423   7.590  1.0014 -0.6689 -0.6598
 5602SOL    HW218484   1.684   5.296   7.670 -0.0875  0.3281  0.6656
 5603SOL     OW18485   6.918   2.198   3.170 -0.0657  0.4735  0.5671
 5603SOL    HW118486   6.828   2.230   3.175 -1.2749 -2.4192 -1.2828
 5603SOL    HW218487   6.917   2.134   3.098  3.8394  1.5517 -0.5889
 5604SOL     OW18488   5.366   6.676   6.284  0.1061  0.0359 -0.2266
 5604SOL    HW118489   5.432   6.710   6.223 -0.9325  0.1187 -1.3301
 5604SOL    HW218490   5.340   6.752   6.336  0.1166  0.2337 -0.5094
 5605SOL     OW18491   7.972   7.834   3.587  0.1650  0.1942 -0.1917
 5605SOL    HW118492   8.003   7.748   3.557  0.6929  0.5006 -0.5211
 5605SOL    HW218493   8.019   7.849   3.669 -1.9709 -1.0641  1.2911
 5606SOL     OW18494   7.114   0.216   3.921 -0.2774 -0.0048  0.2461
 5606SOL    HW118495   7.041   0.257   3.968  0.2103  0.1668  0.8725
 5606SOL    HW218496   7.190   0.269   3.945 -0.5735  2.4230 -3.7248
 5607SOL     OW18497   1.930   5.856   5.298  0.0583 -0.0072  0.9394
 5607SOL    HW118498   1.915   5.885   5.208  0.7739 -0.2492  0.7411
 5607SOL    HW218499   1.890   5.769   5.302  1.7303 -0.8364  0.2855
 5608SOL     OW18500   7.087   1.696   2.442  0.2515 -0.4103  0.0305
 5608SOL    HW118501   7.017   1.648   2.396 -0.3613 -0.1640  0.7030
 5608SOL    HW218502   7.042   1.769   2.484  0.9475 -0.1594  0.3413
 5609SOL     OW18503   8.066   5.728   0.243  0.2169  0.6083 -0.1940
 5609SOL    HW118504   8.107   5.814   0.253  1.4424 -0.0469  0.6483
 5609SOL    HW218505   8.130   5.677   0.191 -0.1799  0.0000 -0.0952
 5610SOL     OW18506   5.064   6.095   1.794 -0.1010 -0.6073 -0.6086
 5610SOL    HW118507   4.977   6.129   1.774 -0.8758 -1.0887  1.7491
 5610SOL    HW218508   5.124   6.154   1.749 -1.5841  0.7777 -0.8125
 5611SOL     OW18509   0.950   3.084   6.396  0.0712 -0.1025  0.5161
 5611SOL    HW118510   0.866   3.115   6.359 -0.0092 -2.4114 -1.4062
 5611SOL    HW218511   1.015   3.146   6.363 -0.4524 -0.2548 -0.8350
 5612SOL     OW18512   5.465   6.341   7.151  0.0694 -0.1147 -0.0403
 5612SOL    HW118513   5.520   6.292   7.211 -0.1196 -1.8374 -1.2332
 5612SOL    HW218514   5.504   6.327   7.065 -2.0056 -1.0839 -0.8600
 5613SOL     OW18515   7.888   3.800   8.974  0.7634  0.1436 -0.7816
 5613SOL    HW118516   7.945   3.796   9.051  0.3902  1.4657 -0.4184
 5613SOL    HW218517   7.829   3.726   8.984  0.6251  0.3957  0.2938
 5614SOL     OW18518   3.304   2.626   6.713  0.9806 -0.4910 -0.0047
 5614SOL    HW118519   3.209   2.623   6.702  0.9872 -3.3692  0.5204
 5614SOL    HW218520   3.317   2.650   6.805  0.6620 -5.1011  1.3347
 5615SOL     OW18521   3.841   9.225   6.432  0.0394 -0.2998  0.1779
 5615SOL    HW118522   3.845   9.309   6.478  0.5581 -0.1164 -0.2007
 5615SOL    HW218523   3.860   9.161   6.501 -3.0356 -0.3421  1.0666
 5616SOL     OW18524   5.668   5.580   5.588 -0.3063  0.0053  0.1412
 5616SOL    HW118525   5.618   5.505   5.555  1.2711 -0.7846 -0.4860
 5616SOL    HW218526   5.759   5.550   5.589  0.3456  1.9034 -0.1069
 5617SOL     OW18527   0.979   7.578   8.098  0.4206 -0.5823  0.3753
 5617SOL    HW118528   1.000   7.502   8.151 -1.1989 -2.7908 -2.0320
 5617SOL    HW218529   0.883   7.585   8.102  0.5452  1.3625  0.6073
 5618SOL     OW18530   2.651   8.403   0.970 -0.9454  0.5815 -0.3409
 5618SOL    HW118531   2.674   8.416   0.878  1.8277 -1.3335  0.0022
 5618SOL    HW218532   2.664   8.490   1.009  1.0975  0.7000 -1.1709
 5619SOL     OW18533   3.338   3.195   0.621  0.1697 -0.2365  0.4320
 5619SOL    HW118534   3.348   3.194   0.717  2.3727 -1.4452  0.2321
 5619SOL    HW218535   3.372   3.281   0.596  0.0747 -0.1177  0.7029
 5620SOL     OW18536   8.226   3.455   3.909 -0.3826  0.5711  0.1287
 5620SOL    HW118537   8.293   3.432   3.972  0.3309  3.7588  0.5997
 5620SOL    HW218538   8.265   3.436   3.824  0.4991  0.8874  0.4625
 5621SOL     OW18539   0.876   2.061   2.976 -0.2209 -0.1650 -0.5286
 5621SOL    HW118540   0.782   2.074   2.965 -0.2561 -0.1481 -0.2158
 5621SOL    HW218541   0.884   2.009   3.056  0.1165  1.2009  0.3528
 5622SOL     OW18542   8.047   4.351   2.210 -0.0410  0.0145  0.1957
 5622SOL    HW118543   8.093   4.353   2.294 -1.1283  0.4526  0.7858
 5622SOL    HW218544   7.993   4.272   2.214  0.1158 -0.1130 -0.2016
 5623SOL     OW18545   1.144   4.234   0.480 -0.4969 -0.2378 -0.2359
 5623SOL    HW118546   1.113   4.324   0.477 -0.2624 -0.1030  1.0527
 5623SOL    HW218547   1.066   4.183   0.505  0.0133 -0.0370  1.8527
 5624SOL     OW18548   3.654   2.408   7.917  0.4299  0.6176 -0.2779
 5624SOL    HW118549   3.657   2.495   7.877  0.7974  0.4679 -0.5828
 5624SOL    HW218550   3.562   2.395   7.938  0.2272  0.7000 -1.0809
 5625SOL     OW18551   8.022   3.204   8.344  0.4102 -0.1870 -0.0365
 5625SOL    HW118552   8.006   3.267   8.274  0.1342  0.0110  0.2033
 5625SOL    HW218553   8.112   3.174   8.329  0.5653  0.3116 -0.1144
 5626SOL     OW18554   1.914   3.065   6.781 -0.7666  0.3992 -1.1234
 5626SOL    HW118555   1.903   3.092   6.690  0.5700  1.4940 -0.9837
 5626SOL    HW218556   1.930   2.971   6.777  0.4759  0.6454 -2.1263
 5627SOL     OW18557   7.739   3.558   4.843  0.4414  0.3001  0.5449
 5627SOL    HW118558   7.803   3.602   4.899  0.6197  1.6730 -0.6995
 5627SOL    HW218559   7.654   3.589   4.875  0.5272  0.7947  0.3000
 5628SOL     OW18560   6.705   3.036   2.338 -0.3151 -0.3725  0.1538
 5628SOL    HW118561   6.654   2.998   2.267 -0.3298  0.4981 -0.3120
 5628SOL    HW218562   6.796   3.016   2.315 -0.2012  1.4031 -1.0285
 5629SOL     OW18563   3.532   0.225   2.248 -0.9430  0.0804  0.3275
 5629SOL    HW118564   3.448   0.233   2.203 -1.7146  0.5048  1.8191
 5629SOL    HW218565   3.597   0.228   2.178 -2.2277 -1.6777 -0.9894
 5630SOL     OW18566   5.521   7.047   3.282 -0.3014  0.0800 -0.5566
 5630SOL    HW118567   5.522   7.143   3.288 -1.9974  0.1129 -0.3582
 5630SOL    HW218568   5.525   7.017   3.372 -0.9755  0.0025 -0.5472
 5631SOL     OW18569   5.409   3.792   5.316  0.2127 -0.5197  0.0421
 5631SOL    HW118570   5.327   3.801   5.365  0.8528 -0.6917  1.1345
 5631SOL    HW218571   5.406   3.864   5.252  0.1755  0.7484  1.4482
 5632SOL     OW18572   2.896   1.499   7.240 -0.3090  0.2273 -0.0722
 5632SOL    HW118573   2.885   1.464   7.329 -0.0666  0.2224 -0.0426
 5632SOL    HW218574   2.968   1.447   7.203 -0.8077 -0.1837 -0.4856
 5633SOL     OW18575   1.745   1.597   4.658 -0.9303 -0.4104 -0.2955
 5633SOL    HW118576   1.703   1.514   4.634 -0.7092 -0.7789  0.5693
 5633SOL    HW218577   1.827   1.571   4.700  1.3726  0.3414 -4.1202
 5634SOL     OW18578   4.440   0.516   4.477 -0.7828  0.2794  0.0658
 5634SOL    HW118579   4.351   0.492   4.504 -0.0422 -2.4569  0.2783
 5634SOL    HW218580   4.447   0.483   4.388  0.2730 -0.2973  0.3536
 5635SOL     OW18581   0.432   1.670   0.898  0.1575 -0.2413 -0.6341
 5635SOL    HW118582   0.373   1.745   0.894  2.1702  1.2853 -2.4961
 5635SOL    HW218583   0.383   1.599   0.856 -1.2276  0.3408 -0.0582
 5636SOL     OW18584   6.811   4.200   3.579 -0.1223 -0.2298 -0.3664
 5636SOL    HW118585   6.720   4.178   3.559 -0.0065 -0.1069 -1.0396
 5636SOL    HW218586   6.808   4.291   3.606 -0.2968 -0.4279  0.2811
 5637SOL     OW18587   5.219   2.011   6.751 -0.2531  0.3351  0.3075
 5637SOL    HW118588   5.165   2.047   6.822  0.2947 -0.6690  1.2403
 5637SOL    HW218589   5.155   1.975   6.690 -0.6874 -0.0496  0.9726
 5638SOL     OW18590   4.420   3.856   7.545  0.3450 -0.8003 -0.0064
 5638SOL    HW118591   4.477   3.796   7.496  0.0786 -2.3767  1.5374
 5638SOL    HW218592   4.335   3.850   7.501  0.8729  0.0845 -1.1519
 5639SOL     OW18593   6.872   3.247   3.744 -0.0233 -0.4968 -0.0474
 5639SOL    HW118594   6.844   3.202   3.824 -0.8322 -0.3996 -0.2700
 5639SOL    HW218595   6.964   3.224   3.735 -0.4574 -2.2414 -0.2282
 5640SOL     OW18596   8.696   2.304   4.633  0.2015 -0.6065 -0.3346
 5640SOL    HW118597   8.728   2.363   4.566  0.5846 -0.7481 -0.2785
 5640SOL    HW218598   8.769   2.297   4.695 -0.9781  1.3669  1.3261
 5641SOL     OW18599   9.071   2.615   6.387  0.4342  0.0538  0.2673
 5641SOL    HW118600   9.075   2.639   6.294  0.1674 -0.7542  0.0417
 5641SOL    HW218601   9.018   2.683   6.427  0.5297  0.3932 -0.1800
 5642SOL     OW18602   6.152   6.427   6.261  0.0087 -0.5107 -0.0626
 5642SOL    HW118603   6.195   6.488   6.322  1.4358 -1.2358 -0.3094
 5642SOL    HW218604   6.200   6.345   6.272 -1.7272 -1.5279  0.0660
 5643SOL     OW18605   5.975   6.374   6.540  0.3636 -0.7844  0.1881
 5643SOL    HW118606   5.968   6.300   6.480  1.2614 -0.6065 -0.1404
 5643SOL    HW218607   6.069   6.383   6.556  0.2166 -0.0438  0.6402
 5644SOL     OW18608   5.359   3.160   8.750  0.2701 -0.6631  0.1017
 5644SOL    HW118609   5.388   3.227   8.813 -0.1817 -0.4665  0.1042
 5644SOL    HW218610   5.371   3.077   8.796 -0.5492 -0.4835  0.6438
 5645SOL     OW18611   4.044   9.228   1.200 -0.8722 -0.8599 -0.3831
 5645SOL    HW118612   4.051   9.176   1.120 -3.2862 -3.0985  0.8127
 5645SOL    HW218613   3.980   9.296   1.179 -1.2940 -1.2752 -0.4338
 5646SOL     OW18614   0.731   6.950   7.914  0.0996  0.0266 -0.1863
 5646SOL    HW118615   0.743   6.872   7.859  2.0490 -0.9556  1.5568
 5646SOL    HW218616   0.819   6.986   7.925 -0.9421  3.3628 -2.1529
 5647SOL     OW18617   7.227   7.327   5.069  0.6315  0.5896 -0.5030
 5647SOL    HW118618   7.156   7.390   5.057  1.1019  1.2892  0.3884
 5647SOL    HW218619   7.251   7.335   5.161 -1.3483 -3.0380  0.4558
 5648SOL     OW18620   2.264   0.046   1.319 -0.0281 -0.1977 -0.2881
 5648SOL    HW118621   2.352   0.009   1.328 -0.1263 -0.5255 -0.6343
 5648SOL    HW218622   2.206  -0.020   1.358 -0.0924  0.1665  0.2372
 5649SOL     OW18623   5.462   8.359   7.297 -0.2063 -0.3304 -0.2066
 5649SOL    HW118624   5.489   8.446   7.269  0.5267 -0.4957 -0.0219
 5649SOL    HW218625   5.367   8.359   7.287 -0.2337  0.5743  0.0280
 5650SOL     OW18626   6.118   7.092   3.593  1.0683  0.3497 -0.1385
 5650SOL    HW118627   6.048   7.067   3.533  1.6146 -0.3681 -0.4842
 5650SOL    HW218628   6.189   7.030   3.574  1.3797  0.3559  0.9856
 5651SOL     OW18629   0.382   4.773   1.687  0.3579  0.7846 -0.3307
 5651SOL    HW118630   0.470   4.797   1.717  0.9429 -0.7854 -0.7200
 5651SOL    HW218631   0.397   4.726   1.605 -0.6816 -1.0346  0.4901
 5652SOL     OW18632   0.431   6.185   6.133 -0.1169 -0.3226  0.2066
 5652SOL    HW118633   0.346   6.152   6.161 -0.3900  1.2820  1.2765
 5652SOL    HW218634   0.483   6.191   6.213 -0.4910  3.0587  0.2461
 5653SOL     OW18635   7.764   3.797   8.260 -0.0741  0.1597 -0.0519
 5653SOL    HW118636   7.672   3.817   8.242 -0.1779  0.9496  1.3079
 5653SOL    HW218637   7.763   3.746   8.341  0.6720  0.0674 -0.0936
 5654SOL     OW18638   5.200   8.135   1.678 -0.2051 -0.0108  0.5723
 5654SOL    HW118639   5.250   8.053   1.690 -1.4577 -0.6523  1.5299
 5654SOL    HW218640   5.159   8.150   1.763 -1.7777  0.4177 -0.2537
 5655SOL     OW18641   3.006   4.980   0.186 -0.1479 -0.1259 -0.2714
 5655SOL    HW118642   3.061   4.994   0.263 -0.4985 -0.5027  0.0557
 5655SOL    HW218643   3.035   4.896   0.151  1.1815  0.8579 -1.5629
 5656SOL     OW18644   3.130   1.071   1.889 -0.1923  0.0125  0.3205
 5656SOL    HW118645   3.190   1.004   1.923  0.7906 -0.2722 -1.8830
 5656SOL    HW218646   3.089   1.108   1.967  0.1801 -2.2786  1.6559
 5657SOL     OW18647   0.481   8.468   0.411  0.3326 -0.2449  0.2743
 5657SOL    HW118648   0.454   8.520   0.335 -0.5749 -0.3234  0.5364
 5657SOL    HW218649   0.570   8.439   0.390 -0.1152 -0.7392 -1.0116
 5658SOL     OW18650   7.626   3.549   3.245 -0.2859  0.3189 -0.0677
 5658SOL    HW118651   7.678   3.624   3.276  1.4380 -0.5381 -0.8476
 5658SOL    HW218652   7.536   3.584   3.240  0.1998  1.8559  1.1623
 5659SOL     OW18653   8.216   2.868   2.698  0.3112 -0.1654  0.3961
 5659SOL    HW118654   8.259   2.888   2.781  0.8212 -0.4011  0.1920
 5659SOL    HW218655   8.124   2.890   2.712  0.2376 -1.0687  1.3147
 5660SOL     OW18656   3.125   6.467   1.185 -0.4413  0.1689 -0.1949
 5660SOL    HW118657   3.164   6.435   1.105  1.9694 -0.7180  1.2869
 5660SOL    HW218658   3.098   6.557   1.165  1.1637  0.3336 -1.6532
 5661SOL     OW18659   8.651   0.567   4.364  0.0875 -0.0604  0.3877
 5661SOL    HW118660   8.574   0.528   4.405 -0.1965  0.9523  0.8238
 5661SOL    HW218661   8.615   0.624   4.296  0.4654  0.3636  0.5491
 5662SOL     OW18662   6.207   4.260   1.233  0.0127 -1.1244 -0.0330
 5662SOL    HW118663   6.154   4.328   1.275 -0.5538 -1.6651  0.1408
 5662SOL    HW218664   6.147   4.216   1.173 -0.0335 -2.4257  0.9376
 5663SOL     OW18665   0.653   2.320   3.091  0.4282 -0.5826  0.4745
 5663SOL    HW118666   0.703   2.384   3.039  0.8463 -1.8482 -0.7265
 5663SOL    HW218667   0.692   2.325   3.178  2.3011 -1.1302 -0.2962
 5664SOL     OW18668   6.456   2.389   1.837 -0.1461  0.1454  0.0593
 5664SOL    HW118669   6.446   2.364   1.929 -2.6170 -1.2866 -0.5692
 5664SOL    HW218670   6.524   2.330   1.804 -0.8776 -0.9007  0.3959
 5665SOL     OW18671   4.890   5.323   6.944  0.2747 -0.5436 -0.3709
 5665SOL    HW118672   4.935   5.354   7.023 -1.4077 -0.7196  0.6757
 5665SOL    HW218673   4.840   5.398   6.913 -2.3178 -1.5946  1.1002
 5666SOL     OW18674   5.114   1.084   6.372 -0.4322 -0.0560 -0.4781
 5666SOL    HW118675   5.117   0.991   6.396  2.3925 -0.0670 -0.7691
 5666SOL    HW218676   5.142   1.130   6.451 -0.5662  0.4756 -0.7387
 5667SOL     OW18677   5.980   8.327   6.695 -0.2399 -0.2347  0.2402
 5667SOL    HW118678   6.015   8.339   6.784 -0.8437  0.8964  0.3324
 5667SOL    HW218679   5.916   8.398   6.685  1.1180  0.7536 -1.7481
 5668SOL     OW18680   3.662   3.599   3.840  0.2876 -0.2172  0.0461
 5668SOL    HW118681   3.705   3.588   3.925  1.8791 -0.5845 -0.7818
 5668SOL    HW218682   3.645   3.509   3.810 -1.0479 -0.0755  0.3430
 5669SOL     OW18683   3.973   6.887   8.320 -0.1006  0.2201 -0.2187
 5669SOL    HW118684   3.979   6.930   8.235  0.8241 -0.3041 -0.4291
 5669SOL    HW218685   4.050   6.919   8.368 -0.3650  0.1542  0.2564
 5670SOL     OW18686   0.693   7.108   2.430  0.2280  0.3216 -0.1803
 5670SOL    HW118687   0.782   7.107   2.465  1.4745 -0.4432 -3.2607
 5670SOL    HW218688   0.663   7.017   2.440  0.2339  0.3100 -0.2734
 5671SOL     OW18689   4.074   6.455   6.199  0.1299  0.0259 -0.0367
 5671SOL    HW118690   4.092   6.366   6.230 -0.8861 -0.4103 -0.6731
 5671SOL    HW218691   4.160   6.490   6.178  0.7016 -0.2250  1.7591
 5672SOL     OW18692   8.142   3.780   7.183 -0.1002  0.8560 -0.0209
 5672SOL    HW118693   8.124   3.836   7.108 -0.9328  0.7431  0.0881
 5672SOL    HW218694   8.123   3.834   7.260  1.4537  1.2087  0.1315
 5673SOL     OW18695   7.363   3.863   3.895  0.0161  0.6137 -0.2578
 5673SOL    HW118696   7.431   3.800   3.918 -0.5329 -0.2539 -1.0083
 5673SOL    HW218697   7.282   3.826   3.930 -0.5826  0.0357 -2.1842
 5674SOL     OW18698   8.200   7.809   5.315 -0.9909 -0.5069  0.1754
 5674SOL    HW118699   8.148   7.815   5.234 -0.5068 -1.4907 -0.2302
 5674SOL    HW218700   8.225   7.899   5.335  1.2287 -0.4907 -2.3381
 5675SOL     OW18701   5.895   4.631   5.701  0.0342  0.0938  0.1605
 5675SOL    HW118702   5.935   4.715   5.725  0.7933 -0.4956  1.0282
 5675SOL    HW218703   5.843   4.650   5.623 -1.1416  1.7307  1.3031
 5676SOL     OW18704   0.530   7.387   5.941 -0.0811 -0.4515 -0.7025
 5676SOL    HW118705   0.533   7.291   5.931  1.9292 -0.6729  1.6514
 5676SOL    HW218706   0.622   7.414   5.939 -0.5421  1.2603  0.4038
 5677SOL     OW18707   3.693   8.844   2.398  0.1079  0.4062 -0.2394
 5677SOL    HW118708   3.750   8.852   2.321 -0.8628 -0.4928 -1.0803
 5677SOL    HW218709   3.614   8.802   2.364 -0.2911 -0.1030  1.2863
 5678SOL     OW18710   7.949   1.457   8.072  0.1512  0.1869 -0.0935
 5678SOL    HW118711   8.002   1.405   8.011 -1.4414 -0.2032 -1.1769
 5678SOL    HW218712   7.908   1.392   8.129  0.4612  0.4618  0.4521
 5679SOL     OW18713   2.796   7.608   4.680 -0.3229  0.2272 -0.4543
 5679SOL    HW118714   2.837   7.585   4.764  0.9811  1.9685 -0.5720
 5679SOL    HW218715   2.751   7.691   4.699 -2.7342 -0.9987 -0.6715
 5680SOL     OW18716   7.439   1.872   2.389  0.4825 -0.3296  0.0253
 5680SOL    HW118717   7.461   1.961   2.415  2.0720 -0.8696  0.5663
 5680SOL    HW218718   7.419   1.826   2.471  0.5660 -0.7128 -0.1657
 5681SOL     OW18719   3.906   1.997   1.123 -0.2531 -0.3534 -0.0805
 5681SOL    HW118720   3.875   2.071   1.071 -2.3582 -0.4419  0.9600
 5681SOL    HW218721   4.001   2.001   1.116 -0.2777  2.7393  0.3213
 5682SOL     OW18722   3.763   8.240   5.214  0.4418  0.0957 -0.3594
 5682SOL    HW118723   3.788   8.215   5.125  0.8316  0.6513 -0.4072
 5682SOL    HW218724   3.785   8.333   5.220  2.4918 -0.4314  1.0367
 5683SOL     OW18725   3.886   4.169   5.749 -0.2308 -0.2186  0.1695
 5683SOL    HW118726   3.862   4.261   5.735  0.9588 -0.2040 -1.8550
 5683SOL    HW218727   3.802   4.125   5.764 -1.0334  0.7623 -1.3178
 5684SOL     OW18728   1.594   6.195   5.788 -0.4041  0.2040  0.5193
 5684SOL    HW118729   1.674   6.230   5.827 -0.3919  0.3306  0.3821
 5684SOL    HW218730   1.598   6.101   5.806  1.1908 -0.2455 -1.9621
 5685SOL     OW18731   4.444   9.047   5.776 -0.1317  0.4636  0.1752
 5685SOL    HW118732   4.487   9.128   5.749  1.1793 -0.7270 -1.3973
 5685SOL    HW218733   4.359   9.050   5.732 -0.1074  1.0022  0.1568
 5686SOL     OW18734   8.075   2.989   1.833  0.4451 -0.2027 -0.1668
 5686SOL    HW118735   8.110   3.060   1.887  2.4104 -0.1233 -1.5235
 5686SOL    HW218736   8.021   3.033   1.767 -0.5029 -0.1779  0.6118
 5687SOL     OW18737   4.887   8.353   0.848  0.7163  0.2701 -0.3844
 5687SOL    HW118738   4.829   8.381   0.918  3.4896  0.9390  1.7537
 5687SOL    HW218739   4.862   8.263   0.829 -1.3583  0.7398  0.0563
 5688SOL     OW18740   5.374   1.933   7.861  0.3561 -0.1898 -0.1160
 5688SOL    HW118741   5.432   1.976   7.798  0.4067  0.9232  0.6755
 5688SOL    HW218742   5.333   1.862   7.811  1.9661 -0.6327 -0.8290
 5689SOL     OW18743   4.671   0.941   3.415  0.1314 -0.5766 -0.1679
 5689SOL    HW118744   4.729   0.873   3.382  1.0346  0.5965 -1.0150
 5689SOL    HW218745   4.729   1.014   3.436 -0.8565  0.0233  0.5174
 5690SOL     OW18746   7.155   8.787   8.551  0.6008  0.2896  0.3910
 5690SOL    HW118747   7.135   8.694   8.565 -2.8316  0.9778  0.3612
 5690SOL    HW218748   7.197   8.789   8.464  0.2369 -1.1796  0.1671
 5691SOL     OW18749   2.560   2.551   0.157 -1.0583 -0.0892 -0.0387
 5691SOL    HW118750   2.605   2.502   0.226 -0.4689  0.9925  0.3629
 5691SOL    HW218751   2.623   2.554   0.085 -0.1821  2.0185  0.7751
 5692SOL     OW18752   3.009   6.181   8.728  0.3681  0.4549  0.1158
 5692SOL    HW118753   3.012   6.183   8.823 -2.0786  0.7800  0.2270
 5692SOL    HW218754   3.073   6.114   8.703 -0.1921 -0.8602  2.0810
 5693SOL     OW18755   1.546   8.002   2.234 -0.2224 -0.5310 -0.3487
 5693SOL    HW118756   1.456   7.978   2.257 -0.6739  2.7160  1.5355
 5693SOL    HW218757   1.573   8.062   2.304  2.4337  0.6805 -2.3628
 5694SOL     OW18758   4.258   1.029   0.670  0.7085 -0.1484 -0.0970
 5694SOL    HW118759   4.263   0.983   0.754 -1.9238  0.2108  0.3113
 5694SOL    HW218760   4.205   1.107   0.688  0.0633 -0.0906 -2.0939
 5695SOL     OW18761   7.669   2.276   8.798  0.3276  0.2364  0.0724
 5695SOL    HW118762   7.585   2.292   8.841 -1.0009  2.7100 -3.2928
 5695SOL    HW218763   7.660   2.189   8.758  0.7996 -1.1349  2.8295
 5696SOL     OW18764   3.994   1.807   0.255  1.0260  0.2799 -0.0469
 5696SOL    HW118765   4.061   1.856   0.207  0.2835  2.8542  1.4066
 5696SOL    HW218766   3.961   1.744   0.192  3.5571  0.1785 -1.3417
 5697SOL     OW18767   6.314   6.281   5.146 -0.3245 -0.2891 -0.0444
 5697SOL    HW118768   6.336   6.190   5.165  0.8705 -0.1561 -0.7505
 5697SOL    HW218769   6.388   6.331   5.181  0.2570  0.2175 -1.9551
 5698SOL     OW18770   8.715   5.985   2.657  0.7381 -0.0349  0.1083
 5698SOL    HW118771   8.646   6.026   2.605  1.5145 -0.1025 -0.9655
 5698SOL    HW218772   8.761   6.059   2.698  0.5675  0.0428  0.1655
 5699SOL     OW18773   4.170   0.539   0.774  0.2904  0.2807  0.2733
 5699SOL    HW118774   4.179   0.448   0.745  1.0456 -0.1742  1.8678
 5699SOL    HW218775   4.253   0.558   0.817  0.4878  2.0369 -0.8651
 5700SOL     OW18776   8.864   3.174   5.678 -0.2090 -0.1716 -0.4557
 5700SOL    HW118777   8.910   3.252   5.709  2.0038 -0.5104 -2.7881
 5700SOL    HW218778   8.899   3.158   5.591 -1.9417 -2.7456 -0.7325
 5701SOL     OW18779   2.510   3.844   5.359  0.1238 -0.3138  0.1644
 5701SOL    HW118780   2.464   3.873   5.281  0.6348  1.1629  0.3961
 5701SOL    HW218781   2.459   3.878   5.432  0.7691  0.1080  0.4336
 5702SOL     OW18782   2.710   4.366   0.468  1.1031  0.2352  0.6115
 5702SOL    HW118783   2.723   4.299   0.536  1.3278  0.2035  0.5371
 5702SOL    HW218784   2.637   4.332   0.416  0.7422  0.3982  1.0071
 5703SOL     OW18785   4.520   3.224   8.355 -0.3673 -0.3925  0.1863
 5703SOL    HW118786   4.554   3.162   8.291 -1.1164 -0.0782 -0.5342
 5703SOL    HW218787   4.425   3.212   8.351 -0.4300 -0.1726  1.0368
 5704SOL     OW18788   5.108   5.845   8.128  0.2070 -0.2465  0.4847
 5704SOL    HW118789   5.029   5.885   8.165 -0.8106 -0.5268 -1.3228
 5704SOL    HW218790   5.138   5.908   8.062  0.3514 -1.0331 -0.2107
 5705SOL     OW18791   2.631   6.596   2.387  0.2710  0.5460 -0.4277
 5705SOL    HW118792   2.678   6.679   2.390 -2.5138  2.2281 -1.6811
 5705SOL    HW218793   2.599   6.589   2.297 -2.0925 -0.3825  0.4474
 5706SOL     OW18794   3.446   5.466   4.718  0.3096  0.2498  1.0485
 5706SOL    HW118795   3.397   5.468   4.636 -0.1438 -1.1982  1.2666
 5706SOL    HW218796   3.385   5.428   4.781  1.4323 -0.8015  1.5243
 5707SOL     OW18797   1.309   3.259   5.604  0.5154  0.2786 -0.0154
 5707SOL    HW118798   1.346   3.345   5.624  1.3740  0.0650 -0.6521
 5707SOL    HW218799   1.292   3.220   5.690  1.3099  0.5818  0.2863
 5708SOL     OW18800   3.693   3.331   3.756  0.4100 -0.3452  0.5580
 5708SOL    HW118801   3.728   3.277   3.827 -0.2561 -1.8083 -0.1929
 5708SOL    HW218802   3.759   3.325   3.687  0.6152  0.3084  0.6902
 5709SOL     OW18803   5.117   4.766   9.082  0.1870  0.0562  0.1915
 5709SOL    HW118804   5.040   4.728   9.040 -0.2895  0.2639  0.8635
 5709SOL    HW218805   5.118   4.726   9.169  0.3383  0.7269  0.4985
 5710SOL     OW18806   5.130   1.424   8.301 -0.2451 -0.2633  0.0434
 5710SOL    HW118807   5.093   1.511   8.315  0.4947  0.1210 -0.3595
 5710SOL    HW218808   5.175   1.403   8.383  1.0282  0.4590 -0.4671
 5711SOL     OW18809   7.987   6.198   1.540 -0.5957 -0.0840 -0.1769
 5711SOL    HW118810   7.907   6.204   1.488 -1.1028 -2.4725  0.2472
 5711SOL    HW218811   7.961   6.224   1.628 -0.4846  0.8922 -0.4344
 5712SOL     OW18812   5.225   0.009   6.129  0.2599 -0.1487 -0.0790
 5712SOL    HW118813   5.169   0.053   6.065  0.4934 -0.8034 -0.7425
 5712SOL    HW218814   5.168  -0.003   6.205 -0.1035  0.3837 -0.2614
 5713SOL     OW18815   1.420   7.428   9.249  0.0300  0.1706  0.3269
 5713SOL    HW118816   1.391   7.380   9.171  1.5783  1.1917 -0.9156
 5713SOL    HW218817   1.339   7.458   9.290 -0.8966 -2.0894  0.2263
 5714SOL     OW18818   8.304   0.398   6.778  0.0085 -0.0900 -0.0096
 5714SOL    HW118819   8.359   0.436   6.709 -0.8828  2.2316  0.5139
 5714SOL    HW218820   8.283   0.311   6.746  0.9158  0.3658 -1.9490
 5715SOL     OW18821   8.956   7.942   2.484 -0.6894 -0.2310 -0.1134
 5715SOL    HW118822   8.972   8.036   2.477 -1.9827  0.0564  0.5882
 5715SOL    HW218823   8.878   7.927   2.431 -1.3849 -0.6481  1.0095
 5716SOL     OW18824   0.615   1.164   5.008 -0.3919  0.8003 -0.0185
 5716SOL    HW118825   0.570   1.229   5.062 -1.1003  0.8255 -0.6177
 5716SOL    HW218826   0.703   1.198   4.998 -0.3987  1.0487  0.6970
 5717SOL     OW18827   5.777   2.067   4.379  0.2222  0.6703 -0.2828
 5717SOL    HW118828   5.719   2.039   4.450  1.0653 -2.2350 -0.6807
 5717SOL    HW218829   5.862   2.076   4.420  0.5762 -0.3716 -0.7665
 5718SOL     OW18830   3.762   6.429   5.791  0.0120 -0.3298 -0.4708
 5718SOL    HW118831   3.800   6.505   5.747 -0.5303 -0.0863 -0.5207
 5718SOL    HW218832   3.668   6.447   5.794  0.4054  1.5465  4.4606
 5719SOL     OW18833   4.044   7.328   7.164 -0.1890  0.1382  0.4745
 5719SOL    HW118834   4.074   7.240   7.139 -0.9684 -0.2643  0.9444
 5719SOL    HW218835   3.949   7.319   7.171 -0.3345  1.1872 -0.1196
 5720SOL     OW18836   0.006   6.494   8.267  0.4631 -0.0934 -0.4381
 5720SOL    HW118837   0.028   6.432   8.198  0.3176 -1.0341  0.3534
 5720SOL    HW218838   0.089   6.539   8.286  1.5618 -2.8806  1.7974
 5721SOL     OW18839   5.004   5.295   0.177  0.4094 -0.3109  0.1599
 5721SOL    HW118840   4.967   5.232   0.239 -1.0248 -0.1156 -0.4591
 5721SOL    HW218841   4.975   5.263   0.091  3.6944 -1.4928 -0.5874
 5722SOL     OW18842   3.956   5.952   6.911  0.2665  0.5890  0.1590
 5722SOL    HW118843   4.018   5.880   6.921  1.2015  1.4185  0.3808
 5722SOL    HW218844   3.985   5.998   6.832 -1.4042 -0.3188 -1.0425
 5723SOL     OW18845   5.795   1.812   7.622 -0.6655  0.6625  0.2594
 5723SOL    HW118846   5.845   1.892   7.641  3.1171 -1.2674 -1.1132
 5723SOL    HW218847   5.752   1.791   7.705  0.1377  2.8132  1.2780
 5724SOL     OW18848   2.259   2.658   6.695 -0.2482 -0.1014  0.3347
 5724SOL    HW118849   2.286   2.750   6.684  0.7509 -0.2368  1.5596
 5724SOL    HW218850   2.177   2.651   6.646  1.1010  0.7478 -2.1275
 5725SOL     OW18851   5.800   0.935   2.897 -0.2498  0.5970  0.0470
 5725SOL    HW118852   5.804   0.839   2.893 -1.2392  0.5891 -0.8961
 5725SOL    HW218853   5.769   0.954   2.985  1.9340  0.1134  0.9440
 5726SOL     OW18854   7.514   0.335   1.818  0.1056 -0.2082 -0.1901
 5726SOL    HW118855   7.476   0.414   1.856  0.0568 -1.2287  1.9505
 5726SOL    HW218856   7.501   0.345   1.724  0.8302  2.6972 -0.0196
 5727SOL     OW18857   1.230   8.149   7.686  0.2141 -0.5269 -0.6297
 5727SOL    HW118858   1.288   8.192   7.749  0.6785 -0.2314 -1.2623
 5727SOL    HW218859   1.160   8.112   7.740  1.8663 -2.3547  0.3165
 5728SOL     OW18860   5.291   3.266   4.971  0.3259 -0.3206 -0.1261
 5728SOL    HW118861   5.329   3.345   5.010  0.7636 -0.0724 -1.0446
 5728SOL    HW218862   5.259   3.294   4.885  0.3785 -1.1207 -0.4122
 5729SOL     OW18863   3.065   2.318   0.651 -0.4250 -0.2043 -0.1499
 5729SOL    HW118864   3.004   2.246   0.637 -0.9137  0.2967 -0.6380
 5729SOL    HW218865   3.102   2.336   0.565 -1.4239  1.1035 -0.3276
 5730SOL     OW18866   0.560   5.883   1.987  0.2349 -0.3888  0.6341
 5730SOL    HW118867   0.478   5.834   1.975  0.2781 -0.3658  0.2561
 5730SOL    HW218868   0.534   5.975   1.986  0.5283 -0.3082 -1.5485
 5731SOL     OW18869   8.965   8.290   6.286  0.1244 -0.2625  0.4996
 5731SOL    HW118870   8.887   8.267   6.236 -1.3179  2.0324  1.5926
 5731SOL    HW218871   8.940   8.279   6.378  0.9502  0.7980  0.8725
 5732SOL     OW18872   7.895   3.006   8.687 -0.2713 -0.2447  0.3117
 5732SOL    HW118873   7.809   2.986   8.649  0.6110 -0.2341 -1.7224
 5732SOL    HW218874   7.931   2.921   8.711  1.1635 -0.7383 -3.3055
 5733SOL     OW18875   7.213   8.280   1.610 -0.2585  0.1293  0.1977
 5733SOL    HW118876   7.190   8.195   1.645 -0.1430  0.3799  0.8879
 5733SOL    HW218877   7.166   8.343   1.665 -0.5704  0.5027 -0.4800
 5734SOL     OW18878   5.285   6.383   0.939  0.2040  0.1076 -0.2903
 5734SOL    HW118879   5.291   6.394   1.034  1.4024 -2.4299 -0.0239
 5734SOL    HW218880   5.192   6.398   0.919  0.1068  1.5485  1.1255
 5735SOL     OW18881   6.256   0.405   8.850 -0.2081  0.5539  0.4603
 5735SOL    HW118882   6.210   0.326   8.877  0.3112  0.4767  1.1523
 5735SOL    HW218883   6.204   0.440   8.777  0.3419 -1.1918 -0.8051
 5736SOL     OW18884   2.312   8.915   6.539 -0.7876 -0.7490  0.0682
 5736SOL    HW118885   2.241   8.882   6.484  0.1019 -1.8902 -0.4237
 5736SOL    HW218886   2.385   8.930   6.479 -0.9691  1.6049  0.3733
 5737SOL     OW18887   1.735   8.790   1.258 -0.1487  0.2392 -0.0883
 5737SOL    HW118888   1.827   8.765   1.267  0.0548  1.5880  1.8940
 5737SOL    HW218889   1.686   8.719   1.299 -0.0073 -0.5853 -1.3382
 5738SOL     OW18890   8.126   7.780   0.569  0.1529 -0.2152  0.3475
 5738SOL    HW118891   8.065   7.844   0.533  0.2147 -0.5473 -0.3622
 5738SOL    HW218892   8.072   7.703   0.586  0.3246 -0.4326 -0.0731
 5739SOL     OW18893   1.246   0.202   4.315 -0.0060  0.1695  0.2761
 5739SOL    HW118894   1.210   0.118   4.286 -0.8874  0.8115 -0.4775
 5739SOL    HW218895   1.172   0.262   4.314  0.6047  0.9354  0.9164
 5740SOL     OW18896   4.069   3.952   4.935  0.1562 -0.4206  0.3208
 5740SOL    HW118897   4.122   4.030   4.924  0.0175 -0.3882 -0.1605
 5740SOL    HW218898   4.005   3.974   5.003 -0.4315  0.1778 -0.4185
 5741SOL     OW18899   5.579   7.637   0.653  0.3289 -0.4705  0.4635
 5741SOL    HW118900   5.556   7.719   0.697  0.6831 -0.1549  0.0565
 5741SOL    HW218901   5.574   7.571   0.723 -2.1853 -0.4918  0.3179
 5742SOL     OW18902   3.339   7.150   9.044  0.3916 -0.0047 -0.6286
 5742SOL    HW118903   3.337   7.240   9.076 -0.2637  0.1606 -1.1153
 5742SOL    HW218904   3.277   7.150   8.971 -0.1320 -1.0237 -0.1886
 5743SOL     OW18905   0.060   3.401   0.562 -0.2748 -0.2935  0.4229
 5743SOL    HW118906   0.100   3.486   0.584 -3.4477  1.6037 -0.7472
 5743SOL    HW218907   0.033   3.412   0.470 -1.3507 -2.3531  0.4892
 5744SOL     OW18908   4.616   4.793   6.369 -0.5249 -0.1592 -0.4620
 5744SOL    HW118909   4.571   4.782   6.285 -0.6855  0.5854 -0.4766
 5744SOL    HW218910   4.626   4.887   6.379 -0.0972 -0.2624  0.1449
 5745SOL     OW18911   0.845   4.354   8.283 -0.1705 -0.8180  0.3242
 5745SOL    HW118912   0.856   4.379   8.191  0.2353 -0.9254  0.3442
 5745SOL    HW218913   0.916   4.399   8.329 -0.6030 -0.4497  0.6452
 5746SOL     OW18914   1.442   9.068   7.233 -0.4171  0.5120  0.3159
 5746SOL    HW118915   1.491   9.027   7.162 -0.4167  0.8080  0.1445
 5746SOL    HW218916   1.473   9.159   7.235  2.1035 -0.3421  2.9167
 5747SOL     OW18917   8.562   0.763   9.064 -0.0280  0.3540  0.2162
 5747SOL    HW118918   8.556   0.672   9.038  0.3044  0.3398  0.1962
 5747SOL    HW218919   8.582   0.761   9.158  1.4126  0.4007 -0.0791
 5748SOL     OW18920   4.875   6.081   3.773  0.0119  0.2266  0.6450
 5748SOL    HW118921   4.850   6.148   3.837 -0.8604  1.3680 -0.8407
 5748SOL    HW218922   4.804   6.017   3.777 -1.4890  1.7247 -1.1331
 5749SOL     OW18923   2.714   2.779   5.313  0.5131 -0.0735  0.4038
 5749SOL    HW118924   2.619   2.782   5.306  0.6796  1.7523 -1.5774
 5749SOL    HW218925   2.740   2.871   5.317  2.3152 -0.4791 -1.2672
 5750SOL     OW18926   6.601   2.120   2.069 -0.3179 -0.0437  0.3419
 5750SOL    HW118927   6.684   2.072   2.078 -0.4415 -0.4452 -0.5178
 5750SOL    HW218928   6.572   2.100   1.979 -2.7753 -2.2558  1.5572
 5751SOL     OW18929   2.182   6.520   3.404 -0.5905 -0.1145  0.2141
 5751SOL    HW118930   2.153   6.580   3.472 -1.6599 -0.3630 -0.0247
 5751SOL    HW218931   2.133   6.545   3.326 -2.4038 -2.4550  0.5595
 5752SOL     OW18932   1.550   4.325   0.821  0.2145  0.2142  0.5143
 5752SOL    HW118933   1.545   4.272   0.901 -0.1954 -0.2064  0.2073
 5752SOL    HW218934   1.644   4.333   0.804  0.2967  0.0772  0.8861
 5753SOL     OW18935   0.569   1.324   1.941  0.2985  0.2536  0.1750
 5753SOL    HW118936   0.527   1.374   2.010  0.0929  0.3487 -0.0180
 5753SOL    HW218937   0.504   1.322   1.870  1.1082  1.4956 -0.6212
 5754SOL     OW18938   6.727   6.836   7.403 -0.5671  0.2300  0.4787
 5754SOL    HW118939   6.736   6.777   7.478 -2.5596  0.0407  0.5951
 5754SOL    HW218940   6.634   6.858   7.401 -0.6140  0.0121 -2.0998
 5755SOL     OW18941   4.098   1.407   5.238  0.3142 -0.3335 -0.4560
 5755SOL    HW118942   4.080   1.358   5.158 -0.1825 -1.7883  0.5364
 5755SOL    HW218943   4.016   1.452   5.258  0.3354 -0.2361 -0.5927
 5756SOL     OW18944   6.249   8.098   0.486 -0.3125  0.4592 -0.1189
 5756SOL    HW118945   6.231   8.118   0.578 -0.2881 -0.0210 -0.0128
 5756SOL    HW218946   6.324   8.039   0.488 -0.1496  0.6518 -0.4598
 5757SOL     OW18947   5.588   2.467   7.051 -0.7644 -0.0675 -0.6362
 5757SOL    HW118948   5.515   2.408   7.032 -0.1913 -0.9923 -0.0088
 5757SOL    HW218949   5.596   2.465   7.147 -2.3460  2.9851 -0.4023
 5758SOL     OW18950   3.776   7.188   3.175  0.6474 -0.2150  0.6810
 5758SOL    HW118951   3.842   7.240   3.129  3.3708 -2.1223  2.2734
 5758SOL    HW218952   3.759   7.236   3.256  1.7617 -0.8427  1.2920
 5759SOL     OW18953   2.842   7.154   5.774  0.7416  0.0731 -0.2293
 5759SOL    HW118954   2.836   7.059   5.778 -0.3953  0.1410  0.0116
 5759SOL    HW218955   2.758   7.185   5.809  0.8600  1.1506 -0.8617
 5760SOL     OW18956   2.111   2.501   1.299 -0.3457 -0.4056 -0.1587
 5760SOL    HW118957   2.044   2.554   1.257  0.6686 -0.8919 -2.4204
 5760SOL    HW218958   2.093   2.412   1.271  1.7772 -0.4258 -1.5132
 5761SOL     OW18959   2.344   3.844   5.135 -0.6440 -0.7008  0.6517
 5761SOL    HW118960   2.267   3.824   5.188 -1.9096  0.5089 -0.6857
 5761SOL    HW218961   2.322   3.926   5.090  0.8176 -1.1337 -0.9108
 5762SOL     OW18962   4.298   6.252   4.983 -0.2969 -0.0558 -0.3118
 5762SOL    HW118963   4.243   6.317   4.940 -0.9012 -0.5293 -0.2585
 5762SOL    HW218964   4.256   6.168   4.964  0.5088 -0.4414 -0.4271
 5763SOL     OW18965   1.454   3.036   3.096 -0.2468 -0.0629  0.1715
 5763SOL    HW118966   1.408   3.052   3.179 -0.4257 -0.1355  0.0869
 5763SOL    HW218967   1.384   3.022   3.032 -0.1381  1.1501 -0.2293
 5764SOL     OW18968   7.150   1.469   5.966 -0.5399  0.1243 -0.7605
 5764SOL    HW118969   7.061   1.444   5.939 -0.8686 -0.4232  0.8032
 5764SOL    HW218970   7.207   1.410   5.917 -0.9890  1.0031 -2.3714
 5765SOL     OW18971   5.092   3.574   4.602  0.1693 -0.5849  0.8895
 5765SOL    HW118972   5.080   3.614   4.688  0.2089  1.2973  0.0395
 5765SOL    HW218973   5.139   3.640   4.551 -2.2264 -0.5469 -1.4025
 5766SOL     OW18974   7.304   7.870   5.488  0.2976 -0.2363 -0.1515
 5766SOL    HW118975   7.382   7.839   5.442  0.9051  0.1646  0.5919
 5766SOL    HW218976   7.296   7.962   5.463 -2.5696 -1.3809 -3.8244
 5767SOL     OW18977   9.059   2.526   0.853 -0.0586 -0.5414 -0.6923
 5767SOL    HW118978   8.967   2.518   0.824 -0.2390 -0.9788 -0.0069
 5767SOL    HW218979   9.077   2.619   0.847 -0.8985 -0.3117  0.2268
 5768SOL     OW18980   1.479   1.142   0.941  0.0738  0.1056  0.7995
 5768SOL    HW118981   1.479   1.146   1.036 -0.1698  1.0506  0.7594
 5768SOL    HW218982   1.399   1.189   0.915  0.4464  0.3568  0.1088
 5769SOL     OW18983   7.644   6.135   6.674  0.0892  0.3184 -0.4062
 5769SOL    HW118984   7.701   6.062   6.698  0.4167  1.0297  1.0515
 5769SOL    HW218985   7.590   6.150   6.752 -0.4980  1.1351 -0.9625
 5770SOL     OW18986   5.351   0.652   8.577  0.1001 -0.0256  0.0498
 5770SOL    HW118987   5.311   0.573   8.612  0.9933 -0.4314  0.1606
 5770SOL    HW218988   5.290   0.681   8.509  0.2818 -1.3838 -0.7126
 5771SOL     OW18989   2.202   8.074   0.342  0.1971 -0.6020  0.2285
 5771SOL    HW118990   2.195   7.987   0.380  0.0784 -0.4242  0.6183
 5771SOL    HW218991   2.296   8.092   0.338  0.2090 -0.6228  0.4310
 5772SOL     OW18992   8.849   8.217   0.712 -0.4632 -0.8311 -0.0846
 5772SOL    HW118993   8.851   8.149   0.780 -3.5736 -2.1825 -1.2850
 5772SOL    HW218994   8.926   8.199   0.658 -0.1829 -2.2019  0.7454
 5773SOL     OW18995   6.708   1.811   8.507 -0.3569 -0.6209  0.4314
 5773SOL    HW118996   6.626   1.780   8.545 -0.8045 -1.2620 -1.0212
 5773SOL    HW218997   6.734   1.742   8.446  0.0370  0.6454 -0.8469
 5774SOL     OW18998   2.260   4.568   9.204 -0.0652 -0.2442  0.1074
 5774SOL    HW118999   2.203   4.642   9.224  1.4058  1.0052 -0.2072
 5774SOL    HW219000   2.292   4.538   9.289  0.1457  0.1253  0.1549
 5775SOL     OW19001   5.575   6.402   0.320 -0.3147  0.3111  0.4008
 5775SOL    HW119002   5.634   6.336   0.356  0.8552  1.3084  0.3225
 5775SOL    HW219003   5.562   6.376   0.229  0.5788  0.4999  0.2191
 5776SOL     OW19004   3.091   7.585   2.802 -0.6165 -0.3930  0.4704
 5776SOL    HW119005   3.185   7.600   2.801 -0.6493 -0.2341 -0.1977
 5776SOL    HW219006   3.069   7.578   2.895 -0.0135 -0.0195  0.6418
 5777SOL     OW19007   4.396   7.950   5.048  0.1385 -0.0010  0.1865
 5777SOL    HW119008   4.398   7.935   4.953 -0.0068 -0.1452  0.2065
 5777SOL    HW219009   4.366   8.040   5.057  0.5154  0.1341  0.0846
 5778SOL     OW19010   7.668   1.676   1.481 -0.1288 -0.1558 -0.3429
 5778SOL    HW119011   7.710   1.717   1.405  0.0846  1.0806  0.4449
 5778SOL    HW219012   7.585   1.722   1.491 -0.1133 -0.2567  0.2451
 5779SOL     OW19013   1.851   8.119   6.908  0.2383  0.0489  0.0416
 5779SOL    HW119014   1.775   8.136   6.852 -0.1336 -3.9762 -0.7933
 5779SOL    HW219015   1.814   8.085   6.989  1.0428  0.9088  0.7832
 5780SOL     OW19016   5.698   8.568   6.344  0.5441  0.2868  0.0563
 5780SOL    HW119017   5.770   8.506   6.335 -0.5790 -1.2889  1.6010
 5780SOL    HW219018   5.735   8.643   6.389  1.7433  0.4260 -1.1466
 5781SOL     OW19019   5.060   2.026   2.777  0.1215 -0.2818 -0.5158
 5781SOL    HW119020   5.128   2.018   2.710  1.0170 -0.5669  0.4018
 5781SOL    HW219021   5.039   1.936   2.800  1.2739 -0.1764  1.0126
 5782SOL     OW19022   8.761   6.741   8.918  0.3461  0.3390  0.5254
 5782SOL    HW119023   8.839   6.692   8.945 -0.4537 -0.5653  1.2366
 5782SOL    HW219024   8.701   6.673   8.886  0.3955  1.1710 -1.3812
 5783SOL     OW19025   3.434   0.097   0.631 -0.5145 -0.3364 -0.0321
 5783SOL    HW119026   3.389   0.097   0.546 -0.8537  0.7686  0.1463
 5783SOL    HW219027   3.408   0.014   0.671 -0.7550 -0.6378 -0.8013
 5784SOL     OW19028   8.908   4.607   0.679  0.4529 -0.0028  0.0994
 5784SOL    HW119029   8.914   4.516   0.649 -1.9127 -0.6445  1.4349
 5784SOL    HW219030   8.940   4.659   0.606 -1.2812 -1.7410 -1.9425
 5785SOL     OW19031   7.313   2.090   3.706  0.2163  0.7470  0.1188
 5785SOL    HW119032   7.389   2.137   3.672  0.4164  0.7038  0.5062
 5785SOL    HW219033   7.308   2.115   3.798 -0.4969  1.0893 -0.0074
 5786SOL     OW19034   5.107   5.100   2.120 -0.0448  0.4392  0.4367
 5786SOL    HW119035   5.147   5.014   2.133 -0.1500  0.4034  0.5250
 5786SOL    HW219036   5.165   5.144   2.058 -0.0095  0.2917  0.3643
 5787SOL     OW19037   3.546   1.102   5.948  0.2297 -0.1236 -0.2092
 5787SOL    HW119038   3.541   1.138   6.037  1.2280 -0.0029 -0.1897
 5787SOL    HW219039   3.476   1.037   5.944 -0.1486  0.2349  0.4956
 5788SOL     OW19040   3.026   1.361   0.624  0.0586  0.1603  0.3398
 5788SOL    HW119041   3.084   1.319   0.687  0.4658  1.0850  0.5842
 5788SOL    HW219042   3.085   1.401   0.560 -0.3523 -1.0612 -0.8366
 5789SOL     OW19043   4.784   6.873   2.199 -0.1878 -0.1483 -0.4628
 5789SOL    HW119044   4.845   6.885   2.272 -0.2792 -5.5258  0.7304
 5789SOL    HW219045   4.838   6.883   2.121  0.9285  0.9073  0.4242
 5790SOL     OW19046   4.649   8.081   6.091  0.4096 -0.5258  0.4855
 5790SOL    HW119047   4.694   8.057   6.171 -1.4736 -2.2114  1.0922
 5790SOL    HW219048   4.621   7.998   6.053  0.3581  0.3057 -1.3884
 5791SOL     OW19049   2.424   1.690   4.746  0.3193 -0.4130  0.1641
 5791SOL    HW119050   2.394   1.775   4.713 -1.0201  0.8594  4.3458
 5791SOL    HW219051   2.367   1.627   4.704 -0.1336  0.9416 -1.3200
 5792SOL     OW19052   5.592   4.935   1.439 -0.1256  0.0967 -0.1105
 5792SOL    HW119053   5.568   4.984   1.517 -0.7748  0.3052 -0.4335
 5792SOL    HW219054   5.517   4.947   1.380 -0.4670 -1.6077 -0.0341
 5793SOL     OW19055   2.141   5.920   7.147 -0.1424 -0.3052  0.0297
 5793SOL    HW119056   2.169   5.880   7.064  0.9362 -0.4153  0.4418
 5793SOL    HW219057   2.115   6.009   7.123  0.3225 -0.2827 -0.3938
 5794SOL     OW19058   6.441   8.930   4.458 -0.4120 -0.2356 -0.2594
 5794SOL    HW119059   6.355   8.919   4.499 -0.6502 -1.6933 -1.1269
 5794SOL    HW219060   6.503   8.893   4.521 -0.3906  0.8101  0.3628
 5795SOL     OW19061   9.230   2.858   9.177  0.2577 -0.2407  0.2026
 5795SOL    HW119062   9.194   2.862   9.265 -1.1840  1.2236 -0.4380
 5795SOL    HW219063   9.315   2.902   9.184 -0.1229  0.4127  0.7164
 5796SOL     OW19064   0.841   6.303   4.354  0.5046 -0.9528 -0.1798
 5796SOL    HW119065   0.867   6.358   4.280  1.7762 -0.8800  0.3088
 5796SOL    HW219066   0.787   6.361   4.408  0.7583 -0.5773 -0.3258
 5797SOL     OW19067   3.247   7.004   7.297 -0.2794 -0.6782 -0.2977
 5797SOL    HW119068   3.220   7.018   7.206  0.8246  0.5789 -0.4457
 5797SOL    HW219069   3.343   7.005   7.294 -0.2030  1.9524  1.2232
 5798SOL     OW19070   1.759   7.871   5.755  0.2422  0.4763  0.4817
 5798SOL    HW119071   1.684   7.851   5.812  1.5367  0.9041  2.3597
 5798SOL    HW219072   1.796   7.785   5.735  0.4075  0.3884  1.1443
 5799SOL     OW19073   6.273   2.581   2.065 -0.1114 -0.3244  0.2948
 5799SOL    HW119074   6.333   2.628   2.007 -1.1832  0.2168 -0.3877
 5799SOL    HW219075   6.318   2.500   2.087  1.3249  0.5519  0.6445
 5800SOL     OW19076   3.437   8.740   2.339  0.1206  0.1546 -0.4802
 5800SOL    HW119077   3.422   8.649   2.315 -2.2289  0.6116 -0.8167
 5800SOL    HW219078   3.351   8.774   2.363  0.8016  2.5267 -1.1805
 5801SOL     OW19079   6.372   4.894   7.871  0.1955 -0.0569  0.3409
 5801SOL    HW119080   6.411   4.942   7.944  1.7898 -0.6534 -0.0959
 5801SOL    HW219081   6.330   4.819   7.913 -0.6540  0.6859  0.8352
 5802SOL     OW19082   1.467   0.071   5.577  0.2170  0.3546  0.5604
 5802SOL    HW119083   1.488  -0.017   5.608  1.1834  0.4092  0.0724
 5802SOL    HW219084   1.548   0.120   5.588 -0.2940  1.1596  0.7357
 5803SOL     OW19085   7.162   5.170   0.637 -0.3731 -0.9563 -0.2210
 5803SOL    HW119086   7.125   5.182   0.550  1.0055  0.7191 -0.5890
 5803SOL    HW219087   7.094   5.122   0.685 -2.3272  0.5541 -1.3763
 5804SOL     OW19088   5.185   3.137   2.737 -0.6141  1.1164 -0.0212
 5804SOL    HW119089   5.209   3.142   2.644 -1.2255 -0.9687 -0.3220
 5804SOL    HW219090   5.180   3.228   2.765 -0.6241  1.7910 -2.0980
 5805SOL     OW19091   6.537   8.417   5.434 -0.2785 -0.3068  0.3764
 5805SOL    HW119092   6.618   8.390   5.477 -0.3604 -0.9716  0.1162
 5805SOL    HW219093   6.563   8.489   5.376  0.1674 -0.6858  0.1058
 5806SOL     OW19094   7.325   5.846   6.869 -0.2835 -0.1713  0.1406
 5806SOL    HW119095   7.355   5.762   6.904 -1.3010 -0.7468 -0.3473
 5806SOL    HW219096   7.372   5.856   6.786  1.8013  0.9877  1.4401
 5807SOL     OW19097   3.589   8.656   6.415 -0.4911  0.4246 -0.2574
 5807SOL    HW119098   3.608   8.575   6.366 -1.1784 -1.0856  1.8816
 5807SOL    HW219099   3.494   8.663   6.412 -0.3718  1.8535 -1.4473
 5808SOL     OW19100   7.943   9.162   5.075 -0.4363 -0.3258 -0.1389
 5808SOL    HW119101   8.009   9.119   5.129  1.9179  0.2248 -2.4721
 5808SOL    HW219102   7.895   9.219   5.136  0.9795 -1.0175  1.6547
 5809SOL     OW19103   5.257   1.892   2.105  0.5585 -0.3501 -0.3866
 5809SOL    HW119104   5.323   1.825   2.124  0.3464 -0.9397 -1.6812
 5809SOL    HW219105   5.236   1.880   2.013 -0.8993  0.2539 -0.1493
 5810SOL     OW19106   3.234   5.114   8.057  0.2533  0.1980 -0.0546
 5810SOL    HW119107   3.263   5.204   8.042  2.0586 -0.5124 -0.8599
 5810SOL    HW219108   3.253   5.068   7.975 -1.8150 -0.6461 -0.1059
 5811SOL     OW19109   0.091   2.172   1.501 -0.4937  0.0885 -0.7559
 5811SOL    HW119110   0.100   2.115   1.578 -0.6778 -0.6909 -1.3100
 5811SOL    HW219111   0.157   2.140   1.440  0.0523  1.0799 -0.7051
 5812SOL     OW19112   9.113   0.529   1.813  0.0888 -0.4421  0.0716
 5812SOL    HW119113   9.035   0.560   1.767  0.2785  2.2488  1.4484
 5812SOL    HW219114   9.080   0.498   1.898  0.4973  0.6757  0.6457
 5813SOL     OW19115   8.240   6.313   3.042  0.1556  0.2035  0.4877
 5813SOL    HW119116   8.314   6.280   2.991  0.5684  0.5648  0.8528
 5813SOL    HW219117   8.167   6.257   3.016  0.8503 -1.0104  1.1154
 5814SOL     OW19118   5.633   1.055   7.357  0.0640 -0.5148 -0.5764
 5814SOL    HW119119   5.538   1.055   7.364  0.1914 -1.3688  1.6559
 5814SOL    HW219120   5.662   1.124   7.417  0.8625 -0.1822 -1.3200
 5815SOL     OW19121   4.133   8.719   6.096  0.7140 -0.3297 -0.0368
 5815SOL    HW119122   4.169   8.632   6.113 -0.4371 -0.5387  1.4069
 5815SOL    HW219123   4.195   8.779   6.139  0.3795 -0.5769  0.8072
 5816SOL     OW19124   3.439   1.296   0.894  0.4031  0.2057 -0.0408
 5816SOL    HW119125   3.532   1.319   0.894  0.2312  0.9113  0.1777
 5816SOL    HW219126   3.402   1.344   0.968 -0.0981 -0.2538  0.0169
 5817SOL     OW19127   2.592   6.180   3.543  0.4633 -0.4066  0.5090
 5817SOL    HW119128   2.620   6.254   3.598 -2.0820  2.6718 -2.1146
 5817SOL    HW219129   2.506   6.156   3.578  0.8665 -1.4967  0.7495
 5818SOL     OW19130   4.596   2.891   7.775 -0.1323 -0.0831  0.2018
 5818SOL    HW119131   4.630   2.980   7.786  0.2117 -0.3433  1.2109
 5818SOL    HW219132   4.513   2.903   7.728 -1.0360  0.9227  2.0056
 5819SOL     OW19133   5.899   8.705   0.166  0.2263 -0.0326 -0.1832
 5819SOL    HW119134   5.926   8.771   0.102  1.4254  1.0013  1.3541
 5819SOL    HW219135   5.974   8.646   0.173 -0.1400 -0.5001 -0.1820
 5820SOL     OW19136   5.338   0.663   4.991 -0.6966 -0.4769 -0.0457
 5820SOL    HW119137   5.348   0.718   5.069 -1.2625  1.3767 -1.2373
 5820SOL    HW219138   5.246   0.672   4.966  0.0784  1.2424 -2.5254
 5821SOL     OW19139   9.151   5.053   7.690 -0.0748 -0.2890 -0.1032
 5821SOL    HW119140   9.186   4.983   7.634 -0.8358 -1.5661  0.9881
 5821SOL    HW219141   9.173   5.026   7.779 -1.1082  0.4468  0.3850
 5822SOL     OW19142   6.718   3.862   8.005 -0.3039 -0.6243 -0.0179
 5822SOL    HW119143   6.785   3.834   7.942  0.2722 -0.1901  0.3960
 5822SOL    HW219144   6.635   3.853   7.958 -0.1280 -2.8210  0.0283
 5823SOL     OW19145   3.181   0.047   3.484  0.0841 -0.1324 -0.1420
 5823SOL    HW119146   3.225   0.070   3.402 -0.8549  2.1918 -0.0404
 5823SOL    HW219147   3.252   0.032   3.546  0.7917 -1.3125 -1.2107
 5824SOL     OW19148   8.729   2.116   5.766 -0.4009 -0.1105  0.6275
 5824SOL    HW119149   8.703   2.199   5.805 -0.6672  0.8545 -1.5318
 5824SOL    HW219150   8.678   2.050   5.813  0.7876  0.7820  3.2512
 5825SOL     OW19151   1.999   1.598   3.095  0.4765  0.0764  0.0510
 5825SOL    HW119152   2.086   1.564   3.113  0.2241 -1.3500 -1.2810
 5825SOL    HW219153   1.974   1.557   3.012 -0.6788  1.9649 -0.5600
 5826SOL     OW19154   3.123   7.282   7.276 -0.0326  0.6569  0.4207
 5826SOL    HW119155   3.108   7.200   7.229  0.8113 -0.8048  2.5848
 5826SOL    HW219156   3.070   7.274   7.356 -0.1367  2.3343  0.5375
 5827SOL     OW19157   8.251   5.380   7.095 -0.1434  0.6546 -0.0343
 5827SOL    HW119158   8.274   5.295   7.131  0.5726  2.2367  3.4438
 5827SOL    HW219159   8.312   5.393   7.022 -0.1535 -1.7151 -0.4810
 5828SOL     OW19160   6.370   3.228   5.777 -0.0588 -0.2663 -0.1204
 5828SOL    HW119161   6.425   3.188   5.710 -0.2376  0.1339 -0.5104
 5828SOL    HW219162   6.286   3.183   5.768  0.5508 -1.7640  1.3129
 5829SOL     OW19163   9.235   9.033   0.001  0.2252 -0.2027  0.0427
 5829SOL    HW119164   9.314   9.064   0.045  0.7110 -1.7136  0.2818
 5829SOL    HW219165   9.190   8.980   0.068 -1.2632  1.0761  0.0774
 5830SOL     OW19166   7.650   4.664   4.165  0.8363 -0.5158 -0.1399
 5830SOL    HW119167   7.566   4.644   4.123 -0.4432  1.5906  1.3236
 5830SOL    HW219168   7.666   4.757   4.145  1.4736 -0.1699  1.8207
 5831SOL     OW19169   5.019   4.045   8.784  0.0850 -0.6404 -0.3124
 5831SOL    HW119170   4.981   3.998   8.710 -2.2234 -0.1195  0.5074
 5831SOL    HW219171   5.067   3.978   8.833  0.3912 -1.2754 -1.4499
 5832SOL     OW19172   4.295   7.246   6.009 -0.2127 -0.5226  0.0859
 5832SOL    HW119173   4.239   7.315   5.974  0.8671  0.2145 -0.2074
 5832SOL    HW219174   4.304   7.267   6.102 -0.0854 -0.3959  0.0466
 5833SOL     OW19175   9.094   2.057   0.578  0.0042 -0.1302 -0.2161
 5833SOL    HW119176   9.155   2.130   0.589 -1.0238  0.6676  0.2686
 5833SOL    HW219177   9.145   1.980   0.603  1.0496  0.4198 -0.5724
 5834SOL     OW19178   6.372   7.549   6.015 -0.0635  0.2960  0.5493
 5834SOL    HW119179   6.312   7.580   5.947  1.4059  0.5275 -0.6568
 5834SOL    HW219180   6.404   7.628   6.058  1.0843  0.2865 -0.2835
 5835SOL     OW19181   5.781   9.194   7.971 -0.1825 -0.2669  0.6089
 5835SOL    HW119182   5.848   9.180   8.038  1.2431  1.7576 -0.3337
 5835SOL    HW219183   5.705   9.224   8.020  0.6813  0.6784  1.4123
 5836SOL     OW19184   0.683   5.445   2.015  0.0214  0.1434  0.4560
 5836SOL    HW119185   0.664   5.351   2.010  0.3377 -0.0279  2.1674
 5836SOL    HW219186   0.752   5.459   1.950  0.6338 -0.9788  0.8570
 5837SOL     OW19187   2.520   4.147   3.775  0.1202  0.4072  0.4664
 5837SOL    HW119188   2.601   4.152   3.723  0.7290  0.9742  1.4644
 5837SOL    HW219189   2.453   4.122   3.711  0.9506  0.6146 -0.5068
 5838SOL     OW19190   2.744   3.255   6.978 -0.1583 -0.0959  0.7119
 5838SOL    HW119191   2.652   3.279   6.986 -0.5257 -1.6759  1.3202
 5838SOL    HW219192   2.744   3.175   6.926  0.9933  0.6906 -0.5518
 5839SOL     OW19193   0.130   1.187   6.560  0.1826  0.3993  0.4745
 5839SOL    HW119194   0.075   1.214   6.633  1.3574 -0.2353  1.6150
 5839SOL    HW219195   0.218   1.181   6.597  0.8068  0.1429 -1.0065
 5840SOL     OW19196   3.552   8.315   3.001 -0.7794  0.3835  0.3504
 5840SOL    HW119197   3.496   8.238   2.991 -0.9939  0.2114  2.6887
 5840SOL    HW219198   3.586   8.309   3.090  1.0204  1.8001 -0.1936
 5841SOL     OW19199   2.285   0.931   9.212 -0.1193 -0.2465  0.1465
 5841SOL    HW119200   2.215   0.975   9.163  0.6712  0.9916  0.1098
 5841SOL    HW219201   2.251   0.843   9.229 -1.2118 -0.0283 -0.8790
 5842SOL     OW19202   3.968   2.311   9.042  0.5549  0.1171 -0.2600
 5842SOL    HW119203   4.040   2.271   8.993  0.8487  1.4253 -0.9384
 5842SOL    HW219204   4.011   2.367   9.106  0.1715  2.1066 -1.6851
 5843SOL     OW19205   2.600   3.200   6.602  0.1630 -0.2942 -1.1541
 5843SOL    HW119206   2.529   3.231   6.658 -0.5704 -0.4822 -1.9581
 5843SOL    HW219207   2.666   3.269   6.605  0.9514 -1.1209  1.3949
 5844SOL     OW19208   7.214   1.636   2.885 -0.0738 -0.1712 -0.3537
 5844SOL    HW119209   7.248   1.552   2.915 -0.2127 -0.2014 -0.2778
 5844SOL    HW219210   7.164   1.669   2.960 -0.3309 -0.1946 -0.5142
 5845SOL     OW19211   6.371   7.230   5.748 -0.0813 -0.2041  0.4174
 5845SOL    HW119212   6.417   7.295   5.800  2.4487  0.4090 -2.3959
 5845SOL    HW219213   6.279   7.239   5.772  0.5321  2.7556  1.8109
 5846SOL     OW19214   4.570   8.163   1.758 -0.0837  0.3898  0.1386
 5846SOL    HW119215   4.584   8.257   1.754 -0.3289  0.6055  3.0341
 5846SOL    HW219216   4.491   8.153   1.812 -0.2989 -1.4431 -0.4747
 5847SOL     OW19217   2.740   2.326   0.242  0.8431 -0.4305  0.4493
 5847SOL    HW119218   2.737   2.352   0.150  1.4932 -0.5001  0.4071
 5847SOL    HW219219   2.816   2.371   0.278  1.7495 -1.9383  0.4764
 5848SOL     OW19220   3.137   1.118   5.178 -0.4862 -0.2190  0.1703
 5848SOL    HW119221   3.051   1.079   5.195 -0.7224  0.6598  1.0811
 5848SOL    HW219222   3.155   1.170   5.256 -0.6539  2.2925 -1.3919
 5849SOL     OW19223   2.818   7.836   4.449  0.0944  0.0841 -0.3363
 5849SOL    HW119224   2.813   7.884   4.366 -3.7115  0.6364  0.1161
 5849SOL    HW219225   2.786   7.748   4.428 -0.2523  0.0292  0.3960
 5850SOL     OW19226   4.589   4.309   2.716  0.5593 -0.4701 -0.3849
 5850SOL    HW119227   4.672   4.283   2.675  0.0362 -1.9700 -0.5222
 5850SOL    HW219228   4.527   4.309   2.644  1.0175  3.7187 -0.9204
 5851SOL     OW19229   8.878   0.686   2.704 -0.1794 -0.1226 -0.4831
 5851SOL    HW119230   8.867   0.779   2.686  0.2535  0.1248  0.5262
 5851SOL    HW219231   8.797   0.646   2.673 -1.2594  0.8572  1.0481
 5852SOL     OW19232   6.069   5.673   4.273  0.3874 -0.0692  0.7868
 5852SOL    HW119233   5.995   5.714   4.316  0.0082  0.6242 -0.5260
 5852SOL    HW219234   6.144   5.728   4.296 -0.2577  1.8961 -1.6974
 5853SOL     OW19235   0.127   1.799   3.950  0.0405  0.3733 -0.0386
 5853SOL    HW119236   0.204   1.852   3.929 -0.1053  1.0226  1.0501
 5853SOL    HW219237   0.057   1.862   3.961 -0.2668 -0.0936  0.6953
 5854SOL     OW19238   1.973   2.277   2.266  0.1672  0.9832  0.3060
 5854SOL    HW119239   1.949   2.195   2.309  1.3735  1.0518  1.1635
 5854SOL    HW219240   2.012   2.249   2.183 -1.5120  0.8114 -0.4335
 5855SOL     OW19241   3.326   7.350   7.652  0.2075 -0.0393  0.4188
 5855SOL    HW119242   3.311   7.423   7.591 -1.4184 -1.6696 -1.2285
 5855SOL    HW219243   3.247   7.349   7.707  1.0962  0.6178  1.7251
 5856SOL     OW19244   0.742   8.670   6.426 -0.7984 -0.2614 -0.0528
 5856SOL    HW119245   0.835   8.661   6.449 -0.8876 -0.7833  0.1077
 5856SOL    HW219246   0.697   8.611   6.486 -1.2108 -0.1993 -0.3002
 5857SOL     OW19247   7.555   0.198   7.021  0.6076 -0.0423 -0.1239
 5857SOL    HW119248   7.582   0.239   6.939  1.2913 -1.3012 -0.5538
 5857SOL    HW219249   7.631   0.204   7.078  0.8729 -1.0890 -0.3492
 5858SOL     OW19250   7.347   3.700   2.116  0.3585 -0.7602  0.3605
 5858SOL    HW119251   7.344   3.645   2.037 -0.9225 -0.8641  0.4847
 5858SOL    HW219252   7.262   3.743   2.119  0.7168 -0.1042  1.2339
 5859SOL     OW19253   7.413   5.965   6.520  0.0779 -0.4145  0.1013
 5859SOL    HW119254   7.484   6.027   6.501 -0.2571 -0.4314 -1.3001
 5859SOL    HW219255   7.348   6.017   6.566  0.6827 -0.2175  0.7456
 5860SOL     OW19256   1.667   8.508   4.633  0.1526  0.1877  0.4370
 5860SOL    HW119257   1.735   8.543   4.691  1.0774 -0.0766 -0.4603
 5860SOL    HW219258   1.694   8.417   4.618 -0.5752 -0.0093  0.3242
 5861SOL     OW19259   8.088   1.875   0.899 -0.4049  0.1540 -0.0072
 5861SOL    HW119260   8.125   1.792   0.870  2.1691  0.7104  1.5689
 5861SOL    HW219261   8.069   1.862   0.992 -1.4037  0.8642 -0.0977
 5862SOL     OW19262   0.510   3.084   6.283  0.1383 -0.2878  0.1041
 5862SOL    HW119263   0.417   3.104   6.274 -0.1830 -1.6685  0.2329
 5862SOL    HW219264   0.539   3.137   6.357 -1.0712 -1.5034  1.4911
 5863SOL     OW19265   3.479   0.812   3.667 -0.0256 -0.2419  0.0627
 5863SOL    HW119266   3.512   0.758   3.739  1.7645  0.8917  0.1310
 5863SOL    HW219267   3.411   0.867   3.708 -1.1826 -1.7534  0.1915
 5864SOL     OW19268   1.047   8.107   8.664 -0.0045  0.8944 -0.1534
 5864SOL    HW119269   0.959   8.074   8.644 -0.4179  1.6121  0.4555
 5864SOL    HW219270   1.060   8.179   8.602 -0.6066  2.0110  1.0021
 5865SOL     OW19271   8.990   2.800   5.371  0.1129  0.0859  0.7018
 5865SOL    HW119272   9.012   2.736   5.303  0.4988 -0.7556  1.6101
 5865SOL    HW219273   9.064   2.796   5.432  0.3988  1.7793  0.5033
 5866SOL     OW19274   0.206   7.558   0.132 -0.0192  0.0467  0.0117
 5866SOL    HW119275   0.141   7.557   0.203 -1.8154  0.3353 -1.5595
 5866SOL    HW219276   0.270   7.492   0.156 -0.8340 -0.1449  1.7010
 5867SOL     OW19277   2.734   4.341   2.193 -0.2902  0.3838 -0.1526
 5867SOL    HW119278   2.744   4.287   2.114  1.2042  0.0058  0.2796
 5867SOL    HW219279   2.654   4.308   2.235 -2.2933  1.9670 -2.5696
 5868SOL     OW19280   2.729   8.434   5.733 -0.3978  0.7738  0.3003
 5868SOL    HW119281   2.696   8.517   5.699  0.5586  0.9444 -0.2205
 5868SOL    HW219282   2.662   8.407   5.796 -2.2983  0.3299 -1.8460
 5869SOL     OW19283   0.940   8.626   3.309 -0.3154 -0.0883  0.0970
 5869SOL    HW119284   0.863   8.598   3.358  0.5091 -0.1314  1.4001
 5869SOL    HW219285   1.013   8.586   3.356  0.4400 -0.7162 -1.6066
 5870SOL     OW19286   4.042   2.446   9.247  0.2937  0.4326  0.6354
 5870SOL    HW119287   4.026   2.540   9.239 -0.5949  0.2922  0.6525
 5870SOL    HW219288   4.105   2.439   9.319 -0.7428  0.9313  1.6178
 5871SOL     OW19289   4.446   1.329   2.093  0.2799 -0.5944  0.1219
 5871SOL    HW119290   4.539   1.320   2.074  0.4966  1.2824  0.1716
 5871SOL    HW219291   4.443   1.377   2.176 -0.7178  0.8157 -0.7084
 5872SOL     OW19292   1.049   1.123   5.458 -0.6547  0.0421 -0.4458
 5872SOL    HW119293   1.005   1.195   5.413 -2.1579  0.1741  1.1726
 5872SOL    HW219294   1.063   1.155   5.547  2.0175 -0.3220 -0.6847
 5873SOL     OW19295   9.066   4.178   6.135  0.0640 -0.0034 -0.3283
 5873SOL    HW119296   9.088   4.085   6.136 -2.3559 -0.6676  3.1122
 5873SOL    HW219297   9.056   4.200   6.043 -1.4390 -3.7383 -1.1458
 5874SOL     OW19298   8.207   8.437   1.320 -0.3973 -0.3104  0.0075
 5874SOL    HW119299   8.271   8.408   1.384 -2.0313 -0.8339  1.4355
 5874SOL    HW219300   8.204   8.532   1.329  0.4385 -0.2575 -0.3124
 5875SOL     OW19301   0.488   4.898   8.120 -0.1598 -0.2803 -0.3694
 5875SOL    HW119302   0.533   4.839   8.059  0.7637  0.6644 -0.6172
 5875SOL    HW219303   0.455   4.840   8.189 -0.6025 -1.2715 -1.3989
 5876SOL     OW19304   4.818   5.961   9.048  0.8781  0.1311  0.6651
 5876SOL    HW119305   4.743   5.942   9.105 -2.5761  0.6739 -3.4636
 5876SOL    HW219306   4.809   5.899   8.976  1.6161  3.3504 -2.3245
 5877SOL     OW19307   6.377   4.669   1.214  0.1093  0.6227  0.6970
 5877SOL    HW119308   6.450   4.645   1.271  0.8630  0.9784 -0.1134
 5877SOL    HW219309   6.373   4.598   1.150 -0.3561  0.5271  0.8329
 5878SOL     OW19310   3.013   3.231   4.755 -0.1421 -0.0127  0.1880
 5878SOL    HW119311   3.071   3.173   4.804 -1.4684 -0.8647  0.7955
 5878SOL    HW219312   2.954   3.267   4.821  0.2797  1.5678 -0.2842
 5879SOL     OW19313   5.062   4.817   1.608 -0.1273 -0.9480  0.4170
 5879SOL    HW119314   5.047   4.891   1.668  0.7368  0.5618 -1.1662
 5879SOL    HW219315   5.050   4.739   1.662  2.5410  0.3584  3.0605
 5880SOL     OW19316   0.489   9.013   6.586  0.3141  0.1770 -0.1154
 5880SOL    HW119317   0.543   9.079   6.630 -0.2895  0.2035  0.6014
 5880SOL    HW219318   0.552   8.959   6.537  0.7432  1.6798 -1.2431
 5881SOL     OW19319   2.752   3.635   8.644 -0.5135 -0.1850 -0.2507
 5881SOL    HW119320   2.665   3.620   8.683 -0.2337  0.9092  0.7990
 5881SOL    HW219321   2.810   3.577   8.693 -0.4534 -0.0760 -0.1931
 5882SOL     OW19322   3.214   2.284   8.965 -0.1430  0.2673  0.0771
 5882SOL    HW119323   3.261   2.282   8.881 -0.7029  2.8812 -0.3567
 5882SOL    HW219324   3.275   2.246   9.028  0.1902 -1.9644 -1.5286
 5883SOL     OW19325   4.159   1.904   7.575  0.7712 -0.0274 -0.1419
 5883SOL    HW119326   4.144   1.969   7.644  0.5956 -0.6885  0.4469
 5883SOL    HW219327   4.072   1.873   7.552  0.8353  0.1411 -0.6184
 5884SOL     OW19328   7.979   8.493   2.508 -0.0595 -0.2121 -0.0992
 5884SOL    HW119329   8.011   8.510   2.419  0.5229  1.2218  0.3768
 5884SOL    HW219330   7.895   8.537   2.512  0.0240 -0.0754  0.1405
 5885SOL     OW19331   5.852   5.045   8.667  0.1168 -0.2066 -0.0681
 5885SOL    HW119332   5.850   5.133   8.629 -2.5605 -0.3903 -0.4696
 5885SOL    HW219333   5.833   5.059   8.759 -4.4948 -0.5979 -0.8246
 5886SOL     OW19334   6.323   0.991   2.613  0.0823 -0.2469 -0.2099
 5886SOL    HW119335   6.393   1.055   2.600 -0.4860  0.0913 -1.7971
 5886SOL    HW219336   6.242   1.043   2.615 -0.4748 -0.9529 -2.4899
 5887SOL     OW19337   6.681   8.575   3.756 -0.1541 -0.0097  0.0690
 5887SOL    HW119338   6.773   8.578   3.729 -0.2747 -0.7239 -0.4469
 5887SOL    HW219339   6.680   8.511   3.827 -0.2247  0.1138  0.1794
 5888SOL     OW19340   5.674   3.639   5.642 -0.1222 -0.3159  0.6308
 5888SOL    HW119341   5.623   3.694   5.702  0.5664 -0.6589  1.5391
 5888SOL    HW219342   5.662   3.680   5.556 -0.1225  0.8937  1.1960
 5889SOL     OW19343   4.356   5.147   0.876  0.3317 -0.3258 -0.1774
 5889SOL    HW119344   4.341   5.163   0.783 -0.7974 -0.6253 -0.0501
 5889SOL    HW219345   4.362   5.235   0.915 -2.3268 -0.1779 -0.0411
 5890SOL     OW19346   1.946   8.832   9.209  0.5374  0.4236 -0.1663
 5890SOL    HW119347   2.004   8.851   9.284 -1.4402 -1.4773  1.8912
 5890SOL    HW219348   1.875   8.895   9.218 -0.4135 -0.7218  0.3589
 5891SOL     OW19349   4.447   5.220   1.942  0.1463 -0.4882  0.5514
 5891SOL    HW119350   4.408   5.269   1.870 -0.0963  0.6009  1.4121
 5891SOL    HW219351   4.431   5.128   1.920  0.0336 -0.1663 -0.7500
 5892SOL     OW19352   3.412   8.642   6.711 -0.3742  0.1929  0.0703
 5892SOL    HW119353   3.490   8.647   6.656 -1.2130 -0.8640 -1.2563
 5892SOL    HW219354   3.399   8.549   6.728 -0.7954  0.4279  1.0800
 5893SOL     OW19355   1.543   6.673   4.091 -0.5655 -0.2910  0.1924
 5893SOL    HW119356   1.616   6.724   4.127  0.2137  1.3905 -3.5100
 5893SOL    HW219357   1.483   6.739   4.058 -1.7826 -1.7561 -0.5626
 5894SOL     OW19358   0.478   0.486   5.479 -0.3799  0.4478  0.8328
 5894SOL    HW119359   0.539   0.541   5.429 -2.6572  0.6558 -1.8413
 5894SOL    HW219360   0.529   0.410   5.504  1.8249  2.0637  1.3977
 5895SOL     OW19361   4.441   3.596   5.553 -0.0040 -0.2232 -0.0908
 5895SOL    HW119362   4.357   3.551   5.546 -0.2626  0.2989 -0.3841
 5895SOL    HW219363   4.430   3.656   5.626 -0.6682  1.4719 -1.5325
 5896SOL     OW19364   7.214   5.419   4.793 -0.0605  0.9447 -0.3063
 5896SOL    HW119365   7.288   5.358   4.800 -1.3868 -0.6641  0.0138
 5896SOL    HW219366   7.199   5.429   4.699 -0.8039 -0.4340 -0.3407
 5897SOL     OW19367   8.333   7.543   6.113 -0.0226 -0.3945  0.1753
 5897SOL    HW119368   8.331   7.525   6.207 -2.8133 -1.3900 -0.0264
 5897SOL    HW219369   8.383   7.624   6.105  1.5797 -1.1286  2.3654
 5898SOL     OW19370   4.471   1.603   8.532  0.2996  0.7116 -0.1069
 5898SOL    HW119371   4.517   1.686   8.524  0.7469  0.3857 -0.8632
 5898SOL    HW219372   4.466   1.589   8.627  1.1176  1.0957  0.0012
 5899SOL     OW19373   7.809   1.895   7.143  0.2912 -0.1320  0.3990
 5899SOL    HW119374   7.801   1.922   7.051  0.0694 -0.8767  0.1973
 5899SOL    HW219375   7.890   1.843   7.145  0.1844 -0.2884  0.5886
 5900SOL     OW19376   1.650   5.260   1.900  0.2867  0.2067  0.0479
 5900SOL    HW119377   1.722   5.233   1.956  0.4788  0.5739 -0.0197
 5900SOL    HW219378   1.628   5.182   1.849  0.1180 -0.1220  0.6227
 5901SOL     OW19379   2.598   1.638   2.813 -0.3139 -0.4066  0.2372
 5901SOL    HW119380   2.596   1.543   2.810  1.8263 -0.4306 -1.4175
 5901SOL    HW219381   2.560   1.666   2.730  1.1867  0.1354 -0.2771
 5902SOL     OW19382   1.930   6.012   1.710  0.2258 -0.2459  0.0994
 5902SOL    HW119383   2.022   5.997   1.731  0.1867  0.1438  0.5536
 5902SOL    HW219384   1.931   6.065   1.630  0.3697 -3.2305 -1.9668
 5903SOL     OW19385   6.629   5.667   4.066  0.0518  0.2231  0.2237
 5903SOL    HW119386   6.581   5.585   4.065 -0.9315  0.7323  1.9649
 5903SOL    HW219387   6.648   5.686   3.974 -2.1816 -0.5302 -0.4286
 5904SOL     OW19388   5.961   6.798   2.845  0.6057 -0.2977  0.3989
 5904SOL    HW119389   5.971   6.706   2.820  0.7680 -0.0296 -0.5484
 5904SOL    HW219390   5.882   6.826   2.800 -0.2902 -0.3739  1.8979
 5905SOL     OW19391   8.901   5.373   1.535 -0.1322 -0.1785  0.1554
 5905SOL    HW119392   8.817   5.402   1.499 -1.0428 -0.1435  2.2345
 5905SOL    HW219393   8.881   5.347   1.624  2.1645  0.2045  0.8103
 5906SOL     OW19394   1.448   1.517   7.371  0.2306  0.3156 -0.0408
 5906SOL    HW119395   1.509   1.446   7.351 -0.2636  0.4281 -2.1117
 5906SOL    HW219396   1.366   1.491   7.328 -0.1507  1.8018 -0.2404
 5907SOL     OW19397   7.024   5.502   5.931 -0.2919 -0.5253 -0.1578
 5907SOL    HW119398   6.967   5.514   6.007 -0.2212  1.3447 -0.3777
 5907SOL    HW219399   7.113   5.512   5.965 -0.2323 -0.3415 -0.3670
 5908SOL     OW19400   6.632   3.513   3.468  0.2278 -0.4255  0.2520
 5908SOL    HW119401   6.691   3.441   3.444  0.0525 -0.1126 -1.2098
 5908SOL    HW219402   6.644   3.524   3.562  2.3820 -0.4698 -0.0020
 5909SOL     OW19403   7.144   8.943   2.533 -0.2616  0.0788  0.6639
 5909SOL    HW119404   7.179   9.029   2.556 -1.5591  0.9845 -0.6357
 5909SOL    HW219405   7.118   8.951   2.441 -2.9827 -0.8090  1.2982
 5910SOL     OW19406   4.446   1.444   0.319 -0.7102  0.1341 -0.1945
 5910SOL    HW119407   4.356   1.457   0.288 -1.0761  0.0883  0.8270
 5910SOL    HW219408   4.436   1.418   0.411  0.2053 -3.1622 -0.9711
 5911SOL     OW19409   4.806   1.566   9.130  0.1225 -0.5799  0.0431
 5911SOL    HW119410   4.816   1.474   9.155  0.5546 -0.6082 -0.2323
 5911SOL    HW219411   4.875   1.611   9.177  1.7087 -0.8040 -2.0088
 5912SOL     OW19412   4.610   3.870   8.792 -0.5484 -0.2772 -0.2062
 5912SOL    HW119413   4.543   3.869   8.723 -0.3605  1.1163 -0.4200
 5912SOL    HW219414   4.588   3.795   8.847 -2.2341  0.0920 -0.3383
 5913SOL     OW19415   7.431   2.688   8.365 -0.0941  0.1788 -0.1329
 5913SOL    HW119416   7.517   2.729   8.370  0.9237 -1.7816 -1.1581
 5913SOL    HW219417   7.423   2.658   8.275 -1.2615 -0.9057  0.3051
 5914SOL     OW19418   8.694   5.377   3.295  0.3050 -0.1255  0.6608
 5914SOL    HW119419   8.719   5.458   3.338  0.3060 -1.6331  3.6205
 5914SOL    HW219420   8.775   5.346   3.253  0.6388  0.6919  0.6994
 5915SOL     OW19421   2.157   1.704   0.936  0.0873  0.0063  0.3007
 5915SOL    HW119422   2.137   1.754   0.857 -0.0451  0.6734  0.7502
 5915SOL    HW219423   2.073   1.664   0.961  0.0700  0.0134  0.2530
 5916SOL     OW19424   8.666   1.350   6.252 -0.1075 -0.5893  0.5686
 5916SOL    HW119425   8.683   1.318   6.164 -0.1045 -0.1452  0.4060
 5916SOL    HW219426   8.623   1.277   6.297  1.5950 -1.4979  0.7755
 5917SOL     OW19427   7.787   6.083   8.877 -0.4334  0.3447 -0.1370
 5917SOL    HW119428   7.727   6.012   8.900 -1.7650  1.4523 -0.1134
 5917SOL    HW219429   7.770   6.151   8.942  1.1532  0.5161  0.1168
 5918SOL     OW19430   4.017   1.731   4.828  0.1173 -0.0372 -0.3636
 5918SOL    HW119431   4.051   1.642   4.820  1.0527  0.1566  1.2708
 5918SOL    HW219432   3.922   1.721   4.823  0.2050 -1.1593  0.1269
 5919SOL     OW19433   6.829   0.041   7.140  0.3635  0.4079  0.0307
 5919SOL    HW119434   6.849  -0.052   7.127  2.2238  0.3461  2.7334
 5919SOL    HW219435   6.915   0.084   7.141 -0.2805  1.7269  1.4543
 5920SOL     OW19436   8.209   1.675   0.738  0.2092 -0.2862 -0.2531
 5920SOL    HW119437   8.134   1.627   0.773 -0.9414 -0.3509 -2.7132
 5920SOL    HW219438   8.188   1.688   0.645  2.6407  0.8628 -0.6752
 5921SOL     OW19439   2.228   5.606   4.251 -0.6736 -0.2874 -0.1253
 5921SOL    HW119440   2.224   5.587   4.345 -1.0809 -4.6886 -0.9570
 5921SOL    HW219441   2.138   5.624   4.226 -0.7927 -0.7133  0.0031
 5922SOL     OW19442   1.652   3.708   0.024 -0.0114  0.4288  0.1609
 5922SOL    HW119443   1.745   3.732   0.021  0.3050 -0.8779 -2.5249
 5922SOL    HW219444   1.641   3.662   0.107  2.7759 -3.2312 -1.3761
 5923SOL     OW19445   9.186   5.854   3.298 -0.2868 -0.4125 -0.2934
 5923SOL    HW119446   9.233   5.931   3.266 -0.5561 -0.3618 -0.5676
 5923SOL    HW219447   9.094   5.881   3.300 -0.2275 -0.2456  1.0049
 5924SOL     OW19448   6.270   4.318   4.145  1.3595  0.0957  0.1150
 5924SOL    HW119449   6.323   4.252   4.191 -0.2786 -0.0038  1.9418
 5924SOL    HW219450   6.242   4.379   4.214 -2.8496 -1.1746 -0.2917
 5925SOL     OW19451   7.103   6.849   2.460 -0.2874  0.0281  0.1952
 5925SOL    HW119452   7.160   6.902   2.404 -0.7782  1.0508  0.6459
 5925SOL    HW219453   7.163   6.807   2.522  0.2851 -1.3535 -1.2828
 5926SOL     OW19454   0.318   4.924   5.066 -0.5684  0.2970  0.2367
 5926SOL    HW119455   0.348   4.879   4.987  1.8899  0.3922  1.0856
 5926SOL    HW219456   0.241   4.973   5.037  0.2505  0.2951 -2.0799
 5927SOL     OW19457   7.755   1.976   5.535 -0.3749  0.0473 -0.5985
 5927SOL    HW119458   7.686   2.028   5.495  0.0131 -0.0904 -1.4565
 5927SOL    HW219459   7.803   2.038   5.590 -1.4844  0.0333  0.4059
 5928SOL     OW19460   8.184   1.058   8.277  0.5192  0.0612 -0.5070
 5928SOL    HW119461   8.182   1.033   8.185 -0.1407  2.9296 -1.3444
 5928SOL    HW219462   8.276   1.049   8.302  0.6930 -0.8128 -1.4374
 5929SOL     OW19463   4.025   6.657   9.160 -0.8207 -0.1952 -0.1246
 5929SOL    HW119464   3.961   6.728   9.155  0.1504  0.6077 -1.0456
 5929SOL    HW219465   4.074   6.662   9.079  0.3811 -0.8664  0.5515
 5930SOL     OW19466   9.262   5.130   8.930 -0.1926  0.1566 -0.0743
 5930SOL    HW119467   9.230   5.071   8.999  1.4891 -1.0839 -0.3174
 5930SOL    HW219468   9.221   5.214   8.950 -1.0567 -0.5994  1.4628
 5931SOL     OW19469   6.005   2.952   1.867  0.2146  0.4268 -0.8005
 5931SOL    HW119470   6.028   2.905   1.947 -0.9221 -2.9466 -2.3718
 5931SOL    HW219471   5.910   2.944   1.862  0.2346  1.0784 -2.2165
 5932SOL     OW19472   2.698   0.513   5.376  0.1955 -0.4210  0.3370
 5932SOL    HW119473   2.604   0.509   5.361  0.2750  0.8411 -0.5962
 5932SOL    HW219474   2.733   0.434   5.334 -0.4519 -0.9663  0.8136
 5933SOL     OW19475   4.035   0.603   7.968 -0.0396 -0.3355 -0.4050
 5933SOL    HW119476   4.055   0.664   7.896  0.4179  0.3560  0.3075
 5933SOL    HW219477   4.100   0.622   8.035  0.2294 -1.7590 -0.2467
 5934SOL     OW19478   1.242   7.680   4.486 -0.4128 -0.4188 -0.5276
 5934SOL    HW119479   1.258   7.707   4.395 -0.8199 -0.1839 -0.5312
 5934SOL    HW219480   1.257   7.758   4.538 -1.9096 -0.0839 -0.5705
 5935SOL     OW19481   3.784   4.630   8.535 -0.1137 -0.3300  0.5858
 5935SOL    HW119482   3.731   4.614   8.457 -2.2185  0.5572  1.8064
 5935SOL    HW219483   3.844   4.700   8.510  0.2342 -1.0595 -0.6782
 5936SOL     OW19484   2.805   6.287   6.023  0.3179  0.0368 -0.0881
 5936SOL    HW119485   2.853   6.243   6.093  1.9998  1.2329 -0.4830
 5936SOL    HW219486   2.853   6.266   5.943 -0.6083  0.1182 -0.6790
 5937SOL     OW19487   5.685   6.518   8.185 -0.0854  0.3367  0.3382
 5937SOL    HW119488   5.712   6.456   8.118  0.5285  1.2108 -0.2400
 5937SOL    HW219489   5.661   6.597   8.137 -0.9592  0.5114  1.0527
 5938SOL     OW19490   5.128   0.383   1.863 -0.2847  0.3308  0.9199
 5938SOL    HW119491   5.036   0.394   1.838  0.1723 -0.3773 -1.1685
 5938SOL    HW219492   5.127   0.380   1.959 -2.3618  0.9179  0.9361
 5939SOL     OW19493   8.027   1.042   1.049 -0.2393  0.0802 -0.2260
 5939SOL    HW119494   8.076   1.122   1.031  0.5639 -0.1841  0.7293
 5939SOL    HW219495   8.093   0.978   1.072 -0.8612 -0.9280 -1.1779
 5940SOL     OW19496   0.951   7.161   7.635  0.0719  0.6784  0.0928
 5940SOL    HW119497   0.946   7.232   7.699  0.1387 -0.8783  1.8284
 5940SOL    HW219498   1.044   7.149   7.618  0.0190  1.7394 -1.0664
 5941SOL     OW19499   7.009   8.477   4.131 -0.4486 -0.2017 -0.1654
 5941SOL    HW119500   6.921   8.499   4.163 -1.0118 -0.1923 -1.6937
 5941SOL    HW219501   7.024   8.535   4.057  1.2148  0.3965  0.6137
 5942SOL     OW19502   8.652   8.008   7.182 -0.1136  0.4293 -0.5776
 5942SOL    HW119503   8.594   7.941   7.146  0.0198 -0.4026  0.7098
 5942SOL    HW219504   8.649   8.080   7.118 -1.1835 -0.3146 -1.3839
 5943SOL     OW19505   3.975   6.973   5.788 -0.4843 -0.0441 -0.0432
 5943SOL    HW119506   3.889   7.007   5.812  0.5700  1.2765  2.0418
 5943SOL    HW219507   4.027   7.051   5.767  1.7531 -0.2906  4.0625
 5944SOL     OW19508   4.079   0.695   2.939 -0.4643  0.2813  0.6467
 5944SOL    HW119509   4.154   0.745   2.905 -1.8684  1.1639 -1.2404
 5944SOL    HW219510   4.036   0.755   3.000 -0.0197  0.0166  1.2224
 5945SOL     OW19511   0.208   2.556   3.708 -0.1076 -0.3060 -0.4273
 5945SOL    HW119512   0.128   2.538   3.658 -0.5165 -0.5124  0.2950
 5945SOL    HW219513   0.265   2.600   3.646 -0.7169 -0.3156 -1.0049
 5946SOL     OW19514   9.286   4.798   1.469 -0.6743  0.0202  0.4470
 5946SOL    HW119515   9.256   4.869   1.412 -0.4241  0.3785  0.7638
 5946SOL    HW219516   9.286   4.721   1.413 -2.4635 -0.0432  0.5051
 5947SOL     OW19517   3.616   7.510   0.591 -0.1594  0.6103  0.2869
 5947SOL    HW119518   3.642   7.489   0.502 -1.7239  2.4087 -0.6323
 5947SOL    HW219519   3.682   7.573   0.621  0.3936 -0.0301  0.4256
 5948SOL     OW19520   2.419   1.153   6.005  0.4013 -0.3112 -0.9172
 5948SOL    HW119521   2.456   1.090   6.068 -2.7059 -1.8387 -0.5275
 5948SOL    HW219522   2.471   1.140   5.926  1.2300 -1.8062 -0.1663
 5949SOL     OW19523   0.672   1.769   7.798  0.1043 -0.5640 -0.4457
 5949SOL    HW119524   0.582   1.772   7.765  0.2518 -1.6779 -0.9887
 5949SOL    HW219525   0.685   1.677   7.824  0.4533 -0.0114  1.4321
 5950SOL     OW19526   6.327   1.338   0.099 -0.3192 -0.0573  0.0072
 5950SOL    HW119527   6.272   1.396   0.151 -2.9367 -1.7294 -0.7970
 5950SOL    HW219528   6.399   1.393   0.069 -1.0764  1.9736  1.7955
 5951SOL     OW19529   1.885   7.467   3.483  1.0398  0.0457  0.5625
 5951SOL    HW119530   1.848   7.546   3.442  0.0188  0.1152  1.6127
 5951SOL    HW219531   1.843   7.394   3.437  1.3311  0.1178  0.1824
 5952SOL     OW19532   7.229   6.071   7.708  0.2381 -0.4917 -0.0851
 5952SOL    HW119533   7.233   6.167   7.708  1.2094 -0.5276 -0.0339
 5952SOL    HW219534   7.288   6.045   7.638  0.2153 -1.0616  0.1104
 5953SOL     OW19535   4.999   1.178   4.798 -0.9041 -0.0786  0.6324
 5953SOL    HW119536   5.004   1.260   4.848 -1.0268  0.3434 -0.0385
 5953SOL    HW219537   4.905   1.163   4.787 -0.8702  0.2515 -0.1468
 5954SOL     OW19538   3.946   1.070   1.294 -0.0994 -0.0720  0.0214
 5954SOL    HW119539   3.948   1.073   1.390 -0.3187 -0.2965  0.0332
 5954SOL    HW219540   3.920   1.159   1.268  1.5976  0.4710  0.1138
 5955SOL     OW19541   0.681   8.071   3.602 -0.2097 -0.6613 -0.1252
 5955SOL    HW119542   0.670   8.162   3.630  2.9094 -0.0242 -0.7757
 5955SOL    HW219543   0.642   8.069   3.514 -1.2500 -0.2141  0.3258
 5956SOL     OW19544   6.580   7.891   1.485  0.1634  0.5442  0.4188
 5956SOL    HW119545   6.496   7.870   1.444 -0.2175 -0.2679  1.5736
 5956SOL    HW219546   6.645   7.852   1.428 -0.2878  0.5381 -0.0971
 5957SOL     OW19547   0.030   7.731   1.852 -0.2114 -0.0492 -0.0169
 5957SOL    HW119548  -0.065   7.740   1.855 -0.3000 -1.3567  1.4538
 5957SOL    HW219549   0.052   7.678   1.928  1.6748 -0.0117 -0.5087
 5958SOL     OW19550   2.665   0.607   5.033 -0.0562 -0.0038 -0.3723
 5958SOL    HW119551   2.742   0.628   5.086  0.2031 -1.2250 -0.2553
 5958SOL    HW219552   2.684   0.648   4.948  2.2102 -2.9175 -1.3673
 5959SOL     OW19553   4.405   7.558   4.815  0.3538  0.2837  0.8973
 5959SOL    HW119554   4.371   7.647   4.819 -1.8515 -0.4366 -0.9083
 5959SOL    HW219555   4.376   7.525   4.730  3.0921 -1.4013  0.5625
 5960SOL     OW19556   1.760   6.279   1.085  0.1008 -0.0092 -0.2541
 5960SOL    HW119557   1.824   6.265   1.015 -1.1884 -0.9333 -1.2989
 5960SOL    HW219558   1.798   6.347   1.140  2.4559 -1.3158 -0.2291
 5961SOL     OW19559   4.225   1.344   2.540  0.4911  0.3388 -0.3912
 5961SOL    HW119560   4.296   1.282   2.525  0.9871  0.6551  0.5609
 5961SOL    HW219561   4.195   1.325   2.629 -0.5894  0.2382 -0.7681
 5962SOL     OW19562   4.188   0.707   5.626  0.3152  0.2252 -0.0128
 5962SOL    HW119563   4.106   0.659   5.620  1.1851 -1.3273  0.0753
 5962SOL    HW219564   4.201   0.744   5.539  0.8928 -1.8640 -0.8364
 5963SOL     OW19565   0.025   7.786   1.321 -0.0810 -0.3781 -0.1442
 5963SOL    HW119566   0.076   7.818   1.247 -1.7667 -0.1115 -1.1930
 5963SOL    HW219567   0.068   7.704   1.345 -1.2429 -1.9812 -3.2821
 5964SOL     OW19568   2.081   0.115   4.449  0.6226 -0.0172 -0.2970
 5964SOL    HW119569   2.020   0.185   4.429  0.3933 -0.3609 -0.8084
 5964SOL    HW219570   2.165   0.144   4.412  0.3490 -0.3585 -1.1950
 5965SOL     OW19571   2.238   8.889   1.329 -0.1404 -0.2034 -0.4628
 5965SOL    HW119572   2.260   8.846   1.247 -0.0757 -1.4613  0.1944
 5965SOL    HW219573   2.314   8.872   1.386 -1.6382 -2.3561  0.9820
 5966SOL     OW19574   4.869   6.423   7.121  0.0296 -0.0803 -0.4108
 5966SOL    HW119575   4.961   6.447   7.107 -0.3878  1.1851 -0.9693
 5966SOL    HW219576   4.832   6.418   7.033  0.0590 -2.6202 -0.3191
 5967SOL     OW19577   3.708   3.966   6.534 -0.5008  0.0961 -0.2334
 5967SOL    HW119578   3.686   3.902   6.601 -1.4632 -0.8527 -1.4354
 5967SOL    HW219579   3.753   3.916   6.466 -0.3961  0.8718 -0.7446
 5968SOL     OW19580   7.033   2.937   1.533  0.0700  0.0607 -0.0724
 5968SOL    HW119581   7.128   2.947   1.527 -0.3240  3.7838 -1.2196
 5968SOL    HW219582   7.001   2.963   1.447 -2.1642  1.7143  1.2061
 5969SOL     OW19583   5.268   4.948   4.077 -0.0852 -0.3817 -0.0823
 5969SOL    HW119584   5.343   5.007   4.065  0.2774 -0.6253  0.9674
 5969SOL    HW219585   5.278   4.883   4.007 -0.2525  0.5431 -0.9885
 5970SOL     OW19586   2.538   4.212   1.579  0.3585  0.4653  0.1229
 5970SOL    HW119587   2.621   4.164   1.579 -0.5419 -1.1406  1.5508
 5970SOL    HW219588   2.532   4.251   1.666 -0.1383  1.0539 -0.1653
 5971SOL     OW19589   7.190   3.355   0.147  0.2203  0.0661 -0.2602
 5971SOL    HW119590   7.110   3.387   0.105  0.4521  1.8411  0.6059
 5971SOL    HW219591   7.160   3.311   0.226  0.0334 -0.0480 -0.3954
 5972SOL     OW19592   5.925   3.303   5.281  0.2105 -0.4993  0.3802
 5972SOL    HW119593   5.872   3.274   5.206  1.8177  0.2790 -1.1164
 5972SOL    HW219594   5.963   3.386   5.252  0.9709 -0.2529  2.0319
 5973SOL     OW19595   5.732   1.837   1.685 -0.5049  0.1829 -0.5645
 5973SOL    HW119596   5.787   1.913   1.666  0.3253 -0.4723 -0.8258
 5973SOL    HW219597   5.666   1.838   1.616  0.0023  0.2006 -1.0608
 5974SOL     OW19598   4.941   9.009   6.446 -0.0499  0.0111 -0.8749
 5974SOL    HW119599   4.861   9.032   6.399 -1.1556 -0.6021  0.6536
 5974SOL    HW219600   4.945   8.913   6.441  0.2975  0.0043 -0.4700
 5975SOL     OW19601   8.881   7.190   1.408 -0.3914  0.1697 -0.7000
 5975SOL    HW119602   8.874   7.095   1.399  1.0557 -0.1581  1.1808
 5975SOL    HW219603   8.896   7.204   1.502  0.5606  2.1729 -1.1151
 5976SOL     OW19604   5.607   3.387   5.558 -0.7755 -0.1006 -0.7326
 5976SOL    HW119605   5.661   3.327   5.609 -0.9212 -1.1118 -1.7467
 5976SOL    HW219606   5.625   3.473   5.595  0.4039 -0.6104 -0.0953
 5977SOL     OW19607   6.820   5.459   6.695 -0.2914 -0.0474 -0.3848
 5977SOL    HW119608   6.897   5.489   6.742 -0.6926  0.9103 -0.3426
 5977SOL    HW219609   6.747   5.504   6.737 -0.7764 -0.1833 -1.0799
 5978SOL     OW19610   7.050   3.053   3.207 -0.1774  0.4835  0.0155
 5978SOL    HW119611   7.016   3.090   3.125  0.6361  0.9058 -0.1376
 5978SOL    HW219612   6.985   2.987   3.232 -1.2126  1.4101 -0.1578
 5979SOL     OW19613   6.995   2.536   5.248 -0.3771 -0.0637  0.0960
 5979SOL    HW119614   6.970   2.614   5.298 -1.8180 -0.9224  0.7611
 5979SOL    HW219615   7.066   2.496   5.299 -1.3824 -0.5662  1.1345
 5980SOL     OW19616   6.454   5.209   6.056  0.2091 -0.2654 -0.2856
 5980SOL    HW119617   6.378   5.155   6.034 -0.0501  0.3456 -0.9171
 5980SOL    HW219618   6.448   5.222   6.151  0.1304 -1.1174 -0.1680
 5981SOL     OW19619   6.696   1.382   4.740 -0.4579  0.1046 -0.0113
 5981SOL    HW119620   6.647   1.300   4.736  0.1408 -0.2253 -0.8914
 5981SOL    HW219621   6.634   1.449   4.711 -0.8038 -0.1001  0.2487
 5982SOL     OW19622   4.152   4.844   6.056 -0.3527  0.5074 -0.3483
 5982SOL    HW119623   4.185   4.929   6.087 -1.3175 -0.5028  3.6673
 5982SOL    HW219624   4.057   4.857   6.048 -0.5471 -0.3042  0.6412
 5983SOL     OW19625   5.850   1.031   7.570  0.0546  0.1090  0.1316
 5983SOL    HW119626   5.781   0.998   7.513  0.8461  0.4577 -1.0586
 5983SOL    HW219627   5.818   1.117   7.599 -1.0799 -0.7824  1.5512
 5984SOL     OW19628   6.874   0.458   4.603  0.3393  0.3360 -0.1907
 5984SOL    HW119629   6.920   0.525   4.654 -0.1306  1.4203 -1.1617
 5984SOL    HW219630   6.791   0.499   4.578  0.1536 -0.5184 -1.0210
 5985SOL     OW19631   5.951   1.228   7.299 -0.0243  0.6119 -0.0124
 5985SOL    HW119632   5.876   1.253   7.353 -1.2712  0.6374 -1.7120
 5985SOL    HW219633   5.931   1.139   7.269  0.0085  1.0876 -1.4909
 5986SOL     OW19634   2.827   2.124   0.582 -1.0442 -0.0706  0.5280
 5986SOL    HW119635   2.758   2.188   0.602 -1.8822 -1.3716  1.9048
 5986SOL    HW219636   2.785   2.061   0.523 -0.1525  0.7335 -1.0138
 5987SOL     OW19637   5.398   6.157   6.619  0.0621  0.5482 -0.4440
 5987SOL    HW119638   5.447   6.202   6.550  0.0103  1.9325  0.4049
 5987SOL    HW219639   5.463   6.135   6.685 -0.1336  0.5327 -0.2569
 5988SOL     OW19640   6.819   6.155   2.830  0.3092 -0.4573 -0.0441
 5988SOL    HW119641   6.737   6.156   2.880 -0.9102  0.2105 -2.0434
 5988SOL    HW219642   6.833   6.062   2.810 -0.8810 -0.3934 -1.1984
 5989SOL     OW19643   2.849   1.009   1.243  0.2268 -0.7345  0.0957
 5989SOL    HW119644   2.868   0.918   1.221 -1.9985 -0.8303 -1.6400
 5989SOL    HW219645   2.819   1.007   1.334 -1.0262 -1.9568 -0.3230
 5990SOL     OW19646   2.201   7.271   2.030 -0.3500  0.1180 -0.2479
 5990SOL    HW119647   2.122   7.245   1.984 -1.4427  0.2059  1.5043
 5990SOL    HW219648   2.267   7.207   2.004 -1.9787 -2.1611  1.0327
 5991SOL     OW19649   1.837   5.388   1.637 -0.1467 -0.0288  0.8145
 5991SOL    HW119650   1.797   5.326   1.697  0.6288 -1.3131  0.0194
 5991SOL    HW219651   1.844   5.469   1.687 -3.4096  0.1491  1.0979
 5992SOL     OW19652   3.590   7.045   4.758  0.1078  0.3481  0.1618
 5992SOL    HW119653   3.546   6.963   4.734  0.5899  0.5780 -1.5869
 5992SOL    HW219654   3.587   7.098   4.678  1.4712  1.3002  0.7200
 5993SOL     OW19655   0.155   4.221   5.437 -0.4613  0.0614  0.7072
 5993SOL    HW119656   0.143   4.269   5.518 -1.4205  0.4264  0.3594
 5993SOL    HW219657   0.067   4.192   5.413 -0.2843  0.5212 -0.5398
 5994SOL     OW19658   4.233   8.223   3.064  0.6424  0.3497  0.0977
 5994SOL    HW119659   4.312   8.189   3.021  0.0834 -0.3760 -0.3772
 5994SOL    HW219660   4.212   8.303   3.015  0.0296 -0.4540 -0.9835
 5995SOL     OW19661   1.105   9.202   8.309  0.4123  0.5958 -0.4030
 5995SOL    HW119662   1.113   9.121   8.359 -0.0767  1.2939  0.8501
 5995SOL    HW219663   1.173   9.259   8.346  0.5332  0.8631 -1.0422
 5996SOL     OW19664   8.759   0.513   7.115  0.2521 -0.7497 -0.5899
 5996SOL    HW119665   8.784   0.420   7.113 -0.1463 -0.9169  1.0816
 5996SOL    HW219666   8.828   0.558   7.068  0.6361 -1.8605 -1.1055
 5997SOL     OW19667   0.375   8.208   6.783 -0.5220 -0.2079 -0.0904
 5997SOL    HW119668   0.454   8.219   6.729 -0.3665 -0.5405  0.0691
 5997SOL    HW219669   0.329   8.292   6.774 -0.1733 -0.0245 -0.2210
 5998SOL     OW19670   2.009   5.104   2.519 -0.2869  1.0665 -0.3484
 5998SOL    HW119671   1.976   5.090   2.607 -0.3237  3.8634  0.1097
 5998SOL    HW219672   2.098   5.069   2.520 -0.8790 -0.4458  0.2940
 5999SOL     OW19673   7.326   2.707   7.179 -0.3475  0.0324  0.3039
 5999SOL    HW119674   7.297   2.631   7.129  1.7764 -1.3683  1.1706
 5999SOL    HW219675   7.261   2.775   7.159 -0.6005 -1.0705 -2.8374
 6000SOL     OW19676   1.626   8.154   0.855 -0.0361 -1.1234 -0.2128
 6000SOL    HW119677   1.547   8.181   0.901  0.8850  2.5780 -0.6979
 6000SOL    HW219678   1.595   8.128   0.768 -0.5598  2.3312 -1.1323
 6001SOL     OW19679   3.173   6.400   5.478 -0.1162  0.1070  0.1963
 6001SOL    HW119680   3.097   6.342   5.482 -0.0641 -0.0221 -0.5841
 6001SOL    HW219681   3.249   6.342   5.490 -0.0639  0.0105 -0.5886
 6002SOL     OW19682   5.397   1.462   5.533 -0.3185  0.0185  0.6096
 6002SOL    HW119683   5.481   1.506   5.541 -0.3127  0.3736 -1.2961
 6002SOL    HW219684   5.336   1.519   5.581  0.0906  0.9861 -0.0024
 6003SOL     OW19685   2.710   4.955   3.655  0.2325 -0.4564 -0.1076
 6003SOL    HW119686   2.673   4.868   3.642  0.5336 -0.4370 -1.0903
 6003SOL    HW219687   2.757   4.949   3.739 -1.3467 -0.6859  0.7876
 6004SOL     OW19688   3.433   5.758   6.530  0.1526 -0.5781 -0.7781
 6004SOL    HW119689   3.505   5.723   6.582  0.0691 -0.2483 -0.4341
 6004SOL    HW219690   3.467   5.763   6.441  1.5976  2.3617 -0.1285
 6005SOL     OW19691   2.422   3.854   8.558 -0.1048  0.4224 -0.2429
 6005SOL    HW119692   2.430   3.933   8.505 -0.5482  1.4577  1.1879
 6005SOL    HW219693   2.471   3.874   8.638  0.0630 -0.8815 -0.0109
 6006SOL     OW19694   2.157   6.817   7.001 -0.0946 -0.2258 -0.1241
 6006SOL    HW119695   2.230   6.764   7.032  1.0720  0.5133 -1.5742
 6006SOL    HW219696   2.179   6.906   7.027  0.2148  0.1991 -1.7957
 6007SOL     OW19697   7.490   2.178   4.072  0.1794 -0.0520 -0.5963
 6007SOL    HW119698   7.474   2.214   4.159 -2.3081  1.0190 -1.4494
 6007SOL    HW219699   7.469   2.250   4.012 -2.1499 -2.0112 -2.2257
 6008SOL     OW19700   8.002   5.160   3.263 -0.2030  0.2651 -0.4011
 6008SOL    HW119701   8.047   5.220   3.203  0.7620  0.4514  0.4939
 6008SOL    HW219702   7.980   5.084   3.209  0.1840  0.6550 -1.1168
 6009SOL     OW19703   8.071   0.991   8.780 -0.1989  0.1661  0.0180
 6009SOL    HW119704   8.143   1.054   8.774  0.9590 -1.2892 -2.1553
 6009SOL    HW219705   8.104   0.923   8.838 -0.1619 -0.0709 -0.2810
 6010SOL     OW19706   4.791   3.581   5.201 -0.2997 -0.2476 -0.2923
 6010SOL    HW119707   4.840   3.500   5.210  1.3692  0.6725 -0.9777
 6010SOL    HW219708   4.724   3.576   5.269  0.5822 -1.6291  0.4863
 6011SOL     OW19709   8.013   8.723   5.532  0.3490 -0.5091 -0.3062
 6011SOL    HW119710   8.094   8.672   5.526 -0.5347 -2.0982  0.7484
 6011SOL    HW219711   7.968   8.708   5.449  1.5922  1.2186 -1.3201
 6012SOL     OW19712   4.985   9.013   5.730  0.6653 -0.0653  0.0900
 6012SOL    HW119713   4.960   8.928   5.767  1.1133 -0.2088  0.0725
 6012SOL    HW219714   5.080   9.016   5.740  0.6505  0.4296  0.0708
 6013SOL     OW19715   6.926   4.748   7.165  0.5610  0.0035  0.5785
 6013SOL    HW119716   6.927   4.667   7.115  0.1066 -0.5201  1.3971
 6013SOL    HW219717   6.897   4.815   7.103 -1.7021 -0.9405  0.5714
 6014SOL     OW19718   7.890   8.544   0.916  0.1965 -0.2729 -0.3069
 6014SOL    HW119719   7.876   8.501   1.001 -0.1451  0.2999 -0.0653
 6014SOL    HW219720   7.850   8.485   0.852  1.8467 -1.4701 -0.2396
 6015SOL     OW19721   7.695   3.400   8.089 -0.5428 -0.2918  0.3194
 6015SOL    HW119722   7.738   3.338   8.031  0.7366  0.8446  0.0212
 6015SOL    HW219723   7.629   3.442   8.034 -0.6784 -0.6260  0.2275
 6016SOL     OW19724   1.818   6.313   0.169 -0.0539  0.6209 -0.4042
 6016SOL    HW119725   1.852   6.390   0.215 -0.7588  0.9697 -0.4551
 6016SOL    HW219726   1.895   6.262   0.147  0.3136  0.6067  0.8881
 6017SOL     OW19727   5.355   7.475   1.360 -0.1457  0.5541  0.0330
 6017SOL    HW119728   5.290   7.469   1.430 -0.0494  0.4026  0.1102
 6017SOL    HW219729   5.312   7.525   1.291  0.1690  1.7446  0.6755
 6018SOL     OW19730   1.967   2.792   7.192 -0.3735  0.6243  0.0968
 6018SOL    HW119731   1.879   2.825   7.210 -0.6758 -0.1169 -0.0150
 6018SOL    HW219732   1.976   2.715   7.248 -0.3069 -0.0954 -0.8803
 6019SOL     OW19733   7.202   1.279   6.181 -0.4298 -0.5406  0.4068
 6019SOL    HW119734   7.162   1.328   6.109  0.3986  0.1690  0.4199
 6019SOL    HW219735   7.273   1.231   6.140  0.9334  0.9401  0.9601
 6020SOL     OW19736   4.029   5.054   7.685 -0.2987 -0.6634 -0.4550
 6020SOL    HW119737   4.018   5.145   7.658  0.3682 -0.9830 -1.8952
 6020SOL    HW219738   4.118   5.051   7.720  0.7723 -1.3423 -3.0860
 6021SOL     OW19739   6.073   5.124   4.155 -0.2663 -0.4194  0.2162
 6021SOL    HW119740   6.073   5.208   4.201 -1.4999 -0.5423  0.4544
 6021SOL    HW219741   6.034   5.063   4.218  0.9274 -1.2412  0.1695
 6022SOL     OW19742   6.596   5.644   3.191 -0.7963 -0.7596 -0.1588
 6022SOL    HW119743   6.638   5.594   3.261 -0.2826 -0.1861 -0.0548
 6022SOL    HW219744   6.659   5.642   3.118 -0.1007  0.9903  0.3605
 6023SOL     OW19745   3.429   5.513   3.824 -0.4848  0.5338  0.0700
 6023SOL    HW119746   3.347   5.502   3.777 -0.5486  1.2713  0.0049
 6023SOL    HW219747   3.406   5.498   3.916 -0.1545 -1.9927 -0.2061
 6024SOL     OW19748   9.173   3.548   8.545  0.0046  0.5099  0.0079
 6024SOL    HW119749   9.132   3.524   8.462  1.2048  0.2391 -0.5067
 6024SOL    HW219750   9.265   3.560   8.525  0.0840  1.7448  1.0476
 6025SOL     OW19751   0.819   2.851   7.911  0.2684  0.3339  0.3591
 6025SOL    HW119752   0.755   2.782   7.895 -0.7595  1.1640  0.8019
 6025SOL    HW219753   0.875   2.851   7.833 -2.0687  1.5202 -1.4014
 6026SOL     OW19754   2.648   3.220   8.683  0.2453  0.2071  0.5870
 6026SOL    HW119755   2.601   3.231   8.600  1.6177  0.3744 -0.1859
 6026SOL    HW219756   2.740   3.221   8.659  0.6398 -2.2282  1.8228
 6027SOL     OW19757   3.969   0.384   8.682  0.7406  0.4055 -0.3105
 6027SOL    HW119758   3.975   0.288   8.684  0.3807  0.3716 -0.8675
 6027SOL    HW219759   3.922   0.406   8.763  0.0337  0.0502 -0.6205
 6028SOL     OW19760   0.278   1.519   6.621 -0.2141  0.1597 -0.1357
 6028SOL    HW119761   0.323   1.493   6.540 -1.6717  0.5458 -1.0848
 6028SOL    HW219762   0.211   1.453   6.634 -0.0643  0.1680  0.7096
 6029SOL     OW19763   1.552   2.608   6.298  0.0329  0.1650  0.1106
 6029SOL    HW119764   1.571   2.641   6.386  1.4542 -0.4704  0.0638
 6029SOL    HW219765   1.597   2.669   6.239 -1.1530  0.7538 -0.2039
 6030SOL     OW19766   8.436   6.933   2.237  0.0792 -0.2503 -0.4463
 6030SOL    HW119767   8.377   6.940   2.312  2.4253 -2.1805  1.6892
 6030SOL    HW219768   8.400   6.862   2.184  0.6873 -1.7047  1.0608
 6031SOL     OW19769   3.125   8.002   4.013  0.2972 -0.0912  0.3996
 6031SOL    HW119770   3.154   8.087   3.980 -0.1582 -0.9694 -2.4477
 6031SOL    HW219771   3.030   8.012   4.025 -0.0068 -0.6259 -1.4277
 6032SOL     OW19772   1.900   5.235   1.295 -0.4046  0.1124  0.4588
 6032SOL    HW119773   1.865   5.167   1.353  0.7709 -1.4827 -0.6614
 6032SOL    HW219774   1.976   5.269   1.342 -0.6966  0.3090  0.7946
 6033SOL     OW19775   7.879   5.885   6.978  0.0909  0.1659 -0.1985
 6033SOL    HW119776   7.791   5.896   7.015 -0.8263 -1.6357 -1.7195
 6033SOL    HW219777   7.868   5.908   6.885  1.7002  1.8697  0.0167
 6034SOL     OW19778   7.405   1.282   0.515 -0.2338 -0.0212  0.2366
 6034SOL    HW119779   7.321   1.243   0.494 -0.8047  1.5663 -0.5387
 6034SOL    HW219780   7.429   1.333   0.438  0.4511  1.1812  1.2100
 6035SOL     OW19781   5.244   3.241   3.768 -0.2370  0.0317 -0.3837
 6035SOL    HW119782   5.209   3.274   3.685 -1.7324 -0.0517  0.1969
 6035SOL    HW219783   5.172   3.191   3.807  0.5915 -0.3102  0.7602
 6036SOL     OW19784   9.098   3.643   7.482 -0.1530  0.3209  0.1838
 6036SOL    HW119785   9.106   3.576   7.414  0.0137  1.5541 -1.0231
 6036SOL    HW219786   9.173   3.627   7.540  0.4534  0.0868 -0.6547
 6037SOL     OW19787   9.217   5.711   4.204 -0.6064 -0.4934 -0.4603
 6037SOL    HW119788   9.274   5.670   4.139 -0.4921 -0.6296 -0.2767
 6037SOL    HW219789   9.266   5.704   4.287  0.1554  1.5355 -0.7159
 6038SOL     OW19790   2.191   9.062   3.951  0.2159  0.1521  0.2477
 6038SOL    HW119791   2.276   9.092   3.917  0.3393 -1.1966 -0.6836
 6038SOL    HW219792   2.133   9.067   3.876 -0.7363  1.7829  1.0690
 6039SOL     OW19793   9.184   8.773   4.468  0.0718 -0.0863  0.3997
 6039SOL    HW119794   9.275   8.797   4.455 -0.0651  0.9913  1.3384
 6039SOL    HW219795   9.139   8.856   4.483 -0.4618 -0.8905  3.4951
 6040SOL     OW19796   4.268   4.862   1.773  0.3257 -0.5903 -0.0298
 6040SOL    HW119797   4.233   4.773   1.762  0.3546 -0.5754 -0.2234
 6040SOL    HW219798   4.200   4.919   1.737  0.5848 -0.5658 -0.4746
 6041SOL     OW19799   1.991   4.610   6.161  0.0232  0.0445  0.2110
 6041SOL    HW119800   1.958   4.556   6.232 -0.7663 -1.0097 -0.9318
 6041SOL    HW219801   1.916   4.661   6.132 -0.4888 -1.7779 -1.8643
 6042SOL     OW19802   4.039   9.266   1.482 -0.1000 -0.1361 -0.4629
 6042SOL    HW119803   4.060   9.239   1.392 -0.1472  2.1084 -1.1650
 6042SOL    HW219804   4.060   9.359   1.484 -1.5935  0.1647  1.4162
 6043SOL     OW19805   4.689   2.066   2.750  0.2290 -0.1919  0.0844
 6043SOL    HW119806   4.668   1.974   2.736  0.4405  0.0560 -1.9892
 6043SOL    HW219807   4.767   2.064   2.805  1.2897 -1.3061 -1.4096
 6044SOL     OW19808   6.945   8.719   3.988 -0.1884 -0.3809  0.0278
 6044SOL    HW119809   6.861   8.766   3.994  0.5591  0.8945  0.9292
 6044SOL    HW219810   6.947   8.685   3.899 -0.8948  1.0848 -0.5740
 6045SOL     OW19811   4.797   6.119   2.220 -0.6623 -0.1960 -0.1524
 6045SOL    HW119812   4.869   6.181   2.218 -0.9963  0.2242  0.6767
 6045SOL    HW219813   4.827   6.045   2.167  0.7137 -0.4027  0.8926
 6046SOL     OW19814   1.550   5.388   8.131  0.4794  0.0292  0.0004
 6046SOL    HW119815   1.598   5.330   8.071  1.1194 -0.1142  0.6499
 6046SOL    HW219816   1.540   5.337   8.211 -1.2964 -0.1673 -0.3272
 6047SOL     OW19817   2.099   4.196   3.719  0.1694  0.5537  0.2143
 6047SOL    HW119818   2.117   4.222   3.809 -1.6032  0.6102  0.5718
 6047SOL    HW219819   2.032   4.127   3.727  0.9578 -0.3751 -0.9848
 6048SOL     OW19820   2.646   2.967   4.671 -0.1375  0.1658  0.5967
 6048SOL    HW119821   2.588   2.928   4.605 -1.2989 -0.2046  1.8090
 6048SOL    HW219822   2.666   2.894   4.730  0.9593  0.4762  0.6098
 6049SOL     OW19823   1.467   8.542   7.624 -0.3251  0.3573  0.8576
 6049SOL    HW119824   1.396   8.542   7.689  0.1619  0.2832  1.4006
 6049SOL    HW219825   1.430   8.499   7.547 -0.1409 -1.8750  1.9664
 6050SOL     OW19826   8.886   1.355   8.651 -0.0731  0.1679 -0.3137
 6050SOL    HW119827   8.936   1.432   8.679  0.0109  0.3106 -0.8443
 6050SOL    HW219828   8.951   1.286   8.640 -0.1577 -0.0022  0.2417
 6051SOL     OW19829   5.244   5.458   3.966  0.4902 -0.0021 -0.0165
 6051SOL    HW119830   5.321   5.450   4.021  0.4829  0.1396  0.0163
 6051SOL    HW219831   5.247   5.548   3.933  0.1202  0.1354  0.3148
 6052SOL     OW19832   4.253   5.400   1.476 -0.1176 -0.5898 -0.0128
 6052SOL    HW119833   4.166   5.366   1.496  0.1523 -1.0003  0.4878
 6052SOL    HW219834   4.300   5.393   1.559  0.0026  0.8103  0.0422
 6053SOL     OW19835   8.543   6.121   1.645 -0.3542 -0.1216  0.5537
 6053SOL    HW119836   8.580   6.125   1.557  0.3026  1.3145  0.8903
 6053SOL    HW219837   8.546   6.211   1.677  1.2032 -0.9236  2.7796
 6054SOL     OW19838   7.052   2.082   1.332  0.0419 -0.5879  0.0908
 6054SOL    HW119839   7.101   2.130   1.265  1.5574  0.0642  1.6167
 6054SOL    HW219840   7.041   2.145   1.403 -1.1119 -1.4243  0.6669
 6055SOL     OW19841   6.391   7.336   5.149 -0.1001 -0.1734  0.0721
 6055SOL    HW119842   6.361   7.391   5.076  0.3976  0.0318  0.0216
 6055SOL    HW219843   6.344   7.253   5.137  2.0297 -1.1434 -2.1065
 6056SOL     OW19844   0.815   2.362   3.745  0.2008 -0.6565  0.1222
 6056SOL    HW119845   0.767   2.408   3.676  0.1306 -0.1737  0.4949
 6056SOL    HW219846   0.775   2.275   3.748  0.2187 -0.6872 -0.4609
 6057SOL     OW19847   1.376   8.500   5.386  0.1548  0.0641 -0.4807
 6057SOL    HW119848   1.456   8.447   5.389 -0.6474 -1.0873  1.5055
 6057SOL    HW219849   1.408   8.590   5.375  1.7360 -0.3459  0.5115
 6058SOL     OW19850   5.635   6.595   7.161  0.0508  0.7874  0.0863
 6058SOL    HW119851   5.655   6.502   7.148  0.1470  0.6954  0.8973
 6058SOL    HW219852   5.709   6.641   7.121  0.1925  0.5069  0.0289
 6059SOL     OW19853   2.540   3.035   1.833  0.0154 -0.0194  0.0795
 6059SOL    HW119854   2.567   3.046   1.924 -2.1515  1.1047  0.6218
 6059SOL    HW219855   2.598   3.092   1.783  1.3201 -0.7671  0.7311
 6060SOL     OW19856   3.556   0.554   3.782 -0.3408  0.2893 -0.2928
 6060SOL    HW119857   3.563   0.461   3.802 -0.4459  0.5189  0.8726
 6060SOL    HW219858   3.647   0.586   3.782 -0.4062  0.5210  1.0504
 6061SOL     OW19859   7.200   3.022   8.531  0.0472 -0.5827 -0.2442
 6061SOL    HW119860   7.274   3.064   8.487  0.0622 -0.1464  0.2014
 6061SOL    HW219861   7.230   3.006   8.620  0.2330 -2.0197 -0.5458
 6062SOL     OW19862   6.495   7.044   0.884  0.0260  0.0542  0.2889
 6062SOL    HW119863   6.526   7.023   0.796 -1.0392 -0.4466  0.0243
 6062SOL    HW219864   6.418   6.989   0.896 -1.1622  1.7720  0.6755
 6063SOL     OW19865   6.370   6.673   6.932  0.5124 -0.0628 -0.7167
 6063SOL    HW119866   6.358   6.586   6.968 -1.6835  0.6318  0.3429
 6063SOL    HW219867   6.355   6.664   6.838 -0.4317 -0.7073 -0.5053
 6064SOL     OW19868   5.699   4.488   8.646  0.1316  0.2690 -0.0373
 6064SOL    HW119869   5.683   4.414   8.706  1.6103 -0.1971 -0.2023
 6064SOL    HW219870   5.612   4.510   8.612 -0.4411 -0.8302  0.6703
 6065SOL     OW19871   5.595   8.574   5.877 -0.1510 -0.5614  0.1296
 6065SOL    HW119872   5.691   8.583   5.878 -0.1668 -0.5336  1.3630
 6065SOL    HW219873   5.579   8.483   5.898 -0.3797 -0.7462 -0.8272
 6066SOL     OW19874   4.659   2.178   9.200  0.5529 -0.4723 -0.0174
 6066SOL    HW119875   4.659   2.121   9.277 -1.0869  0.1079  0.4419
 6066SOL    HW219876   4.750   2.208   9.193  0.8051 -0.8073  1.5003
 6067SOL     OW19877   2.688   8.039   2.627  0.4265  0.0142 -0.3823
 6067SOL    HW119878   2.696   7.997   2.712 -0.5212 -0.1879 -0.3925
 6067SOL    HW219879   2.608   8.003   2.589  0.5063  0.5690 -1.0986
 6068SOL     OW19880   7.762   1.272   1.612  0.1047  0.1062 -0.8052
 6068SOL    HW119881   7.746   1.196   1.667 -0.6129 -0.1237 -1.3153
 6068SOL    HW219882   7.838   1.315   1.651  0.7436 -1.0744 -0.7341
 6069SOL     OW19883   1.074   4.129   8.432 -0.1656  0.0972 -0.0821
 6069SOL    HW119884   1.118   4.045   8.447 -0.2064 -0.2939 -2.0368
 6069SOL    HW219885   0.982   4.112   8.454 -0.0315 -0.1453  0.2924
 6070SOL     OW19886   0.951   3.986   4.594 -0.5712 -0.1381 -0.2103
 6070SOL    HW119887   0.919   4.046   4.662 -0.2829 -0.3429  0.1099
 6070SOL    HW219888   1.013   3.929   4.640 -1.5949 -1.3377 -0.3019
 6071SOL     OW19889   3.645   0.448   5.886  0.1292  0.3684  0.3926
 6071SOL    HW119890   3.582   0.497   5.832  0.3395 -1.0684 -1.1770
 6071SOL    HW219891   3.730   0.485   5.863  0.3601 -1.1418 -1.3012
 6072SOL     OW19892   7.932   9.166   2.665  0.6614  0.7855  0.1271
 6072SOL    HW119893   7.994   9.185   2.736  0.4064  0.2716  0.4930
 6072SOL    HW219894   7.897   9.079   2.687  0.0974  0.9087 -0.2849
 6073SOL     OW19895   3.561   1.219   2.843 -0.2100 -0.0850  0.0895
 6073SOL    HW119896   3.634   1.278   2.824 -1.1446  1.5351  1.4144
 6073SOL    HW219897   3.565   1.207   2.938 -0.8353 -1.0873 -0.0137
 6074SOL     OW19898   7.522   6.456   2.840  0.1279 -0.2576  0.1895
 6074SOL    HW119899   7.541   6.385   2.901 -1.2876 -1.3018 -0.5510
 6074SOL    HW219900   7.431   6.479   2.857 -0.9355 -1.9346 -2.8324
 6075SOL     OW19901   2.505   6.941   0.682  0.0886  0.4513 -0.6194
 6075SOL    HW119902   2.510   7.002   0.609 -0.7704  1.9540  0.5570
 6075SOL    HW219903   2.573   6.969   0.742 -0.6077  0.5315  0.1336
 6076SOL     OW19904   6.080   8.293   6.422  0.1114  0.2671  0.3320
 6076SOL    HW119905   6.111   8.203   6.412  2.6578  1.1655 -0.2642
 6076SOL    HW219906   6.052   8.298   6.513  0.4580 -0.9741  0.5240
 6077SOL     OW19907   2.491   2.769   0.447  0.1084 -0.1985  0.5110
 6077SOL    HW119908   2.556   2.822   0.493  1.7060 -2.7471  1.3041
 6077SOL    HW219909   2.429   2.742   0.516 -0.6281  0.5214  0.1364
 6078SOL     OW19910   8.781   2.905   5.482  0.2037  0.1477  0.1534
 6078SOL    HW119911   8.758   2.998   5.477 -2.0980 -0.4711 -1.9139
 6078SOL    HW219912   8.871   2.901   5.450  0.6812  1.7818  1.2508
 6079SOL     OW19913   2.568   6.134   8.866  0.3022 -0.1936 -0.3185
 6079SOL    HW119914   2.497   6.082   8.828 -0.2911  0.4908 -0.1632
 6079SOL    HW219915   2.608   6.177   8.790 -0.8491  1.1307 -0.1929
 6080SOL     OW19916   3.639   3.870   1.691  0.3937 -0.4818  0.6734
 6080SOL    HW119917   3.732   3.881   1.674  0.9093 -2.2689  2.1838
 6080SOL    HW219918   3.634   3.838   1.781 -1.6869 -0.3150  0.6516
 6081SOL     OW19919   4.685   4.170   2.965 -1.4906  0.0449  0.4826
 6081SOL    HW119920   4.634   4.207   2.893 -3.3037  0.8969  2.1524
 6081SOL    HW219921   4.645   4.085   2.982 -2.4004  0.7140  1.7929
 6082SOL     OW19922   6.167   0.916   0.697  0.0263  0.2129  0.0924
 6082SOL    HW119923   6.203   0.863   0.625 -0.1263  0.3912 -0.1155
 6082SOL    HW219924   6.203   1.004   0.682  0.9465 -0.0133  0.9087
 6083SOL     OW19925   6.493   8.164   7.765  0.0499 -0.2053  0.2229
 6083SOL    HW119926   6.412   8.182   7.813 -0.1971 -0.7399  0.0209
 6083SOL    HW219927   6.463   8.137   7.678  0.5736  3.9058 -1.3086
 6084SOL     OW19928   1.083   1.089   8.590 -0.1826 -0.0758  0.8723
 6084SOL    HW119929   1.094   0.994   8.586 -1.1625 -0.2284  1.6720
 6084SOL    HW219930   1.137   1.116   8.665  0.9623  0.1409 -0.0152
 6085SOL     OW19931   6.412   4.676   6.537  0.8002 -0.0453  0.0788
 6085SOL    HW119932   6.363   4.641   6.612 -2.7963  0.5831 -1.8699
 6085SOL    HW219933   6.446   4.760   6.569  0.1071 -0.2205  1.3283
 6086SOL     OW19934   8.817   4.283   3.219 -0.9947 -0.0021  0.5994
 6086SOL    HW119935   8.780   4.329   3.295 -2.5146  0.5563 -0.4703
 6086SOL    HW219936   8.780   4.195   3.224  0.2234 -0.4898  1.4239
 6087SOL     OW19937   6.951   8.950   4.927 -0.2514 -0.5584  0.7056
 6087SOL    HW119938   6.866   8.985   4.899  0.1502 -0.8097 -0.8216
 6087SOL    HW219939   7.008   8.958   4.851  1.6842  1.4237  2.2768
 6088SOL     OW19940   7.434   2.125   0.844  0.0149 -0.1082 -0.2317
 6088SOL    HW119941   7.416   2.119   0.750 -0.5902 -0.5335 -0.0929
 6088SOL    HW219942   7.361   2.079   0.885  0.1046  0.3602  0.4621
 6089SOL     OW19943   0.294   7.803   7.357  0.4962 -0.0135 -0.3187
 6089SOL    HW119944   0.274   7.847   7.274 -2.0386 -0.1092  0.1995
 6089SOL    HW219945   0.309   7.712   7.333  2.2634  0.4456 -0.9756
 6090SOL     OW19946   1.447   7.788   2.561 -0.1636  0.0532 -0.0253
 6090SOL    HW119947   1.482   7.866   2.603  0.1000 -1.7438  3.2081
 6090SOL    HW219948   1.409   7.820   2.479 -0.9336  3.7139  1.6850
 6091SOL     OW19949   3.721   4.979   0.573  0.2963 -0.0538 -0.3924
 6091SOL    HW119950   3.699   4.894   0.535  1.6348  0.3682 -2.1605
 6091SOL    HW219951   3.671   4.982   0.655 -2.0480 -1.3296 -1.7052
 6092SOL     OW19952   0.742   5.066   3.094  0.9640 -0.3199  0.0337
 6092SOL    HW119953   0.721   4.979   3.060 -1.8077  0.8465 -1.4202
 6092SOL    HW219954   0.715   5.063   3.185 -0.5935 -0.5332 -0.4185
 6093SOL     OW19955   3.998   3.846   1.316  0.4021  0.5397  0.4207
 6093SOL    HW119956   4.065   3.825   1.250  0.5442 -0.9399  1.0065
 6093SOL    HW219957   4.026   3.798   1.393 -1.1398  0.2314  0.7967
 6094SOL     OW19958   8.267   0.094   8.897  0.7312 -0.1619 -0.1158
 6094SOL    HW119959   8.340   0.054   8.944  1.1630 -0.6476 -1.1785
 6094SOL    HW219960   8.308   0.133   8.820 -0.0500  0.0670 -0.4109
 6095SOL     OW19961   4.122   2.981   4.067  0.1415 -0.0110 -0.2646
 6095SOL    HW119962   4.108   3.043   4.138  2.2787 -0.0635  0.2474
 6095SOL    HW219963   4.080   2.900   4.097 -1.9299  0.9133 -0.5791
 6096SOL     OW19964   2.583   0.065   4.279  0.4623 -0.0279 -0.0724
 6096SOL    HW119965   2.518   0.014   4.230 -1.1024  1.4884  0.3853
 6096SOL    HW219966   2.664   0.014   4.271 -0.1424 -0.6626 -2.8135
 6097SOL     OW19967   3.929   5.873   2.216  0.1504  0.3680 -0.1971
 6097SOL    HW119968   3.856   5.904   2.269 -1.3925  1.2504 -2.7326
 6097SOL    HW219969   3.897   5.791   2.178  1.5002 -0.6266  0.8064
 6098SOL     OW19970   7.860   2.650   7.054  0.4316  0.5593  0.3033
 6098SOL    HW119971   7.925   2.606   6.999  0.7996  0.9345  0.4343
 6098SOL    HW219972   7.910   2.686   7.127  0.2150  1.6586 -0.0838
 6099SOL     OW19973   2.806   0.708   6.405  0.5863 -0.6058  0.2286
 6099SOL    HW119974   2.736   0.724   6.342  0.5306  0.1038  0.4717
 6099SOL    HW219975   2.787   0.766   6.479  0.3472 -1.8353  1.1471
 6100SOL     OW19976   6.791   7.245   3.529 -0.1595 -0.3168 -0.9500
 6100SOL    HW119977   6.846   7.249   3.607  0.8769 -1.7986 -1.5833
 6100SOL    HW219978   6.804   7.330   3.487 -0.9473  0.5949  0.6139
 6101SOL     OW19979   1.992   5.275   3.050 -0.3659  0.7157 -0.1898
 6101SOL    HW119980   1.969   5.267   2.958 -0.6591  1.9044 -0.2360
 6101SOL    HW219981   2.088   5.280   3.050 -0.0616 -3.7720 -0.0289
 6102SOL     OW19982   0.153   5.936   6.396  0.0097 -0.3621  0.0467
 6102SOL    HW119983   0.136   5.845   6.370 -1.3255 -0.6675  1.8344
 6102SOL    HW219984   0.226   5.930   6.457 -0.3988 -0.3237  0.5513
 6103SOL     OW19985   2.298   0.215   2.865  0.1167 -0.7069  0.2190
 6103SOL    HW119986   2.237   0.281   2.832 -0.1498 -0.4846  1.1468
 6103SOL    HW219987   2.265   0.133   2.829  0.9730 -0.2436 -1.6817
 6104SOL     OW19988   7.279   1.243   1.894 -0.6614  0.3740 -0.0659
 6104SOL    HW119989   7.296   1.165   1.946  2.2516  0.4693 -0.8184
 6104SOL    HW219990   7.252   1.309   1.958  1.7953  0.1808  1.2153
 6105SOL     OW19991   8.475   3.449   8.878  0.1704  0.4732  0.2086
 6105SOL    HW119992   8.513   3.535   8.896  0.9321  0.4240 -1.0709
 6105SOL    HW219993   8.418   3.464   8.803 -0.1153 -0.0337  0.3242
 6106SOL     OW19994   6.175   8.462   3.885 -0.2415  0.3009 -0.5485
 6106SOL    HW119995   6.082   8.456   3.907 -0.2517  0.7726 -0.4533
 6106SOL    HW219996   6.178   8.516   3.806 -0.2056 -1.4084 -1.7287
 6107SOL     OW19997   0.003   7.912   5.953 -0.3886 -0.2866 -0.3161
 6107SOL    HW119998   0.031   7.894   6.043 -2.4183 -1.3181  0.1597
 6107SOL    HW219999  -0.068   7.975   5.963  0.8371  1.2905 -1.3798
 6108SOL     OW20000   0.247   8.894   0.013 -0.0836  0.0474  0.1645
 6108SOL    HW120001   0.325   8.849  -0.018 -0.5262 -1.3043  0.9590
 6108SOL    HW220002   0.280   8.965   0.067  0.6061  0.0066 -0.1997
 6109SOL     OW20003   4.553   8.791   1.850  0.5475 -0.3941  0.1568
 6109SOL    HW120004   4.482   8.749   1.900  0.3836  0.3531  0.5678
 6109SOL    HW220005   4.508   8.851   1.790  0.7947 -0.4780 -0.1121
 6110SOL     OW20006   2.696   4.733   2.805 -0.4580  0.0653 -0.7272
 6110SOL    HW120007   2.642   4.769   2.875 -1.9319 -0.6463 -1.4765
 6110SOL    HW220008   2.733   4.653   2.842  0.9380  1.0896  0.1371
 6111SOL     OW20009   1.055   6.511   3.332 -0.1530 -0.0906  0.0842
 6111SOL    HW120010   1.054   6.422   3.298 -1.3510  0.2370 -0.8172
 6111SOL    HW220011   1.143   6.524   3.366  0.0258 -1.6106  0.2204
 6112SOL     OW20012   4.755   2.661   4.898  0.2886 -0.1417 -0.0095
 6112SOL    HW120013   4.816   2.734   4.912 -2.5492  1.8656  2.7950
 6112SOL    HW220014   4.790   2.590   4.951  1.4430  0.2272 -0.2664
 6113SOL     OW20015   0.094   5.199   6.172 -0.9620 -0.0628 -0.6635
 6113SOL    HW120016   0.103   5.236   6.260 -0.9951 -0.5964 -0.4360
 6113SOL    HW220017   0.080   5.275   6.115  1.6329  0.5359 -0.5627
 6114SOL     OW20018   9.207   1.646   2.690 -0.1589 -0.4219 -0.3584
 6114SOL    HW120019   9.231   1.739   2.691 -0.4875 -0.3378 -0.2482
 6114SOL    HW220020   9.291   1.600   2.690  0.0136 -0.1181 -1.2886
 6115SOL     OW20021   6.170   2.684   6.427 -0.5447 -0.5080 -0.3477
 6115SOL    HW120022   6.134   2.765   6.463 -1.0755 -0.7763 -0.2610
 6115SOL    HW220023   6.255   2.709   6.391 -0.8699  0.1673 -0.6609
 6116SOL     OW20024   3.102   1.592   5.857  0.1128 -0.0054 -0.0973
 6116SOL    HW120025   3.117   1.678   5.819 -0.9825  0.3905  0.3587
 6116SOL    HW220026   3.190   1.558   5.875  0.5281  1.2888  0.3370
 6117SOL     OW20027   8.756   7.170   6.930 -1.2732 -0.3789 -0.2833
 6117SOL    HW120028   8.763   7.148   6.837  0.4086 -0.2124 -0.2105
 6117SOL    HW220029   8.846   7.181   6.959 -1.8123  0.2852  1.2046
 6118SOL     OW20030   2.005   5.054   0.379  0.8107  0.3169 -0.1199
 6118SOL    HW120031   2.021   5.148   0.384  1.6711  0.2155 -0.8653
 6118SOL    HW220032   2.023   5.031   0.288 -1.1809 -0.2487 -0.4056
 6119SOL     OW20033   1.217   4.768   1.819  0.0655 -0.0713 -0.3351
 6119SOL    HW120034   1.219   4.704   1.890  1.0025  1.5267  1.1353
 6119SOL    HW220035   1.177   4.846   1.858 -0.1592  0.5695 -1.8012
 6120SOL     OW20036   5.904   6.961   0.319  0.4200  0.5912  0.3001
 6120SOL    HW120037   5.949   6.970   0.235  1.2041 -0.2934  0.6219
 6120SOL    HW220038   5.916   6.869   0.344 -3.5416 -0.3288 -0.7277
 6121SOL     OW20039   1.201   5.148   6.449 -0.2868  0.0555 -0.5134
 6121SOL    HW120040   1.171   5.236   6.425 -1.2745 -0.3218 -0.6697
 6121SOL    HW220041   1.294   5.149   6.430 -0.3546  0.9641 -0.8362
 6122SOL     OW20042   6.328   0.789   7.526  0.3056  1.0129  0.1022
 6122SOL    HW120043   6.342   0.865   7.584  0.5227  1.9726 -1.1848
 6122SOL    HW220044   6.310   0.828   7.440  0.7635 -0.4137 -0.6504
 6123SOL     OW20045   5.793   2.215   5.605  0.2445 -0.1422  0.0679
 6123SOL    HW120046   5.791   2.291   5.663 -0.5225  0.0097 -0.1617
 6123SOL    HW220047   5.750   2.145   5.654  0.7583 -0.3709  0.1947
 6124SOL     OW20048   3.001   4.235   3.647  0.1313  0.0452 -0.3033
 6124SOL    HW120049   3.094   4.256   3.661  0.1969 -0.8373  0.6752
 6124SOL    HW220050   2.962   4.317   3.619  0.9306  0.7959  0.7233
 6125SOL     OW20051   8.113   0.098   5.160 -0.3861  0.2026  0.0441
 6125SOL    HW120052   8.071   0.038   5.098  0.2156 -0.4152  0.2344
 6125SOL    HW220053   8.200   0.061   5.174  0.2153  1.4668 -0.3283
 6126SOL     OW20054   4.632   1.980   0.450  0.2647  0.3803  0.5648
 6126SOL    HW120055   4.568   2.038   0.492  0.1975 -0.3282  1.4681
 6126SOL    HW220056   4.655   1.917   0.519  1.5270  0.3055  0.0826
 6127SOL     OW20057   1.703   4.205   2.914 -0.0161  0.7073  0.4620
 6127SOL    HW120058   1.608   4.221   2.913  0.1920  1.8927 -0.1168
 6127SOL    HW220059   1.737   4.268   2.977  0.3219 -0.1889  1.1981
 6128SOL     OW20060   8.780   3.783   1.728  0.2735  0.2599 -0.1868
 6128SOL    HW120061   8.787   3.710   1.788  0.5202  1.4419  1.2571
 6128SOL    HW220062   8.845   3.766   1.660 -0.4888 -1.4327 -0.4965
 6129SOL     OW20063   4.635   1.270   7.041  0.5142 -0.5250  0.5353
 6129SOL    HW120064   4.651   1.276   7.135  0.7469 -1.2757  0.5507
 6129SOL    HW220065   4.624   1.360   7.012  0.4228 -0.2947  1.2878
 6130SOL     OW20066   0.650   7.332   1.113 -0.4566  0.7016  0.2020
 6130SOL    HW120067   0.563   7.339   1.153 -0.4389  0.5919  0.2602
 6130SOL    HW220068   0.709   7.364   1.181 -0.3394 -0.3360  0.6087
 6131SOL     OW20069   8.780   6.421   8.315  0.5975 -0.6049  0.2775
 6131SOL    HW120070   8.855   6.479   8.303  0.7951 -0.8681  0.2359
 6131SOL    HW220071   8.813   6.334   8.292  0.7205 -0.9676  1.7503
 6132SOL     OW20072   5.343   2.700   0.421  0.3156  0.1747 -0.2013
 6132SOL    HW120073   5.411   2.650   0.466 -0.0279 -1.1774 -1.1273
 6132SOL    HW220074   5.293   2.741   0.490  2.5550  1.8467  0.4845
 6133SOL     OW20075   5.683   8.185   3.123 -0.0091  0.5735  0.8591
 6133SOL    HW120076   5.683   8.146   3.211 -4.1336 -0.9601  0.2862
 6133SOL    HW220077   5.751   8.136   3.076 -0.9021 -1.7538  1.9127
 6134SOL     OW20078   4.754   8.527   0.554  0.5201  0.7141  0.2208
 6134SOL    HW120079   4.771   8.468   0.628 -2.6402  0.7720  1.0714
 6134SOL    HW220080   4.711   8.603   0.593 -3.4065 -0.2808 -1.8377
 6135SOL     OW20081   1.997   0.771   1.980 -0.2529  0.1958  0.2220
 6135SOL    HW120082   2.026   0.781   1.890 -2.0169 -2.1126 -0.6711
 6135SOL    HW220083   2.076   0.784   2.033  0.6897  2.0704 -1.6128
 6136SOL     OW20084   7.141   9.040   1.020  0.2311  0.1513  0.2586
 6136SOL    HW120085   7.103   9.092   1.090 -0.0196 -1.0760  1.0508
 6136SOL    HW220086   7.223   9.006   1.056 -0.1066 -0.8366  0.1174
 6137SOL     OW20087   8.193   2.230   2.134  0.4645  0.0123  0.0404
 6137SOL    HW120088   8.225   2.215   2.045 -3.5407 -0.1005 -1.4746
 6137SOL    HW220089   8.173   2.142   2.167 -0.8465  0.2499 -0.0894
 6138SOL     OW20090   8.680   4.759   7.143 -0.0881  0.4643  0.0338
 6138SOL    HW120091   8.743   4.702   7.097  0.6713  0.7885  0.6634
 6138SOL    HW220092   8.672   4.836   7.087 -1.3677 -0.3951 -0.9868
 6139SOL     OW20093   2.674   2.972   0.578  0.5925 -0.7891 -0.4581
 6139SOL    HW120094   2.684   3.064   0.552 -0.2864 -0.1519  1.4002
 6139SOL    HW220095   2.762   2.945   0.605  0.7561 -0.3704 -0.5710
 6140SOL     OW20096   8.604   4.552   0.529 -0.3748  0.1110  0.2393
 6140SOL    HW120097   8.543   4.495   0.577  0.6582 -0.4628  0.8869
 6140SOL    HW220098   8.684   4.500   0.521 -0.1746  0.6068 -1.1805
 6141SOL     OW20099   6.880   3.386   3.506  0.5300 -0.7252  0.4939
 6141SOL    HW120100   6.930   3.467   3.505 -0.0724 -0.3115  2.5612
 6141SOL    HW220101   6.889   3.352   3.595 -0.7271 -1.9751  0.1680
 6142SOL     OW20102   1.003   4.302   3.164 -0.1673 -0.2282  0.6317
 6142SOL    HW120103   0.968   4.288   3.253  0.9619  1.4834  1.3749
 6142SOL    HW220104   0.940   4.360   3.122  0.5592  1.0246  1.2113
 6143SOL     OW20105   5.952   8.944   4.893 -0.0417  0.6170 -0.0588
 6143SOL    HW120106   5.966   8.876   4.959 -2.1571 -1.0281 -1.2498
 6143SOL    HW220107   6.036   8.989   4.887  1.7060 -2.4674  0.1110
 6144SOL     OW20108   8.751   6.288   4.195  0.0591  0.2193  0.2644
 6144SOL    HW120109   8.816   6.237   4.148  0.2044 -0.2074  0.9142
 6144SOL    HW220110   8.691   6.320   4.127  1.7257  1.8023 -0.4926
 6145SOL     OW20111   7.094   5.379   5.034 -0.0288  0.1677  0.0987
 6145SOL    HW120112   6.999   5.380   5.021 -0.1308 -0.2335  0.7738
 6145SOL    HW220113   7.130   5.411   4.952 -0.7685  0.7726  0.0079
 6146SOL     OW20114   5.076   8.547   4.128  0.1024  0.2563 -0.0851
 6146SOL    HW120115   5.062   8.608   4.056  0.9544 -0.8457 -1.1981
 6146SOL    HW220116   4.987   8.521   4.155 -0.2059 -0.1387 -1.4399
 6147SOL     OW20117   8.318   6.929   7.835  0.2125  0.6692  0.1336
 6147SOL    HW120118   8.278   6.952   7.918  0.6946  0.9167  0.2971
 6147SOL    HW220119   8.277   6.845   7.811 -0.0383  0.6747  0.5359
 6148SOL     OW20120   4.976   6.677   8.097  0.0518  0.1272 -0.5515
 6148SOL    HW120121   5.028   6.606   8.059 -1.2232 -0.0275 -2.0580
 6148SOL    HW220122   4.950   6.645   8.183 -1.4499 -1.7208 -1.6614
 6149SOL     OW20123   0.821   2.023   5.341 -0.5553 -0.3540  0.3034
 6149SOL    HW120124   0.729   1.996   5.334 -0.1605 -1.2796 -2.1338
 6149SOL    HW220125   0.870   1.940   5.338  0.3927  0.2012  0.4195
 6150SOL     OW20126   1.871   1.370   2.450 -0.7058 -0.9337 -0.3147
 6150SOL    HW120127   1.815   1.410   2.383 -1.4390 -2.6173 -0.7300
 6150SOL    HW220128   1.835   1.400   2.533 -1.6438 -1.2508 -0.6043
 6151SOL     OW20129   6.520   2.982   7.836 -0.1938 -0.5234 -0.2972
 6151SOL    HW120130   6.427   3.003   7.844 -0.8599 -2.8827 -1.6419
 6151SOL    HW220131   6.551   2.979   7.927 -1.1306  1.3511  0.1297
 6152SOL     OW20132   6.276   4.899   1.638  0.3702 -0.1736 -0.4217
 6152SOL    HW120133   6.283   4.994   1.642  1.6722 -0.2696 -0.2564
 6152SOL    HW220134   6.277   4.879   1.544  0.3858 -0.0455 -0.4487
 6153SOL     OW20135   6.467   8.722   5.583 -0.2254 -0.0817 -0.0882
 6153SOL    HW120136   6.501   8.651   5.530  0.4923  1.1836 -1.3465
 6153SOL    HW220137   6.531   8.793   5.573 -1.1541  0.9013  0.7728
 6154SOL     OW20138   3.938   4.966   5.329 -0.1795  0.4410  0.0442
 6154SOL    HW120139   3.966   5.041   5.381  2.2192 -0.2649 -0.1604
 6154SOL    HW220140   3.959   4.890   5.383  1.4487 -0.2566 -1.4996
 6155SOL     OW20141   0.926   0.238   1.320  0.3205 -0.5335  0.1674
 6155SOL    HW120142   0.861   0.203   1.380  0.0741  1.7508  1.2769
 6155SOL    HW220143   0.990   0.281   1.376  1.2001 -0.2078 -1.0744
 6156SOL     OW20144   3.421   0.742   2.823  0.4819 -0.3586 -0.1438
 6156SOL    HW120145   3.357   0.756   2.893  0.6156 -0.3664 -0.0211
 6156SOL    HW220146   3.367   0.729   2.744  0.3372 -0.1518 -0.0798
 6157SOL     OW20147   6.847   4.223   5.316  0.0603  0.1649  0.0117
 6157SOL    HW120148   6.929   4.182   5.288  1.2182  0.9110  2.2220
 6157SOL    HW220149   6.836   4.195   5.406 -0.2766  2.8604  0.8668
 6158SOL     OW20150   7.043   0.063   7.842  0.0264  0.2895  0.0006
 6158SOL    HW120151   6.996  -0.014   7.872  0.2876  0.4202  0.7671
 6158SOL    HW220152   6.989   0.099   7.772  0.1114 -0.8210 -0.6415
 6159SOL     OW20153   2.795   7.089   3.316  0.1255 -0.1413  0.0047
 6159SOL    HW120154   2.700   7.089   3.324  0.0950  2.5175 -0.0004
 6159SOL    HW220155   2.812   7.046   3.232 -1.0417 -0.8269  0.1089
 6160SOL     OW20156   4.570   6.734   7.984  0.0387  0.1962 -0.0372
 6160SOL    HW120157   4.494   6.758   7.931 -0.4131 -1.5083 -0.1882
 6160SOL    HW220158   4.568   6.796   8.057  0.5263  2.4157 -1.8182
 6161SOL     OW20159   0.873   4.464   8.630  0.2465  0.2497  0.4507
 6161SOL    HW120160   0.898   4.458   8.538 -0.8395 -0.1286  0.1677
 6161SOL    HW220161   0.950   4.435   8.679  1.1061  1.2221 -0.3040
 6162SOL     OW20162   5.392   0.413   4.903  0.7093  0.3831  0.4700
 6162SOL    HW120163   5.461   0.443   4.844  1.2031  0.8545  1.2611
 6162SOL    HW220164   5.363   0.493   4.947 -1.2898  0.3981 -0.8285
 6163SOL     OW20165   4.959   3.898   5.732 -0.8027  0.2424 -0.6930
 6163SOL    HW120166   4.945   3.821   5.787 -1.4539 -0.0249 -1.2222
 6163SOL    HW220167   5.041   3.937   5.764 -0.5875 -0.5475 -0.2886
 6164SOL     OW20168   2.453   1.151   9.131 -0.5951 -0.6355 -1.2730
 6164SOL    HW120169   2.407   1.069   9.148  1.6239 -1.4969  1.0488
 6164SOL    HW220170   2.470   1.187   9.218  0.2693  1.2592 -2.1898
 6165SOL     OW20171   3.416   3.325   9.247  0.4109  0.3621  0.0271
 6165SOL    HW120172   3.423   3.295   9.156  1.9054  0.9120 -0.0678
 6165SOL    HW220173   3.327   3.303   9.274  0.3046 -0.7772 -1.2242
 6166SOL     OW20174   5.724   5.256   1.095 -0.2582  0.1741  0.5777
 6166SOL    HW120175   5.753   5.166   1.086 -0.1205 -0.0246  2.8460
 6166SOL    HW220176   5.716   5.288   1.005  0.3706 -1.8675 -0.2150
 6167SOL     OW20177   5.343   6.333   8.962  0.2710 -0.7037 -0.6259
 6167SOL    HW120178   5.358   6.257   9.019 -2.0307 -1.8148 -1.4190
 6167SOL    HW220179   5.413   6.394   8.985  2.0829 -2.9779  0.1609
 6168SOL     OW20180   3.276   1.073   3.784 -0.6843  0.3152 -0.1596
 6168SOL    HW120181   3.227   1.055   3.704  0.3199 -0.6088 -0.5696
 6168SOL    HW220182   3.210   1.072   3.853 -1.8557  2.9115 -1.1783
 6169SOL     OW20183   1.820   7.867   0.861  0.3667  0.3956  0.4370
 6169SOL    HW120184   1.834   7.873   0.766 -3.2729 -2.6327 -0.3951
 6169SOL    HW220185   1.840   7.776   0.882 -0.8792  0.5126  2.1996
 6170SOL     OW20186   8.701   2.681   5.292 -0.2134  0.2210 -0.5741
 6170SOL    HW120187   8.669   2.646   5.375  2.6159  0.9523  0.8845
 6170SOL    HW220188   8.719   2.774   5.311 -1.9022  1.0142 -2.7114
 6171SOL     OW20189   5.820   3.628   4.473 -0.5253 -0.4537  0.3852
 6171SOL    HW120190   5.803   3.699   4.536 -0.5741  0.9659 -1.1819
 6171SOL    HW220191   5.832   3.550   4.527  0.7034  0.9691  2.2197
 6172SOL     OW20192   2.534   3.634   8.787  0.5169  0.0971 -0.1289
 6172SOL    HW120193   2.442   3.620   8.809  0.0457  1.4911 -1.1490
 6172SOL    HW220194   2.542   3.729   8.777  1.8667 -0.0927 -0.8641
 6173SOL     OW20195   8.017   3.996   5.434 -0.2790  0.1523  0.0626
 6173SOL    HW120196   8.019   4.080   5.390 -0.2652  2.1634  3.6835
 6173SOL    HW220197   8.107   3.964   5.429 -0.4909 -0.1151 -2.1530
 6174SOL     OW20198   1.216   4.964   5.558  0.1455 -0.7173 -0.7161
 6174SOL    HW120199   1.186   5.049   5.526 -0.3935 -0.6046  0.0642
 6174SOL    HW220200   1.311   4.966   5.547  0.1606  0.0827 -0.4814
 6175SOL     OW20201   2.260   7.668   4.739  0.1186  0.3153  0.4792
 6175SOL    HW120202   2.350   7.637   4.740 -0.6744 -2.0456  0.3101
 6175SOL    HW220203   2.268   7.762   4.722  2.5235  0.1136  0.2966
 6176SOL     OW20204   0.383   2.897   4.263  0.4684 -0.4524 -0.0660
 6176SOL    HW120205   0.405   2.807   4.288  2.0237 -0.3670 -1.1091
 6176SOL    HW220206   0.411   2.904   4.172 -3.3915 -0.1594 -1.3055
 6177SOL     OW20207   8.624   5.462   7.648 -0.1459  0.5749 -0.1650
 6177SOL    HW120208   8.710   5.423   7.663 -0.1062  1.3817  1.9705
 6177SOL    HW220209   8.604   5.444   7.556  0.6671 -2.8333  0.2620
 6178SOL     OW20210   3.763   2.028   7.352 -0.1546 -0.1681  0.3138
 6178SOL    HW120211   3.697   2.031   7.421 -0.9888  0.7517 -0.5023
 6178SOL    HW220212   3.727   2.083   7.282  0.9760 -0.5462 -0.5840
 6179SOL     OW20213   6.184   6.093   5.976  0.3844  0.4838  0.6258
 6179SOL    HW120214   6.224   6.007   5.990 -0.4953 -0.4509 -2.1265
 6179SOL    HW220215   6.092   6.081   5.997 -0.0929  0.2103 -1.4517
 6180SOL     OW20216   1.016   3.467   7.796 -0.1269 -0.7160  0.3744
 6180SOL    HW120217   0.963   3.450   7.873 -0.9602  1.3855  0.3023
 6180SOL    HW220218   0.954   3.462   7.723  0.4040 -1.4159 -0.0297
 6181SOL     OW20219   0.075   7.808   3.912  0.0733 -0.0882  0.0093
 6181SOL    HW120220   0.165   7.831   3.889  0.0107 -0.5792 -0.7281
 6181SOL    HW220221   0.072   7.818   4.007  0.3524  1.8600 -0.1803
 6182SOL     OW20222   8.174   3.989   6.019 -0.1342  0.2997 -0.0713
 6182SOL    HW120223   8.084   3.966   6.045 -0.2033  1.8382  1.1718
 6182SOL    HW220224   8.168   4.082   5.997  0.8453  0.0251 -1.5504
 6183SOL     OW20225   7.855   6.209   7.180 -0.1358  0.2289  0.3332
 6183SOL    HW120226   7.942   6.191   7.143  0.1814  3.1695 -0.4662
 6183SOL    HW220227   7.860   6.175   7.269  2.0279  0.8161  0.4660
 6184SOL     OW20228   5.746   1.544   6.280  0.6356 -0.2669 -0.4838
 6184SOL    HW120229   5.727   1.555   6.187 -0.5107  0.7452 -0.1396
 6184SOL    HW220230   5.783   1.628   6.307  2.9744 -1.2522 -0.4774
 6185SOL     OW20231   1.771   1.168   5.948  0.1148 -0.0752 -0.5421
 6185SOL    HW120232   1.699   1.176   5.885  1.5007 -0.8681 -2.2637
 6185SOL    HW220233   1.801   1.258   5.961  1.0763 -0.0817 -2.5364
 6186SOL     OW20234   9.155   5.803   5.872 -0.0349 -0.7014  0.0394
 6186SOL    HW120235   9.179   5.893   5.850  1.2697 -1.0629 -0.0414
 6186SOL    HW220236   9.071   5.811   5.918 -1.2945  0.3294 -2.3359
 6187SOL     OW20237   3.682   6.511   2.993 -0.0816 -0.4131  0.0118
 6187SOL    HW120238   3.764   6.547   3.025  1.4266 -2.7463 -1.0871
 6187SOL    HW220239   3.659   6.566   2.917  1.2753 -0.6885 -0.6067
 6188SOL     OW20240   1.143   1.475   2.629  0.5255  0.3836  0.2097
 6188SOL    HW120241   1.197   1.401   2.603  0.6312  0.4170  0.3321
 6188SOL    HW220242   1.057   1.438   2.645  0.7324  0.1830  0.8766
 6189SOL     OW20243   5.258   5.963   4.105 -0.1635 -0.3664 -0.2662
 6189SOL    HW120244   5.191   6.030   4.089  0.1069  0.5003  2.0852
 6189SOL    HW220245   5.227   5.916   4.182  2.3553  0.6634  1.4503
 6190SOL     OW20246   0.333   3.745   4.165  0.0636  0.1438 -0.6127
 6190SOL    HW120247   0.299   3.786   4.245  3.7490  2.6269 -0.1697
 6190SOL    HW220248   0.284   3.786   4.095  0.9841  2.5286  0.0818
 6191SOL     OW20249   3.331   3.797   5.805 -0.2532 -0.2810 -0.2749
 6191SOL    HW120250   3.338   3.892   5.815 -0.6857 -0.2177 -0.5867
 6191SOL    HW220251   3.338   3.781   5.711  0.7630 -0.6394 -0.1506
 6192SOL     OW20252   1.359   7.679   8.543  0.6130  0.4178 -0.1229
 6192SOL    HW120253   1.294   7.656   8.609  0.8239  1.2342  0.3738
 6192SOL    HW220254   1.378   7.771   8.558  0.2796  0.7611 -1.6590
 6193SOL     OW20255   8.829   0.212   7.743 -0.3338 -0.4020  0.2797
 6193SOL    HW120256   8.912   0.210   7.791 -0.2863  1.1003  0.2761
 6193SOL    HW220257   8.767   0.170   7.803 -0.0151  0.3532  1.1614
 6194SOL     OW20258   0.792   4.911   8.648 -0.0595 -0.1152 -0.1268
 6194SOL    HW120259   0.711   4.926   8.600 -0.9066 -3.0150  0.3056
 6194SOL    HW220260   0.775   4.944   8.736 -0.1000  0.9912 -0.5429
 6195SOL     OW20261   8.397   8.829   5.811  0.4406 -0.2366  0.5622
 6195SOL    HW120262   8.482   8.839   5.853 -0.2415 -1.5281  2.3033
 6195SOL    HW220263   8.348   8.770   5.869 -0.5906 -1.9280 -1.9639
 6196SOL     OW20264   6.487   9.005   4.903 -0.2300  0.5898  0.4610
 6196SOL    HW120265   6.492   9.043   4.991  0.2672  1.3874  0.0954
 6196SOL    HW220266   6.579   8.992   4.878 -0.3939 -1.7984  0.9682
 6197SOL     OW20267   2.126   6.848   4.354  0.0591  0.2868  0.8609
 6197SOL    HW120268   2.177   6.929   4.350  1.4431 -0.6301 -0.5659
 6197SOL    HW220269   2.192   6.779   4.350 -1.2767 -0.9127 -0.8267
 6198SOL     OW20270   7.707   2.282   4.995 -0.2909  0.4826  0.9010
 6198SOL    HW120271   7.795   2.246   4.991  0.2324  1.7329  1.1244
 6198SOL    HW220272   7.676   2.258   5.083  0.2927  1.1309  1.2847
 6199SOL     OW20273   2.684   5.524   5.480 -0.4520 -0.0184 -0.0185
 6199SOL    HW120274   2.695   5.542   5.573  0.0891  0.3240 -0.1409
 6199SOL    HW220275   2.760   5.566   5.439 -0.6750 -0.1864 -0.6083
 6200SOL     OW20276   3.095   6.365   6.605  0.1827  0.0303 -0.2458
 6200SOL    HW120277   3.154   6.293   6.581 -0.5439 -0.8077  0.4515
 6200SOL    HW220278   3.050   6.387   6.523 -1.3013 -1.9030  0.0181
 6201SOL     OW20279   1.314   3.966   2.839 -0.1457 -0.8632 -0.0355
 6201SOL    HW120280   1.233   3.936   2.880 -0.6332 -2.0570 -1.8178
 6201SOL    HW220281   1.291   3.976   2.746  1.2350  0.6636 -0.2363
 6202SOL     OW20282   6.056   2.421   2.299  0.3451 -0.2594  0.4896
 6202SOL    HW120283   6.023   2.442   2.212  1.9937  3.6231  0.7107
 6202SOL    HW220284   5.985   2.371   2.340 -1.1053 -0.7385 -2.4624
 6203SOL     OW20285   0.249   3.108   8.631  0.8165 -0.1020  0.4040
 6203SOL    HW120286   0.251   3.088   8.725  1.5089 -0.6763  0.2742
 6203SOL    HW220287   0.228   3.201   8.626  3.8914  0.6619  1.2275
 6204SOL     OW20288   5.431   8.545   6.322  0.2430  0.2863  0.5732
 6204SOL    HW120289   5.526   8.535   6.327  0.1790 -0.7917 -0.2143
 6204SOL    HW220290   5.403   8.478   6.260 -0.9727  0.9886  0.3453
 6205SOL     OW20291   8.223   4.479   0.932  0.2051  0.2851  0.2585
 6205SOL    HW120292   8.216   4.517   0.844  0.7868 -0.6197 -0.1832
 6205SOL    HW220293   8.244   4.554   0.988  1.1279  0.6656 -0.5746
 6206SOL     OW20294   3.024   0.291   2.441  0.0040 -0.2917  0.4740
 6206SOL    HW120295   3.031   0.218   2.380 -1.5105 -0.7789  0.8696
 6206SOL    HW220296   2.960   0.350   2.402  0.7517  0.5235  0.4664
 6207SOL     OW20297   0.813   3.660   4.910  0.1975  0.1550 -0.1437
 6207SOL    HW120298   0.867   3.583   4.892 -1.1611  0.1254 -4.7631
 6207SOL    HW220299   0.724   3.626   4.915 -0.1476  1.1033  0.3067
 6208SOL     OW20300   3.572   9.253   7.105 -0.2011  0.0471 -0.0750
 6208SOL    HW120301   3.585   9.161   7.128  1.4059 -0.0630 -1.4301
 6208SOL    HW220302   3.578   9.256   7.010  2.7049  1.9921  0.1074
 6209SOL     OW20303   6.313   1.419   8.622 -0.6977 -0.5736  0.2240
 6209SOL    HW120304   6.312   1.366   8.701 -4.4383 -1.1172 -0.0840
 6209SOL    HW220305   6.233   1.472   8.628  0.5895  1.6793 -1.6895
 6210SOL     OW20306   2.382   6.048   4.705  0.5198 -0.2361 -0.4935
 6210SOL    HW120307   2.326   5.976   4.734  0.6666  0.0255  0.4835
 6210SOL    HW220308   2.463   6.038   4.755  1.3064 -0.5396 -1.8139
 6211SOL     OW20309   1.951   7.114   8.786 -0.4189 -0.0112 -0.2928
 6211SOL    HW120310   2.003   7.194   8.781 -0.9419  0.3328 -0.2645
 6211SOL    HW220311   1.958   7.087   8.878 -0.5550  0.2165 -0.2119
 6212SOL     OW20312   3.820   9.007   3.683  0.8906  0.4572  0.2757
 6212SOL    HW120313   3.755   8.943   3.713  1.8849  0.0177  1.5114
 6212SOL    HW220314   3.845   8.976   3.595 -0.4564  0.5559 -0.1450
 6213SOL     OW20315   4.531   2.205   5.435  0.5778  0.6253  0.0207
 6213SOL    HW120316   4.573   2.128   5.473 -0.2256  0.1813  0.0198
 6213SOL    HW220317   4.494   2.252   5.510 -0.6065 -0.0083 -0.1620
 6214SOL     OW20318   4.357   8.883   4.422  0.0347  0.6420 -0.3869
 6214SOL    HW120319   4.445   8.920   4.430  0.0883  0.6129 -0.7886
 6214SOL    HW220320   4.350   8.821   4.494  0.7903 -0.2232 -1.0444
 6215SOL     OW20321   2.175   3.486   8.373 -0.5438 -0.1623 -0.0725
 6215SOL    HW120322   2.189   3.557   8.310 -1.7257  0.5214  0.4113
 6215SOL    HW220323   2.228   3.510   8.449 -1.2833  0.4350  0.2591
 6216SOL     OW20324   1.331   0.155   0.558 -0.5683 -0.4075 -0.0116
 6216SOL    HW120325   1.416   0.191   0.581 -1.1041  1.4114 -0.7586
 6216SOL    HW220326   1.350   0.070   0.520  0.9223  0.0195 -0.2486
 6217SOL     OW20327   9.271   1.574   0.542  0.1719 -0.2904 -0.5090
 6217SOL    HW120328   9.193   1.599   0.492 -0.7795  1.2543  1.6600
 6217SOL    HW220329   9.341   1.574   0.478 -1.5365 -1.2887 -2.4227
 6218SOL     OW20330   5.200   4.003   4.806 -0.1120  0.2614 -0.1678
 6218SOL    HW120331   5.227   4.018   4.715  0.8728 -0.4433  0.0040
 6218SOL    HW220332   5.273   3.956   4.845 -0.9375 -0.2818  0.7340
 6219SOL     OW20333   7.528   5.382   4.192  0.3062 -0.0736  0.2560
 6219SOL    HW120334   7.447   5.375   4.243  0.1755  0.9291  0.1904
 6219SOL    HW220335   7.563   5.468   4.215  1.3191 -0.4758  0.2294
 6220SOL     OW20336   5.183   5.597   4.207 -0.6021  0.2089 -0.0642
 6220SOL    HW120337   5.265   5.579   4.161 -0.0662  0.4414  0.7935
 6220SOL    HW220338   5.138   5.512   4.211  0.0170 -0.1050  0.2774
 6221SOL     OW20339   7.684   1.341   2.185 -0.1336 -0.0803  0.1668
 6221SOL    HW120340   7.608   1.357   2.129 -0.5011 -0.9503  0.4122
 6221SOL    HW220341   7.680   1.409   2.252 -0.6377 -0.0699  0.1227
 6222SOL     OW20342   7.280   1.462   8.455  0.2428 -0.1194 -0.1102
 6222SOL    HW120343   7.186   1.481   8.465  0.2632 -0.3888  0.6353
 6222SOL    HW220344   7.285   1.367   8.446  0.4784 -0.1539  0.3442
 6223SOL     OW20345   8.473   2.658   8.276  0.1797 -0.2710 -0.5607
 6223SOL    HW120346   8.530   2.726   8.238  0.5842 -1.4651 -2.1361
 6223SOL    HW220347   8.427   2.621   8.201 -0.0702 -1.7069  0.2854
 6224SOL     OW20348   4.558   4.189   1.310  0.2883 -0.1959 -0.3521
 6224SOL    HW120349   4.642   4.149   1.285  0.6147  1.3697 -1.9351
 6224SOL    HW220350   4.573   4.283   1.298 -1.4350  0.1532  0.1823
 6225SOL     OW20351   1.946   2.024   8.537 -0.4990  0.0043  0.3030
 6225SOL    HW120352   1.916   2.000   8.625 -2.0510 -0.9600 -0.4645
 6225SOL    HW220353   1.910   1.956   8.480  0.5172  0.6029 -1.0814
 6226SOL     OW20354   0.039   9.275   5.372 -0.2021  0.0816  0.1712
 6226SOL    HW120355   0.086   9.284   5.455 -0.3805  1.2557  0.1483
 6226SOL    HW220356   0.104   9.237   5.313 -0.0708 -0.7521  0.8446
 6227SOL     OW20357   2.876   5.360   7.610 -0.1589  0.2007  0.3951
 6227SOL    HW120358   2.957   5.333   7.652 -0.6412  0.6380  1.6270
 6227SOL    HW220359   2.851   5.441   7.654  0.3713  1.7930 -2.1142
 6228SOL     OW20360   0.998   0.079   0.768 -0.1017  0.4442  0.5981
 6228SOL    HW120361   0.967   0.037   0.848 -0.1026  0.4955  0.6251
 6228SOL    HW220362   1.089   0.101   0.786  0.4416 -1.1781 -0.0722
 6229SOL     OW20363   7.732   3.686   4.287 -0.1000 -0.1051 -0.4043
 6229SOL    HW120364   7.793   3.626   4.329  0.1390 -0.0104 -0.6114
 6229SOL    HW220365   7.788   3.752   4.246 -0.3614  0.2696 -0.1612
 6230SOL     OW20366   6.972   5.567   7.425  0.3496 -0.2159  0.6484
 6230SOL    HW120367   6.883   5.542   7.401  0.7114 -0.5249 -0.4034
 6230SOL    HW220368   6.978   5.547   7.518 -0.6434 -0.3009  0.7053
 6231SOL     OW20369   3.237   2.702   7.619 -0.1865 -0.3443  0.2146
 6231SOL    HW120370   3.297   2.627   7.619  0.0868 -0.1269  0.4964
 6231SOL    HW220371   3.151   2.664   7.601  0.1727 -0.5496 -1.0946
 6232SOL     OW20372   4.416   8.188   2.621 -0.2571 -0.0596 -0.2186
 6232SOL    HW120373   4.361   8.115   2.592  0.2318 -1.1020  1.3905
 6232SOL    HW220374   4.416   8.182   2.717 -0.1086  2.0009 -0.0604
 6233SOL     OW20375   4.492   2.249   0.398  0.1535 -0.1743 -0.4136
 6233SOL    HW120376   4.465   2.340   0.389 -0.0910 -0.1811  0.2282
 6233SOL    HW220377   4.578   2.246   0.355  1.1671  0.8638  1.4639
 6234SOL     OW20378   8.885   3.991   3.892  0.1664 -0.1588 -0.7972
 6234SOL    HW120379   8.789   3.987   3.901  0.3033 -3.2484 -0.2003
 6234SOL    HW220380   8.901   3.956   3.805  0.7698  0.6906 -1.0349
 6235SOL     OW20381   7.675   6.978   6.575 -0.4351  0.1501 -0.5207
 6235SOL    HW120382   7.604   6.917   6.555  0.0465 -1.0015  1.1883
 6235SOL    HW220383   7.661   7.003   6.666 -0.0057  1.7874 -0.8809
 6236SOL     OW20384   0.530   7.987   1.961  0.3366 -0.1773  0.0457
 6236SOL    HW120385   0.622   7.998   1.982  0.6999 -0.8854 -1.1473
 6236SOL    HW220386   0.502   7.910   2.010  0.2927  0.2124  0.6412
 6237SOL     OW20387   8.113   8.729   1.325 -0.1227  0.0263 -0.3853
 6237SOL    HW120388   8.021   8.705   1.316 -1.0685  3.1062  0.2617
 6237SOL    HW220389   8.117   8.777   1.408  1.6139  1.8551 -1.4641
 6238SOL     OW20390   1.532   2.994   8.701 -0.1286  0.8700  0.4380
 6238SOL    HW120391   1.597   3.012   8.769 -1.4259  1.2805  1.5859
 6238SOL    HW220392   1.495   3.080   8.680 -1.0649  0.5103  0.5809
 6239SOL     OW20393   6.387   4.918   6.863  0.3152 -0.0113  0.2737
 6239SOL    HW120394   6.295   4.894   6.875  0.0532  0.2595 -1.0862
 6239SOL    HW220395   6.435   4.838   6.883 -0.1397  0.1351  2.0264
 6240SOL     OW20396   5.229   5.844   5.377  0.3503  0.1644 -0.3205
 6240SOL    HW120397   5.190   5.896   5.307  1.6329  1.0254 -0.4010
 6240SOL    HW220398   5.209   5.753   5.352 -1.3136  0.5637 -0.5203
 6241SOL     OW20399   8.989   0.303   8.479  0.0822 -0.8726 -0.0567
 6241SOL    HW120400   8.971   0.346   8.396  0.2444 -0.3793  0.1592
 6241SOL    HW220401   9.056   0.358   8.521 -1.1431 -0.2350  1.1038
 6242SOL     OW20402   5.640   3.939   5.060  0.0616 -0.0440 -0.0556
 6242SOL    HW120403   5.599   4.014   5.105  0.3642 -0.6369  1.2393
 6242SOL    HW220404   5.601   3.940   4.973  0.1879  1.7343 -0.1278
 6243SOL     OW20405   8.230   1.497   4.478  0.4558  0.4682  0.3118
 6243SOL    HW120406   8.171   1.422   4.469  0.4761  0.3418  1.1671
 6243SOL    HW220407   8.177   1.573   4.454 -0.2842  0.4323  1.7426
 6244SOL     OW20408   0.461   7.214   5.552  0.0802  0.2979 -0.1421
 6244SOL    HW120409   0.531   7.156   5.520  1.8388  2.7627 -0.9480
 6244SOL    HW220410   0.443   7.272   5.478 -0.6726  1.6549  1.0972
 6245SOL     OW20411   7.997   2.069   3.626 -0.0211 -0.3439 -0.1914
 6245SOL    HW120412   7.927   2.130   3.650 -0.3756 -0.8416  0.0335
 6245SOL    HW220413   8.068   2.126   3.594 -1.0115  0.1040 -1.6745
 6246SOL     OW20414   3.085   7.344   4.045  0.2451  0.5156 -0.2867
 6246SOL    HW120415   3.139   7.341   3.966 -0.2811  0.6754 -0.6505
 6246SOL    HW220416   3.051   7.433   4.048  1.4440  0.9575  0.9160
 6247SOL     OW20417   1.550   6.222   7.897  0.8845 -0.1616  0.4141
 6247SOL    HW120418   1.484   6.255   7.958 -0.0261  1.1650 -1.2379
 6247SOL    HW220419   1.621   6.286   7.902  0.4974  0.3449 -0.4220
 6248SOL     OW20420   9.250   1.903   7.039 -0.0241 -0.5331  0.3382
 6248SOL    HW120421   9.186   1.886   6.970  0.9305 -2.0571 -0.2052
 6248SOL    HW220422   9.333   1.872   7.003  0.4788 -1.4564  2.2182
 6249SOL     OW20423   4.496   0.049   8.219 -0.3509 -0.0517 -0.1746
 6249SOL    HW120424   4.473   0.134   8.183 -0.8776 -1.2866 -2.8999
 6249SOL    HW220425   4.582   0.029   8.182 -0.2238 -0.6981  0.4498
 6250SOL     OW20426   0.903   3.956   1.995 -0.0851 -0.0686  0.3715
 6250SOL    HW120427   0.956   3.878   2.009 -0.9631 -0.7819 -0.1799
 6250SOL    HW220428   0.815   3.923   1.980 -0.4343  1.0195 -0.0832
 6251SOL     OW20429   2.478   7.908   1.577 -0.3127 -0.1536 -0.0125
 6251SOL    HW120430   2.467   7.863   1.494 -0.9889  0.5364 -0.3068
 6251SOL    HW220431   2.475   8.001   1.554  4.1316  0.1357  0.1578
 6252SOL     OW20432   9.032   4.017   4.466  0.2609 -0.4370 -0.3361
 6252SOL    HW120433   8.995   3.959   4.400  1.1971 -1.3397 -0.0796
 6252SOL    HW220434   8.995   3.986   4.549 -3.3820  2.6331 -0.6728
 6253SOL     OW20435   8.449   6.654   9.261  0.5149 -0.2053  0.1818
 6253SOL    HW120436   8.424   6.585   9.199  2.8968  0.2305 -1.3072
 6253SOL    HW220437   8.434   6.615   9.347  0.3966 -2.0399 -0.6382
 6254SOL     OW20438   1.028   7.330   7.335  0.3914 -0.1771  0.6429
 6254SOL    HW120439   1.059   7.367   7.417  1.3687  2.6951 -0.9433
 6254SOL    HW220440   0.935   7.312   7.350  0.4970  0.5646  2.2817
 6255SOL     OW20441   1.800   3.355   4.038 -0.1036  0.5525  0.5911
 6255SOL    HW120442   1.786   3.336   3.945  0.8826 -0.0438  0.5553
 6255SOL    HW220443   1.895   3.352   4.049 -0.1877  1.0676  1.5322
 6256SOL     OW20444   2.783   4.583   2.404  0.3177 -0.0265 -0.1266
 6256SOL    HW120445   2.707   4.628   2.441  0.0559  0.4416 -1.2071
 6256SOL    HW220446   2.836   4.558   2.480 -1.0987 -0.6989  0.6580
 6257SOL     OW20447   9.002   0.630   1.420  0.3981  0.4774 -0.2431
 6257SOL    HW120448   8.976   0.667   1.336  1.4978  0.7060 -0.4855
 6257SOL    HW220449   9.068   0.690   1.454  1.3551 -0.6340 -0.1048
 6258SOL     OW20450   4.548   1.100   7.359 -0.2780  0.1505  0.1851
 6258SOL    HW120451   4.621   1.157   7.384 -0.0784  0.4056 -0.9490
 6258SOL    HW220452   4.473   1.158   7.350 -0.7939 -0.2064  2.0051
 6259SOL     OW20453   0.050   4.162   1.162  0.2350  0.3697 -0.0535
 6259SOL    HW120454   0.008   4.230   1.109 -1.8414 -1.6619 -1.1048
 6259SOL    HW220455   0.059   4.203   1.249 -1.5091  1.8154 -0.4959
 6260SOL     OW20456   8.296   6.143   5.215  0.2264 -0.2164 -0.0099
 6260SOL    HW120457   8.299   6.237   5.232 -0.2619 -0.4677  1.5294
 6260SOL    HW220458   8.372   6.108   5.260  0.3916 -0.5700 -0.5611
 6261SOL     OW20459   0.730   6.267   5.423 -0.3947 -0.2162  0.6487
 6261SOL    HW120460   0.824   6.269   5.405 -0.3641 -1.8127  0.5321
 6261SOL    HW220461   0.722   6.210   5.500 -1.4525 -1.9222 -0.7042
 6262SOL     OW20462   5.911   2.165   8.099  0.2835  0.0931 -0.2352
 6262SOL    HW120463   5.838   2.215   8.063 -0.2341 -2.1840 -2.5077
 6262SOL    HW220464   5.884   2.145   8.189 -1.5212  0.0269 -0.7730
 6263SOL     OW20465   6.815   2.811   3.725  0.3890 -0.1384 -0.0365
 6263SOL    HW120466   6.904   2.847   3.722  0.6018 -0.6733 -0.2618
 6263SOL    HW220467   6.799   2.782   3.635 -1.1888  2.7492 -0.7563
 6264SOL     OW20468   0.254   1.556   5.502  0.3022 -0.4135 -0.2529
 6264SOL    HW120469   0.323   1.490   5.496  2.6416  1.7554  1.4108
 6264SOL    HW220470   0.230   1.557   5.595 -0.4119  0.3496 -0.4414
 6265SOL     OW20471   7.545   7.130   3.290  0.6008 -0.2150 -0.6754
 6265SOL    HW120472   7.554   7.218   3.327  1.1678 -0.3185 -0.5690
 6265SOL    HW220473   7.490   7.083   3.352  1.4334 -0.3464 -0.0326
 6266SOL     OW20474   0.465   1.811   1.696 -0.2352 -0.3688 -0.3482
 6266SOL    HW120475   0.549   1.856   1.683  0.2681 -0.5221  2.1567
 6266SOL    HW220476   0.422   1.817   1.611  1.6174  1.1478 -1.2346
 6267SOL     OW20477   5.932   2.936   7.403 -0.1238 -0.2130  0.0258
 6267SOL    HW120478   5.962   2.952   7.492  0.7220  1.1506 -0.4871
 6267SOL    HW220479   5.854   2.881   7.413  0.0355 -0.1653  1.5897
 6268SOL     OW20480   5.236   5.782   7.540 -0.5041 -0.3874  0.1413
 6268SOL    HW120481   5.311   5.760   7.595  0.2684  1.4880 -0.1158
 6268SOL    HW220482   5.274   5.814   7.458 -1.5914 -0.0821 -0.2644
 6269SOL     OW20483   1.830   8.648   8.452  0.0989 -0.1433 -0.4934
 6269SOL    HW120484   1.809   8.711   8.383  0.6510 -0.0797 -0.6072
 6269SOL    HW220485   1.748   8.637   8.501 -0.4868 -0.7300 -1.5935
 6270SOL     OW20486   1.765   1.383   6.965 -0.4723  0.0485 -0.4781
 6270SOL    HW120487   1.815   1.337   6.897 -1.5611 -0.6403 -0.8138
 6270SOL    HW220488   1.675   1.381   6.934 -1.1820 -1.4383  1.6233
 6271SOL     OW20489   8.080   1.299   4.801  0.1064  0.4429  0.3544
 6271SOL    HW120490   8.161   1.295   4.750  0.1768  1.7099  0.3418
 6271SOL    HW220491   8.015   1.337   4.742  0.1173  1.6696  1.1025
 6272SOL     OW20492   0.097   1.703   1.617  0.6363  0.3009 -0.0278
 6272SOL    HW120493   0.071   1.646   1.689 -1.4954 -0.0994 -1.0623
 6272SOL    HW220494   0.014   1.737   1.583  1.5312 -0.2146 -2.8379
 6273SOL     OW20495   4.905   1.726   3.517 -0.3505 -0.1319 -0.2727
 6273SOL    HW120496   4.985   1.711   3.568 -0.2570  0.1241 -0.3408
 6273SOL    HW220497   4.889   1.820   3.528 -0.1452 -0.0105 -0.9894
 6274SOL     OW20498   5.453   2.094   7.654  0.0916  0.4399 -0.3960
 6274SOL    HW120499   5.368   2.136   7.640 -0.2735 -0.5574 -1.3405
 6274SOL    HW220500   5.475   2.057   7.568  0.8313 -0.4743  0.1801
 6275SOL     OW20501   6.086   2.282   7.049  0.4013  0.2354 -0.1745
 6275SOL    HW120502   6.027   2.224   7.001  0.0791 -0.7078  1.3141
 6275SOL    HW220503   6.028   2.348   7.087  0.6633  1.0172 -1.1121
 6276SOL     OW20504   6.180   2.382   4.916 -0.2216  0.2617 -0.1338
 6276SOL    HW120505   6.228   2.457   4.952  0.4944 -0.6393  0.8375
 6276SOL    HW220506   6.142   2.339   4.993 -1.1602 -0.0136 -0.7425
 6277SOL     OW20507   1.248   2.362   8.613  0.7041 -0.1078  0.1437
 6277SOL    HW120508   1.328   2.374   8.561  0.6740 -0.3059  0.0536
 6277SOL    HW220509   1.197   2.442   8.596  0.6499 -0.2172 -0.2110
 6278SOL     OW20510   4.894   0.664   6.651 -0.0186  0.1222 -0.1378
 6278SOL    HW120511   4.949   0.619   6.715 -1.0611  0.1919  0.8205
 6278SOL    HW220512   4.810   0.677   6.696 -1.3723 -1.4138 -2.1150
 6279SOL     OW20513   8.223   7.627   5.019  0.0749  0.0893 -0.1671
 6279SOL    HW120514   8.162   7.565   4.979 -0.5915 -1.3225  2.8638
 6279SOL    HW220515   8.168   7.683   5.074  1.1683  0.7451  0.2743
 6280SOL     OW20516   4.634   1.799   2.729 -0.1198  0.0267 -0.1733
 6280SOL    HW120517   4.681   1.783   2.647 -0.5030 -1.0371 -0.1932
 6280SOL    HW220518   4.583   1.719   2.744 -1.9193  1.1388 -0.1434
 6281SOL     OW20519   1.255   4.366   3.061 -0.1604  0.5698 -0.1528
 6281SOL    HW120520   1.169   4.360   3.103 -0.8368 -0.4676 -1.6509
 6281SOL    HW220521   1.312   4.404   3.128 -1.5923  0.4734  1.1384
 6282SOL     OW20522   5.947   4.046   8.903 -0.0223  0.3878  0.2824
 6282SOL    HW120523   5.877   4.106   8.877  0.4552  1.3876  1.2698
 6282SOL    HW220524   6.001   4.097   8.963  0.6932 -0.8682  0.7168
 6283SOL     OW20525   7.168   4.708   5.588  0.3130 -0.1483 -0.1556
 6283SOL    HW120526   7.187   4.658   5.508  1.5564 -0.1027  0.0925
 6283SOL    HW220527   7.159   4.641   5.656  3.8765 -0.0261  0.5570
 6284SOL     OW20528   8.899   3.452   6.757  0.0235 -0.9949 -0.0402
 6284SOL    HW120529   8.881   3.361   6.733  3.9476 -1.8231 -0.1684
 6284SOL    HW220530   8.866   3.462   6.846 -0.5033 -2.5194 -0.0661
 6285SOL     OW20531   6.189   1.890   3.718  0.4738 -0.6731 -0.1511
 6285SOL    HW120532   6.246   1.870   3.792  1.4202  0.9382 -0.4153
 6285SOL    HW220533   6.243   1.876   3.641  0.0396 -0.6180 -0.4712
 6286SOL     OW20534   6.496   1.321   4.358 -0.5031  0.0548  0.0144
 6286SOL    HW120535   6.587   1.326   4.326 -1.1766  1.1592 -1.8105
 6286SOL    HW220536   6.483   1.229   4.376  1.0293 -0.1115  0.3907
 6287SOL     OW20537   1.553   5.635   2.369 -0.1537  0.3890 -0.5500
 6287SOL    HW120538   1.475   5.633   2.315  0.0313  0.1398 -0.8105
 6287SOL    HW220539   1.620   5.590   2.317  0.3456  1.1807 -0.6169
 6288SOL     OW20540   5.600   4.460   1.582 -0.2264  0.6929  0.1480
 6288SOL    HW120541   5.545   4.519   1.633 -1.4304 -0.8640  0.6727
 6288SOL    HW220542   5.547   4.381   1.571  1.3242 -0.2530 -0.6362
 6289SOL     OW20543   5.124   1.304   5.195 -0.1374 -0.0742 -0.1759
 6289SOL    HW120544   5.201   1.290   5.250  0.9969  0.6307 -1.5613
 6289SOL    HW220545   5.072   1.369   5.243  0.3762 -0.1780  0.5316
 6290SOL     OW20546   5.047   0.094   8.932  0.5433  0.5073 -0.4547
 6290SOL    HW120547   5.121   0.048   8.971  1.4869  1.0063 -1.6129
 6290SOL    HW220548   4.978   0.028   8.924 -0.0217  0.6177  2.8890
 6291SOL     OW20549   7.011   6.077   5.897  0.1773 -0.8022  0.3358
 6291SOL    HW120550   7.096   6.099   5.859 -0.3799  0.1436 -0.4066
 6291SOL    HW220551   7.004   6.134   5.974 -0.1046 -0.3046 -0.0490
 6292SOL     OW20552   5.024   0.745   8.094 -0.5841  0.8307 -0.0539
 6292SOL    HW120553   5.058   0.818   8.146 -1.7390  2.5582 -1.6398
 6292SOL    HW220554   4.930   0.743   8.115 -0.3554 -1.0274  0.9080
 6293SOL     OW20555   0.009   4.782   3.983  0.0202 -0.1876  1.0411
 6293SOL    HW120556  -0.027   4.725   3.915 -0.5006  0.2354  0.9527
 6293SOL    HW220557  -0.068   4.824   4.022  0.2427 -1.2433  2.6277
 6294SOL     OW20558   8.480   6.862   0.707  0.4361 -0.3429 -0.3388
 6294SOL    HW120559   8.502   6.940   0.758 -0.7465 -0.1423 -0.1125
 6294SOL    HW220560   8.504   6.884   0.617 -3.3553  1.7361 -0.9222
 6295SOL     OW20561   5.576   8.263   5.921 -0.0094  0.7250  0.2057
 6295SOL    HW120562   5.496   8.235   5.966  0.4285  1.3072  1.3454
 6295SOL    HW220563   5.641   8.196   5.943 -0.2024  0.1751 -0.8359
 6296SOL     OW20564   0.663   6.334   1.744  0.9524 -0.0634  0.4429
 6296SOL    HW120565   0.605   6.393   1.696  1.1398 -1.0098 -0.9650
 6296SOL    HW220566   0.612   6.253   1.753  1.3873 -0.3040  0.7504
 6297SOL     OW20567   4.631   7.427   3.431  0.5286 -0.2282 -0.0890
 6297SOL    HW120568   4.664   7.366   3.497 -0.6301  1.1139  1.7843
 6297SOL    HW220569   4.632   7.512   3.475 -1.8246  0.4333 -1.2327
 6298SOL     OW20570   1.189   7.089   6.897  0.0991  0.1265 -0.2637
 6298SOL    HW120571   1.208   6.997   6.876 -2.0125  0.0313 -1.9597
 6298SOL    HW220572   1.153   7.086   6.986  0.9041 -0.5711  0.0440
 6299SOL     OW20573   4.821   1.415   3.820 -0.8170  0.3042  0.0391
 6299SOL    HW120574   4.910   1.405   3.786 -0.8340  0.7174 -0.1309
 6299SOL    HW220575   4.764   1.383   3.750 -0.7183 -2.7209  1.2328
 6300SOL     OW20576   7.485   1.620   6.174  0.2617 -0.1693 -0.1052
 6300SOL    HW120577   7.446   1.552   6.229  2.4263 -1.4962 -0.1500
 6300SOL    HW220578   7.521   1.573   6.099  1.4323  1.0743 -0.3451
 6301SOL     OW20579   4.748   7.071   2.672 -0.2203 -0.0475 -0.0406
 6301SOL    HW120580   4.742   7.037   2.761  3.1572 -1.0665 -0.1129
 6301SOL    HW220581   4.675   7.030   2.626  1.0796 -3.7704  1.0120
 6302SOL     OW20582   5.741   6.681   5.988  0.0924 -0.4958 -0.3312
 6302SOL    HW120583   5.825   6.661   5.945 -0.1372 -3.3122  0.4601
 6302SOL    HW220584   5.719   6.768   5.955  3.2222  0.2430 -0.7157
 6303SOL     OW20585   6.433   6.872   7.465  0.2054 -0.4550  0.2876
 6303SOL    HW120586   6.383   6.952   7.478 -0.3101 -0.4667 -1.4950
 6303SOL    HW220587   6.398   6.834   7.384 -1.4518 -3.8749  2.4885
 6304SOL     OW20588   3.678   0.193   5.882  0.2715  0.8945  0.4269
 6304SOL    HW120589   3.676   0.288   5.880  0.4969  0.9561  2.6579
 6304SOL    HW220590   3.752   0.171   5.939  0.3842 -0.6270 -0.2689
 6305SOL     OW20591   5.263   8.622   0.902 -0.0349 -0.5447 -0.1305
 6305SOL    HW120592   5.209   8.546   0.927  0.9239 -1.0582  0.4216
 6305SOL    HW220593   5.221   8.696   0.945 -0.7991 -0.8065 -0.4107
 6306SOL     OW20594   5.950   0.976   0.117  0.3087  1.0798  0.0435
 6306SOL    HW120595   5.997   0.941   0.042  1.4740  0.9508  0.8161
 6306SOL    HW220596   5.981   0.923   0.191 -0.2929  1.6595  0.7199
 6307SOL     OW20597   6.478   6.061   3.195  0.6122  0.0701 -0.1231
 6307SOL    HW120598   6.445   5.982   3.238  1.8672 -0.7197 -0.5939
 6307SOL    HW220599   6.565   6.037   3.163  2.1145  2.4302  2.0336
 6308SOL     OW20600   4.545   1.569   4.668  0.2348 -0.1707  0.2944
 6308SOL    HW120601   4.467   1.513   4.674 -0.3627  0.6075 -0.2559
 6308SOL    HW220602   4.551   1.592   4.576  1.4131 -0.6279  0.2425
 6309SOL     OW20603   0.737   6.156   2.925 -0.5659 -0.6353  0.1208
 6309SOL    HW120604   0.762   6.197   2.841 -0.6422 -0.4839  0.1723
 6309SOL    HW220605   0.731   6.063   2.905 -1.5777 -0.4830 -0.2769
 6310SOL     OW20606   0.319   6.543   7.427  0.6180  0.1084  0.1019
 6310SOL    HW120607   0.391   6.536   7.365 -0.3530  1.9383 -1.2785
 6310SOL    HW220608   0.250   6.488   7.390 -0.0108  1.3120 -0.5249
 6311SOL     OW20609   1.473   2.873   1.656 -0.5915 -0.4706  0.0353
 6311SOL    HW120610   1.394   2.923   1.678  0.5899  1.5887 -0.2970
 6311SOL    HW220611   1.476   2.875   1.560 -0.3122 -0.8209  0.0363
 6312SOL     OW20612   3.877   2.485   5.658  0.4119  0.0798  0.5538
 6312SOL    HW120613   3.873   2.505   5.564 -1.4091 -3.2926 -0.1568
 6312SOL    HW220614   3.789   2.505   5.690  0.9236  0.8621  1.4670
 6313SOL     OW20615   8.631   1.722   4.199  0.5715 -0.2383 -0.8352
 6313SOL    HW120616   8.615   1.755   4.110 -0.9536  1.1686 -0.0695
 6313SOL    HW220617   8.601   1.632   4.197  1.8345 -0.6525 -2.1164
 6314SOL     OW20618   2.150   3.336   3.143  0.0058  0.2865  0.3676
 6314SOL    HW120619   2.178   3.265   3.085  1.6501 -1.1228  2.8154
 6314SOL    HW220620   2.194   3.414   3.108  0.5671 -0.4297 -0.5551
 6315SOL     OW20621   5.408   6.745   2.514  0.7689 -0.3890 -0.0295
 6315SOL    HW120622   5.418   6.727   2.607  2.6022 -1.2494 -0.3657
 6315SOL    HW220623   5.443   6.667   2.471 -0.6787 -0.2884 -1.4459
 6316SOL     OW20624   0.543   0.893   3.673  0.2555 -0.4120  0.0679
 6316SOL    HW120625   0.521   0.856   3.588 -0.3982  0.6196 -0.2135
 6316SOL    HW220626   0.624   0.941   3.659 -0.1313  0.2003 -0.1021
 6317SOL     OW20627   0.125   9.188   8.962  0.4230  0.3016  0.3427
 6317SOL    HW120628   0.054   9.214   8.903 -1.8049  1.2390  3.3418
 6317SOL    HW220629   0.111   9.095   8.978  0.4911  0.2489  0.0963
 6318SOL     OW20630   9.077   4.117   7.765 -0.4864 -0.1759 -0.3525
 6318SOL    HW120631   9.101   4.187   7.826  2.2536 -1.5490  0.2044
 6318SOL    HW220632   9.055   4.043   7.821 -3.4303  0.1750 -0.9422
 6319SOL     OW20633   4.735   6.355   3.047  0.0904 -0.0579  0.6158
 6319SOL    HW120634   4.690   6.405   2.979  0.3345  0.4981  0.8635
 6319SOL    HW220635   4.667   6.300   3.085  0.1882 -1.3062 -0.9167
 6320SOL     OW20636   7.895   3.009   4.489  0.5204  0.3252 -0.5535
 6320SOL    HW120637   7.975   3.060   4.475 -0.3166  2.1026  0.8968
 6320SOL    HW220638   7.827   3.075   4.505 -1.2724 -1.1494 -1.9068
 6321SOL     OW20639   8.968   1.130   7.043  0.2734 -0.3383 -0.2814
 6321SOL    HW120640   9.032   1.064   7.018  0.4527  0.3052 -1.5992
 6321SOL    HW220641   9.020   1.200   7.083  0.0498 -1.1209  1.4061
 6322SOL     OW20642   4.402   5.507   2.720 -0.1043 -0.6781 -0.0942
 6322SOL    HW120643   4.360   5.562   2.654  0.8868 -0.3964 -0.4948
 6322SOL    HW220644   4.402   5.561   2.799 -0.8190 -0.8199  0.0113
 6323SOL     OW20645   5.731   1.681   0.541  0.0621 -0.4332  0.7055
 6323SOL    HW120646   5.685   1.717   0.617  0.5333  0.9308  0.3546
 6323SOL    HW220647   5.763   1.596   0.572 -1.3776 -0.7355  1.4221
 6324SOL     OW20648   5.498   7.564   9.263 -0.2044 -0.3677  0.3656
 6324SOL    HW120649   5.592   7.584   9.272  0.0634 -1.0097 -0.8905
 6324SOL    HW220650   5.461   7.582   9.349  0.4496  3.2454 -0.0371
 6325SOL     OW20651   5.036   5.107   0.699  0.1851  0.9631  0.2728
 6325SOL    HW120652   4.943   5.128   0.709  0.0534  0.6927 -0.3980
 6325SOL    HW220653   5.038   5.014   0.678  0.6167  0.9503  0.3627
 6326SOL     OW20654   4.487   8.762   3.322 -0.8062  0.5392  0.2858
 6326SOL    HW120655   4.516   8.756   3.413  0.1036 -0.2422 -0.0477
 6326SOL    HW220656   4.519   8.681   3.282 -0.9028  1.0410 -0.8060
 6327SOL     OW20657   8.635   1.855   9.255 -0.0089  0.0769 -0.6030
 6327SOL    HW120658   8.555   1.854   9.307 -0.2777  0.8331 -0.9930
 6327SOL    HW220659   8.688   1.784   9.291 -1.2055 -0.9827 -0.8853
 6328SOL     OW20660   5.603   3.003   9.118 -0.0815 -0.4098 -0.6257
 6328SOL    HW120661   5.668   3.009   9.188  0.0928 -0.9301 -0.7423
 6328SOL    HW220662   5.579   2.910   9.115 -0.2713 -0.3471 -1.0885
 6329SOL     OW20663   1.694   4.412   1.931 -0.6091 -0.3815  0.7474
 6329SOL    HW120664   1.745   4.429   2.010 -0.7706 -0.1151  0.7948
 6329SOL    HW220665   1.629   4.347   1.958  0.3868 -1.5454  0.4185
 6330SOL     OW20666   4.971   4.255   0.165  0.5456 -0.2489 -0.2637
 6330SOL    HW120667   4.917   4.222   0.093  0.8606 -1.0525 -0.1440
 6330SOL    HW220668   5.020   4.178   0.194  0.7940  0.1899  0.4750
 6331SOL     OW20669   5.256   4.031   8.557 -0.2628 -0.0990 -0.0046
 6331SOL    HW120670   5.199   3.957   8.582  1.4710 -1.6572 -0.5499
 6331SOL    HW220671   5.251   4.033   8.461  1.4157 -0.9381 -0.1284
 6332SOL     OW20672   7.809   8.522   2.162  0.5884  0.1940  0.3465
 6332SOL    HW120673   7.717   8.549   2.168  0.8555  1.2613 -0.2269
 6332SOL    HW220674   7.806   8.427   2.152 -0.4958  0.3438 -0.8269
 6333SOL     OW20675   3.541   0.854   4.048  0.7604 -0.0087 -0.9620
 6333SOL    HW120676   3.508   0.942   4.067 -0.0869  0.0298 -2.5582
 6333SOL    HW220677   3.634   0.859   4.071  0.7526  1.3467 -1.1779
 6334SOL     OW20678   6.944   1.262   8.807 -0.0355  0.3557  0.1034
 6334SOL    HW120679   6.981   1.207   8.737  0.0192 -0.4579  0.7687
 6334SOL    HW220680   6.850   1.264   8.789  0.1825  1.6192 -1.0211
 6335SOL     OW20681   2.254   6.526   5.761  0.5075  0.4704  0.3047
 6335SOL    HW120682   2.216   6.480   5.836 -1.0268  0.9357 -0.1647
 6335SOL    HW220683   2.251   6.618   5.785  1.8262  0.4795  0.4646
 6336SOL     OW20684   0.843   0.960   1.783 -0.1489  0.1862  0.1578
 6336SOL    HW120685   0.818   0.914   1.863  0.1382 -0.9829 -0.4143
 6336SOL    HW220686   0.760   0.990   1.746 -0.3008  0.5468  0.7807
 6337SOL     OW20687   3.280   3.393   5.826  0.4116 -0.1532  0.3892
 6337SOL    HW120688   3.215   3.463   5.819 -0.2858 -0.9232 -0.9935
 6337SOL    HW220689   3.333   3.401   5.747 -0.2503 -1.7504 -0.2457
 6338SOL     OW20690   3.514   2.723   3.364  0.8885  0.5555 -0.0043
 6338SOL    HW120691   3.529   2.690   3.453  0.1722  0.3849  0.0524
 6338SOL    HW220692   3.581   2.791   3.353  2.1034 -0.6046  0.0328
 6339SOL     OW20693   7.733   6.921   5.965  0.0215  0.1045  0.3398
 6339SOL    HW120694   7.673   6.873   5.908 -1.1338 -0.0191  1.6153
 6339SOL    HW220695   7.676   6.961   6.031  1.3939 -0.5005  1.9426
 6340SOL     OW20696   0.886   6.750   5.226 -0.4126  0.0398  0.0735
 6340SOL    HW120697   0.806   6.701   5.246 -0.6466 -0.0084 -0.9693
 6340SOL    HW220698   0.954   6.682   5.217 -0.5157 -0.0112 -0.3092
 6341SOL     OW20699   4.087   6.282   7.913 -0.0995  0.1241  0.4021
 6341SOL    HW120700   4.165   6.244   7.953  0.3461  0.2358 -0.3646
 6341SOL    HW220701   4.058   6.217   7.849  1.0846  1.3681 -1.4405
 6342SOL     OW20702   1.280   5.392   8.701 -0.8981 -0.9971 -0.5259
 6342SOL    HW120703   1.201   5.412   8.752  0.8950  0.1981  1.8606
 6342SOL    HW220704   1.329   5.474   8.700  0.0957 -1.5860 -2.4441
 6343SOL     OW20705   0.283   3.827   7.551  0.1164  0.3931  0.4853
 6343SOL    HW120706   0.362   3.821   7.498 -0.8669 -0.0102 -0.9424
 6343SOL    HW220707   0.315   3.841   7.640  1.7680  1.1272 -0.2194
 6344SOL     OW20708   3.548   5.793   1.158  0.3384 -0.0300 -0.2063
 6344SOL    HW120709   3.593   5.846   1.092 -0.2184 -0.2984 -0.8101
 6344SOL    HW220710   3.568   5.837   1.241  0.2638  0.8583 -0.6462
 6345SOL     OW20711   4.800   3.601   1.865  0.6532  0.4272 -0.1631
 6345SOL    HW120712   4.837   3.666   1.804 -1.2253  0.0924 -1.7137
 6345SOL    HW220713   4.748   3.653   1.926  1.2525  0.6102  0.2000
 6346SOL     OW20714   5.695   8.954   0.056 -0.3284 -0.3468  0.9981
 6346SOL    HW120715   5.661   8.868   0.083  1.1753 -0.5555  2.3066
 6346SOL    HW220716   5.643   9.017   0.106 -2.1576 -0.4207 -0.7530
 6347SOL     OW20717   2.451   9.172   4.729 -0.4665  0.1808 -0.6931
 6347SOL    HW120718   2.533   9.213   4.756 -0.1736 -0.2939 -0.8516
 6347SOL    HW220719   2.397   9.244   4.695 -0.4256  0.6138  0.1548
 6348SOL     OW20720   1.906   7.741   8.238 -0.4177  0.1859  0.6971
 6348SOL    HW120721   1.871   7.806   8.300  0.8543 -0.6661  2.3364
 6348SOL    HW220722   1.843   7.669   8.241  0.2035 -0.3162  1.8251
 6349SOL     OW20723   1.345   6.194   6.159 -0.5280 -0.2365 -0.0356
 6349SOL    HW120724   1.313   6.194   6.250  1.2696  0.5888  0.6104
 6349SOL    HW220725   1.315   6.110   6.124 -0.9670 -0.7161  1.4207
 6350SOL     OW20726   2.424   8.215   5.542  0.0538  0.2563 -0.6684
 6350SOL    HW120727   2.509   8.238   5.505  0.4936 -0.7408 -0.2932
 6350SOL    HW220728   2.373   8.184   5.467  0.0066  0.8811 -0.8988
 6351SOL     OW20729   0.722   7.696   7.339  0.2021  0.0011 -0.4335
 6351SOL    HW120730   0.756   7.652   7.416 -0.9152 -1.0485 -0.5100
 6351SOL    HW220731   0.676   7.773   7.373  0.7017  0.1780 -0.1542
 6352SOL     OW20732   9.062   3.747   0.246 -0.0248 -0.1896  0.4193
 6352SOL    HW120733   8.987   3.695   0.274  1.1162 -1.0671  1.8880
 6352SOL    HW220734   9.106   3.693   0.181  0.9176 -0.8991  1.6314
 6353SOL     OW20735   3.514   0.354   4.531 -0.2544 -0.2135 -0.1017
 6353SOL    HW120736   3.506   0.325   4.441 -1.2168 -0.2781 -0.0027
 6353SOL    HW220737   3.566   0.286   4.574  1.7452  0.7176 -1.0138
 6354SOL     OW20738   5.932   1.466   8.623  0.3517 -0.1331  0.3617
 6354SOL    HW120739   5.974   1.381   8.619  0.8936  0.1738 -0.4116
 6354SOL    HW220740   6.003   1.527   8.643 -0.2962 -0.0704  2.6028
 6355SOL     OW20741   4.956   0.352   3.811  0.1213 -0.5174 -0.5260
 6355SOL    HW120742   4.992   0.398   3.887  0.1270  0.4084 -1.0821
 6355SOL    HW220743   4.871   0.394   3.796  0.4779 -0.1354 -1.5277
 6356SOL     OW20744   2.781   2.805   7.638 -0.1041  0.0569 -0.1071
 6356SOL    HW120745   2.794   2.866   7.566  0.0594 -0.0912 -0.2029
 6356SOL    HW220746   2.686   2.791   7.641  0.1085 -2.0242 -2.0397
 6357SOL     OW20747   9.205   0.026   4.771 -0.0217  0.2925  0.0185
 6357SOL    HW120748   9.213   0.116   4.805  2.1636 -0.4421  1.5538
 6357SOL    HW220749   9.262   0.025   4.694  1.6855 -0.3618  1.2728
 6358SOL     OW20750   9.291   2.967   4.219  0.2322 -0.0742  0.3637
 6358SOL    HW120751   9.355   3.028   4.257 -2.3415  0.9487  3.2774
 6358SOL    HW220752   9.266   3.007   4.136  0.2592  1.7015  1.1954
 6359SOL     OW20753   2.961   0.713   0.645 -0.6278  0.1561  0.4061
 6359SOL    HW120754   2.977   0.672   0.730  0.8339  1.7771  0.9362
 6359SOL    HW220755   2.953   0.807   0.665 -0.2165  0.5484 -1.2489
 6360SOL     OW20756   2.109   7.772   5.769 -0.1714  0.4549  0.4118
 6360SOL    HW120757   2.052   7.710   5.813  0.0887  1.0056  1.5552
 6360SOL    HW220758   2.125   7.734   5.682  0.1397 -1.1521  1.1602
 6361SOL     OW20759   1.034   0.873   6.600 -0.0903  0.2811 -0.3993
 6361SOL    HW120760   0.997   0.893   6.686  1.6457  2.5713 -0.1541
 6361SOL    HW220761   1.101   0.807   6.617 -0.4189  0.0026 -0.1620
 6362SOL     OW20762   5.599   4.385   4.882  0.0643  0.5179  0.2584
 6362SOL    HW120763   5.659   4.311   4.872  2.3324  2.0650  1.9744
 6362SOL    HW220764   5.558   4.371   4.968 -1.0712  0.1710 -0.3303
 6363SOL     OW20765   8.059   6.551   3.047 -0.0479  0.4367  0.5139
 6363SOL    HW120766   8.106   6.472   3.071  0.5243  0.8692  0.8389
 6363SOL    HW220767   7.969   6.535   3.076 -0.0112 -0.2209  0.2728
 6364SOL     OW20768   7.286   1.014   7.277 -0.0699 -0.0106 -0.1232
 6364SOL    HW120769   7.269   1.000   7.370 -2.1987 -0.3594 -0.5514
 6364SOL    HW220770   7.367   1.065   7.276 -0.0764  0.1109  1.9172
 6365SOL     OW20771   7.141   1.717   6.925  0.3920 -0.3624  0.3652
 6365SOL    HW120772   7.230   1.702   6.955  0.5065 -0.2773  0.0631
 6365SOL    HW220773   7.133   1.812   6.917  0.3396 -0.3805  0.1909
 6366SOL     OW20774   6.001   3.313   4.408 -0.1420  0.5937  0.3323
 6366SOL    HW120775   5.946   3.301   4.486 -0.1289 -0.1069  0.2397
 6366SOL    HW220776   5.940   3.335   4.338 -0.2964 -0.0850  0.2521
 6367SOL     OW20777   3.744   7.995   1.290 -0.3800  0.0940 -0.6797
 6367SOL    HW120778   3.783   8.036   1.214  0.0690  0.9246 -0.0047
 6367SOL    HW220779   3.817   7.958   1.339 -0.4476  1.3258  0.3905
 6368SOL     OW20780   7.594   7.113   4.605  0.0825 -0.3434  0.2047
 6368SOL    HW120781   7.623   7.022   4.613  2.1804  0.2862 -0.0019
 6368SOL    HW220782   7.638   7.146   4.527 -2.6100  0.1586 -1.1662
 6369SOL     OW20783   1.716   2.834   5.798 -0.8947 -0.2665 -0.3876
 6369SOL    HW120784   1.694   2.741   5.788 -0.1632 -0.4607 -0.2216
 6369SOL    HW220785   1.783   2.850   5.731  0.6984 -0.4473  1.1250
 6370SOL     OW20786   4.466   2.636   1.102  0.2198  0.1753  0.2653
 6370SOL    HW120787   4.433   2.651   1.013  1.0701 -1.0617 -0.2780
 6370SOL    HW220788   4.464   2.722   1.143  1.1501  1.0279 -1.4051
 6371SOL     OW20789   6.496   6.626   5.942  0.4323  0.1814  0.2597
 6371SOL    HW120790   6.589   6.608   5.949  0.6217  1.6484  1.9056
 6371SOL    HW220791   6.484   6.711   5.985 -1.6732 -0.0427  0.2051
 6372SOL     OW20792   1.200   5.816   6.509  0.6999  0.0779  1.3205
 6372SOL    HW120793   1.291   5.842   6.500  0.7110 -0.4114 -0.0856
 6372SOL    HW220794   1.203   5.734   6.558  1.0943 -0.4546  0.4138
 6373SOL     OW20795   3.370   5.956   2.026  0.5946  0.1559 -0.0200
 6373SOL    HW120796   3.438   5.957   1.959 -1.3233  0.5967 -2.0362
 6373SOL    HW220797   3.341   6.047   2.032 -0.5320 -0.1967  0.0285
 6374SOL     OW20798   0.263   5.797   7.873 -0.0575  0.4653 -0.3112
 6374SOL    HW120799   0.206   5.755   7.937 -0.2304  0.7509 -0.2745
 6374SOL    HW220800   0.351   5.765   7.893 -0.1501  0.3425 -0.1065
 6375SOL     OW20801   0.278   6.893   4.007 -0.5945  0.2308 -0.0732
 6375SOL    HW120802   0.340   6.832   4.047 -1.6652 -1.2313 -0.6020
 6375SOL    HW220803   0.280   6.970   4.063  1.3452  0.0287  0.1860
 6376SOL     OW20804   3.614   1.127   6.740  0.8771  0.4774  0.0468
 6376SOL    HW120805   3.539   1.074   6.712  0.9061  0.7052 -0.4586
 6376SOL    HW220806   3.653   1.159   6.659  1.4278  0.4966  0.3160
 6377SOL     OW20807   5.332   0.004   0.351 -0.5355  0.5232  0.2795
 6377SOL    HW120808   5.337   0.093   0.317 -0.9996  0.8880  1.1498
 6377SOL    HW220809   5.353   0.013   0.444 -0.2685 -0.3198  0.2996
 6378SOL     OW20810   7.581   7.348   6.223 -0.0570 -0.4666 -0.1042
 6378SOL    HW120811   7.537   7.266   6.202  0.3836 -0.2173 -2.1400
 6378SOL    HW220812   7.644   7.360   6.152  0.2052  1.3932  0.4129
 6379SOL     OW20813   8.246   0.826   4.757 -0.1167 -0.0293 -0.0459
 6379SOL    HW120814   8.221   0.786   4.674  0.4819  0.3573 -0.4225
 6379SOL    HW220815   8.186   0.901   4.767 -0.3780 -0.2448  0.0183
 6380SOL     OW20816   7.975   5.605   7.001 -0.0354 -0.1708 -0.1884
 6380SOL    HW120817   7.921   5.684   6.997  0.5710  0.3021  0.7617
 6380SOL    HW220818   8.042   5.620   6.934  1.2442  1.0225  1.3132
 6381SOL     OW20819   3.579   3.679   6.172 -0.3714  0.3849  0.3521
 6381SOL    HW120820   3.647   3.710   6.232 -0.3312 -1.4162  1.2994
 6381SOL    HW220821   3.614   3.694   6.085  0.4129  1.2507  0.8121
 6382SOL     OW20822   8.565   7.639   1.786 -0.0138 -0.5788  0.2252
 6382SOL    HW120823   8.585   7.556   1.744  2.1237  0.5306 -1.0553
 6382SOL    HW220824   8.488   7.671   1.740  0.5385 -0.7797 -0.8517
 6383SOL     OW20825   1.734   8.660   4.226  0.3617 -0.1454  0.9373
 6383SOL    HW120826   1.658   8.638   4.279 -0.4834 -0.3969 -0.3745
 6383SOL    HW220827   1.723   8.753   4.205 -0.7879 -0.7457 -1.1903
 6384SOL     OW20828   4.605   7.305   5.949 -0.3401  0.8255 -0.6047
 6384SOL    HW120829   4.522   7.315   5.995  0.6166 -1.3447  1.6845
 6384SOL    HW220830   4.581   7.272   5.863 -1.8319 -0.1380  0.1575
 6385SOL     OW20831   8.872   3.387   0.194 -0.2319  0.0958  0.6836
 6385SOL    HW120832   8.901   3.388   0.103  1.0761  0.4210  1.0899
 6385SOL    HW220833   8.808   3.458   0.200 -1.1774 -0.6507 -0.2303
 6386SOL     OW20834   3.784   4.734   4.673  0.0184  0.4007  0.0263
 6386SOL    HW120835   3.776   4.815   4.622 -0.0444  1.2253  1.3474
 6386SOL    HW220836   3.821   4.671   4.611 -1.7575  0.8920 -1.5899
 6387SOL     OW20837   8.882   1.671   4.356  0.0090 -0.3462 -0.0622
 6387SOL    HW120838   8.842   1.685   4.442 -0.1924  1.4596 -0.4299
 6387SOL    HW220839   8.826   1.719   4.295 -0.4565 -2.4741 -1.3774
 6388SOL     OW20840   7.756   4.506   1.557  0.3125  0.2963 -0.0134
 6388SOL    HW120841   7.768   4.413   1.578  1.4298  0.2407 -0.8423
 6388SOL    HW220842   7.773   4.551   1.640  0.5301 -0.1926  0.2096
 6389SOL     OW20843   3.476   0.823   3.114  0.5334  0.6741  0.8508
 6389SOL    HW120844   3.567   0.822   3.084  0.7112  1.4270  1.3247
 6389SOL    HW220845   3.479   0.871   3.198  0.0214 -1.1683  1.9418
 6390SOL     OW20846   6.964   2.012   7.173  0.8473 -0.9418  0.1470
 6390SOL    HW120847   6.972   2.100   7.136 -2.7025 -0.2707  0.7726
 6390SOL    HW220848   7.054   1.987   7.196  1.9940  2.2296 -0.6345
 6391SOL     OW20849   7.884   5.761   5.651 -0.0185 -0.1744  0.2802
 6391SOL    HW120850   7.872   5.716   5.734  1.4932  2.0676  1.7682
 6391SOL    HW220851   7.977   5.753   5.631 -0.2481 -0.1361 -0.8648
 6392SOL     OW20852   3.287   7.311   5.641 -0.5686 -0.3319  0.0978
 6392SOL    HW120853   3.208   7.288   5.691 -0.7032 -0.8607 -0.3525
 6392SOL    HW220854   3.254   7.332   5.554 -0.3685  0.9181  0.3176
 6393SOL     OW20855   3.828   0.729   1.596  0.9170 -0.2428 -0.0727
 6393SOL    HW120856   3.832   0.654   1.655  2.1427 -0.6151 -0.6099
 6393SOL    HW220857   3.913   0.730   1.553  0.5733  0.9117 -0.7501
 6394SOL     OW20858   7.450   4.230   3.250  0.8712  0.0314  0.1674
 6394SOL    HW120859   7.466   4.296   3.318 -0.3517  0.9435 -0.4140
 6394SOL    HW220860   7.495   4.152   3.282  1.9084  0.9935  1.1180
 6395SOL     OW20861   0.672   0.112   1.289 -0.3046 -0.0865  0.5087
 6395SOL    HW120862   0.704   0.201   1.276 -1.2421 -0.0440 -1.7443
 6395SOL    HW220863   0.587   0.123   1.331 -0.1917  0.0402  0.7082
 6396SOL     OW20864   4.754   0.947   2.563  0.4435 -0.0278 -0.1131
 6396SOL    HW120865   4.798   0.863   2.570  0.6033  0.0989  0.4553
 6396SOL    HW220866   4.809   1.008   2.613  0.7713  0.5950 -1.2140
 6397SOL     OW20867   8.306   4.393   4.326 -0.2947  0.0012 -0.2877
 6397SOL    HW120868   8.286   4.481   4.295 -0.4777  0.2023  0.3891
 6397SOL    HW220869   8.361   4.407   4.403 -1.2538 -0.4428  0.4900
 6398SOL     OW20870   3.523   4.838   8.403 -0.5314  0.0738 -0.2532
 6398SOL    HW120871   3.463   4.809   8.472 -0.6857  0.3131 -0.2825
 6398SOL    HW220872   3.466   4.875   8.336 -0.2391  2.8434  0.9339
 6399SOL     OW20873   6.349   5.156   0.104  0.6055  0.2569 -0.4117
 6399SOL    HW120874   6.330   5.238   0.149  1.2309 -0.8358  1.9350
 6399SOL    HW220875   6.265   5.112   0.096  0.4467  0.5908 -0.5875
 6400SOL     OW20876   1.338   3.771   8.272 -0.0194 -0.4888  0.2232
 6400SOL    HW120877   1.296   3.707   8.330  1.0306 -1.1580  0.2616
 6400SOL    HW220878   1.390   3.825   8.330  0.7705 -0.9479 -0.0497
 6401SOL     OW20879   8.546   5.965   9.282  0.1495 -0.0721  0.6895
 6401SOL    HW120880   8.486   5.891   9.289 -1.4312  0.9979 -1.1484
 6401SOL    HW220881   8.600   5.958   9.361 -1.0549 -2.2103  1.3936
 6402SOL     OW20882   1.869   3.053   5.111  0.2707 -0.3924 -0.0291
 6402SOL    HW120883   1.885   3.139   5.072 -0.1248  1.0392  2.8608
 6402SOL    HW220884   1.787   3.024   5.070  1.3397 -0.2629 -2.3600
 6403SOL     OW20885   7.767   0.323   4.913 -0.4495 -0.5449 -0.2380
 6403SOL    HW120886   7.812   0.246   4.878 -0.7979 -0.9002  0.0732
 6403SOL    HW220887   7.683   0.324   4.868 -1.1345 -1.3398  0.9684
 6404SOL     OW20888   1.842   7.989   2.550  0.2623  0.1261  0.2750
 6404SOL    HW120889   1.905   7.957   2.615  0.5359 -0.8283 -0.4476
 6404SOL    HW220890   1.896   8.028   2.481  0.0235  0.0694  0.0532
 6405SOL     OW20891   5.407   3.919   3.947  0.2475  0.6879 -0.4245
 6405SOL    HW120892   5.321   3.952   3.973 -0.2434  0.4247 -1.6635
 6405SOL    HW220893   5.417   3.948   3.856  1.5763  0.9248 -0.2111
 6406SOL     OW20894   6.686   5.901   0.849  0.4262  0.3225  0.1277
 6406SOL    HW120895   6.657   5.991   0.864  2.9310  1.2909 -0.5161
 6406SOL    HW220896   6.624   5.847   0.899 -1.2910  2.3616  0.2883
 6407SOL     OW20897   7.160   4.689   3.729 -0.4991 -0.2309  0.0730
 6407SOL    HW120898   7.234   4.733   3.771 -0.0383 -1.3467  0.4608
 6407SOL    HW220899   7.084   4.716   3.780 -0.2038 -0.0078  0.4004
 6408SOL     OW20900   8.969   6.364   7.045  0.4201  0.5433  0.1591
 6408SOL    HW120901   8.964   6.412   6.963  1.4866  1.1951  0.4750
 6408SOL    HW220902   8.975   6.272   7.019  1.9934  0.8311 -0.5202
 6409SOL     OW20903   6.523   1.171   2.663  0.1444 -0.0061 -0.1736
 6409SOL    HW120904   6.579   1.146   2.737  1.0957 -0.3972 -1.0230
 6409SOL    HW220905   6.491   1.258   2.687 -0.9659 -0.8536  1.5120
 6410SOL     OW20906   6.095   6.966   5.728  0.0979 -0.3034  0.3808
 6410SOL    HW120907   6.066   7.016   5.805  0.0166  0.6043 -0.2286
 6410SOL    HW220908   6.169   6.914   5.761  1.4325  1.6641  0.6014
 6411SOL     OW20909   2.051   8.528   5.575  0.2771 -0.7414 -0.1325
 6411SOL    HW120910   2.105   8.593   5.621  0.5241 -0.0184 -1.4223
 6411SOL    HW220911   2.107   8.496   5.505 -1.2750  0.7131 -2.0814
 6412SOL     OW20912   2.092   0.834   2.821 -0.3433 -0.1111  0.1567
 6412SOL    HW120913   2.103   0.765   2.756 -1.3813 -0.8881  0.8002
 6412SOL    HW220914   2.001   0.826   2.849 -0.0463  0.5714  1.3110
 6413SOL     OW20915   0.923   8.296   6.743 -0.0296  0.0086  0.2646
 6413SOL    HW120916   0.944   8.252   6.825  1.0334  1.9081  1.0379
 6413SOL    HW220917   0.965   8.381   6.750 -1.4695  0.8970 -1.4909
 6414SOL     OW20918   2.422   9.136   2.898 -0.1492 -0.2194 -0.1243
 6414SOL    HW120919   2.472   9.055   2.900  0.5262  0.2312  2.2437
 6414SOL    HW220920   2.411   9.161   2.990 -2.2865  1.1891 -0.7123
 6415SOL     OW20921   5.676   2.066   4.660 -0.0587 -0.5302 -0.4929
 6415SOL    HW120922   5.590   2.106   4.675  0.1736 -0.3429  0.3854
 6415SOL    HW220923   5.735   2.141   4.647 -0.0927 -0.6696 -1.4585
 6416SOL     OW20924   3.450   4.262   4.925  0.5612  0.2910 -0.0501
 6416SOL    HW120925   3.380   4.328   4.934 -0.0787 -0.5520  1.3363
 6416SOL    HW220926   3.427   4.213   4.846 -0.1091  0.3836  0.0845
 6417SOL     OW20927   1.087   7.676   8.632  0.4577 -0.0730 -0.2094
 6417SOL    HW120928   1.126   7.753   8.673  0.4543 -1.7398  3.0248
 6417SOL    HW220929   1.002   7.666   8.676 -0.1044 -1.1869 -1.5075
 6418SOL     OW20930   4.746   5.734   6.637  0.0802  0.0785 -0.3979
 6418SOL    HW120931   4.696   5.747   6.717 -0.8186 -0.6474 -0.8356
 6418SOL    HW220932   4.820   5.795   6.645  0.3184 -0.3851  1.2327
 6419SOL     OW20933   0.861   2.031   3.428  0.2777 -0.4187  0.7241
 6419SOL    HW120934   0.860   1.952   3.482  1.8552 -1.0801 -0.1803
 6419SOL    HW220935   0.867   2.000   3.338 -0.8162  0.7076  0.2474
 6420SOL     OW20936   8.805   3.031   6.369  0.1508 -0.3575  0.9982
 6420SOL    HW120937   8.826   3.105   6.312  0.6434 -0.7574  0.6494
 6420SOL    HW220938   8.890   2.991   6.389 -0.0686 -0.5318  1.5863
 6421SOL     OW20939   3.059   6.855   8.229  0.1694  0.3864 -0.1228
 6421SOL    HW120940   3.040   6.776   8.280 -0.5130 -0.1773 -1.2533
 6421SOL    HW220941   3.030   6.835   8.141  1.1750  1.4394 -0.7087
 6422SOL     OW20942   1.224   4.884   2.367  0.2105  0.5351 -0.0384
 6422SOL    HW120943   1.131   4.908   2.368  0.3730  1.1317  1.6918
 6422SOL    HW220944   1.225   4.791   2.388  0.0198  0.5469  0.0261
 6423SOL     OW20945   5.147   4.509   8.411  0.1940 -0.2307 -1.0610
 6423SOL    HW120946   5.197   4.485   8.332  0.3909 -0.7944 -0.7666
 6423SOL    HW220947   5.114   4.426   8.445  1.2360 -0.1438  0.2054
 6424SOL     OW20948   1.688   4.709   5.523 -0.1123  0.1810  0.1700
 6424SOL    HW120949   1.766   4.761   5.500  1.5430 -2.1826  0.3266
 6424SOL    HW220950   1.696   4.693   5.617 -1.8299  1.5586  0.5838
 6425SOL     OW20951   7.569   3.109   1.430  0.9638  0.4150  0.2371
 6425SOL    HW120952   7.527   3.048   1.369  1.7700 -1.3307  1.4016
 6425SOL    HW220953   7.525   3.192   1.414 -1.8210 -0.9984  0.2988
 6426SOL     OW20954   8.937   4.021   2.695 -0.7735 -0.8312  0.4001
 6426SOL    HW120955   8.931   4.064   2.610  0.7414 -2.5280 -0.6003
 6426SOL    HW220956   8.915   3.929   2.677  0.5523 -1.4078  1.6435
 6427SOL     OW20957   8.516   1.157   5.889  0.2978  0.7233  0.6325
 6427SOL    HW120958   8.588   1.215   5.913  1.9178 -1.2807  0.7694
 6427SOL    HW220959   8.540   1.072   5.927  0.0691 -1.0988 -3.0771
 6428SOL     OW20960   7.640   1.359   8.913 -0.3004  0.2354 -0.1406
 6428SOL    HW120961   7.548   1.374   8.935  0.0053  1.5582  0.3076
 6428SOL    HW220962   7.678   1.318   8.990 -0.4725 -0.1113 -0.2428
 6429SOL     OW20963   4.963   5.563   1.663  0.4975  0.0763 -0.5484
 6429SOL    HW120964   4.879   5.574   1.620 -0.7660  0.7671  1.9839
 6429SOL    HW220965   4.990   5.474   1.641 -1.9051 -0.8942  0.2798
 6430SOL     OW20966   9.176   2.747   6.683 -0.4878 -0.0234  0.6743
 6430SOL    HW120967   9.244   2.708   6.628 -0.2919  0.8519  0.2945
 6430SOL    HW220968   9.110   2.779   6.621 -0.8819 -0.1910  1.0054
 6431SOL     OW20969   6.830   1.988   0.883 -0.0183  0.1666 -0.7392
 6431SOL    HW120970   6.796   1.903   0.854  0.6742  0.6354 -3.0480
 6431SOL    HW220971   6.855   1.974   0.974  0.5358 -2.2334 -1.2247
 6432SOL     OW20972   3.260   7.825   1.939  0.1459  0.0025 -0.6471
 6432SOL    HW120973   3.175   7.810   1.898  0.2323 -1.6508 -0.2411
 6432SOL    HW220974   3.243   7.824   2.033  0.4191  0.9029 -0.5817
 6433SOL     OW20975   4.973   3.259   1.705  0.8418 -0.1633 -0.3249
 6433SOL    HW120976   4.965   3.164   1.713 -0.9848 -0.0178 -0.2199
 6433SOL    HW220977   5.067   3.276   1.708  1.1807 -1.9778 -0.4704
 6434SOL     OW20978   2.749   1.116   8.707  0.7664  0.4028  0.7388
 6434SOL    HW120979   2.741   1.176   8.633 -0.3667 -0.3805  0.2132
 6434SOL    HW220980   2.678   1.142   8.766  0.9576  0.2881  1.0157
 6435SOL     OW20981   2.123   8.527   8.216 -0.2578  0.5993  0.0968
 6435SOL    HW120982   2.104   8.489   8.130  0.1000  0.9919 -0.1605
 6435SOL    HW220983   2.125   8.452   8.275  0.5742  0.1923 -0.4315
 6436SOL     OW20984   1.225   3.548   5.951  1.0175 -0.9710  0.2357
 6436SOL    HW120985   1.150   3.516   6.001  0.4171  1.7818  1.1570
 6436SOL    HW220986   1.279   3.470   5.937 -0.1300 -2.3011  2.8568
 6437SOL     OW20987   4.151   9.025   8.725 -0.1995 -0.6250 -0.0743
 6437SOL    HW120988   4.145   9.111   8.684  0.2182  0.0823  1.3340
 6437SOL    HW220989   4.078   8.976   8.687 -1.3474  0.8263  0.2026
 6438SOL     OW20990   2.501   2.080   4.126  0.3828  0.3066  0.3490
 6438SOL    HW120991   2.473   2.022   4.056 -0.2118  0.6510  0.3000
 6438SOL    HW220992   2.573   2.130   4.088  2.5722 -2.1070  1.1718
 6439SOL     OW20993   8.666   5.385   3.007 -1.0527 -0.2250  0.5832
 6439SOL    HW120994   8.636   5.345   3.089 -0.0244  0.3725  1.2531
 6439SOL    HW220995   8.760   5.367   3.004 -1.2320 -0.9976 -0.8972
 6440SOL     OW20996   1.482   5.447   4.887 -0.5640 -0.1475  0.4271
 6440SOL    HW120997   1.483   5.351   4.889  0.9508 -0.1583 -0.2680
 6440SOL    HW220998   1.452   5.469   4.799 -1.7285  0.0268  0.8615
 6441SOL     OW20999   6.967   4.467   5.366 -0.0438  0.1925 -0.3562
 6441SOL    HW121000   6.931   4.388   5.327  0.2012 -0.6484  1.1130
 6441SOL    HW221001   6.952   4.458   5.460  1.9960  0.8345  0.0716
 6442SOL     OW21002   0.104   5.404   8.679 -0.0632  1.0536 -0.2778
 6442SOL    HW121003   0.096   5.461   8.756  2.0741  1.0257  0.0043
 6442SOL    HW221004   0.043   5.332   8.696 -1.3300  2.2308  0.2825
 6443SOL     OW21005   0.930   9.237   1.261  0.8686 -0.3751  0.5928
 6443SOL    HW121006   0.835   9.244   1.252  0.7366 -2.0130  0.7159
 6443SOL    HW221007   0.957   9.324   1.291 -0.5771  0.1218  0.4842
 6444SOL     OW21008   2.351   5.802   5.129  0.0773 -0.4657 -0.1840
 6444SOL    HW121009   2.428   5.849   5.159 -0.2772 -1.4789  2.4348
 6444SOL    HW221010   2.286   5.870   5.113  0.3280  0.1221  1.2499
 6445SOL     OW21011   2.822   6.289   7.112 -0.0642  0.3364  0.1002
 6445SOL    HW121012   2.910   6.256   7.133  0.2106  0.3928 -0.9521
 6445SOL    HW221013   2.816   6.372   7.159  0.1651 -0.0180  0.7695
 6446SOL     OW21014   2.160   2.256   8.108 -0.2127  0.5210  0.1992
 6446SOL    HW121015   2.236   2.308   8.133 -0.1837  0.5047  0.1452
 6446SOL    HW221016   2.149   2.273   8.014 -0.4346  0.7270  0.2629
 6447SOL     OW21017   3.570   2.188   6.146 -0.1833  0.5421 -0.1494
 6447SOL    HW121018   3.575   2.093   6.159 -0.2843  0.6452  0.6679
 6447SOL    HW221019   3.558   2.223   6.234  0.7893  1.3854 -0.3489
 6448SOL     OW21020   5.944   5.978   0.648 -0.5419 -0.0864 -0.5111
 6448SOL    HW121021   5.854   5.978   0.681 -1.0145  0.0705 -1.7757
 6448SOL    HW221022   5.966   5.886   0.639 -0.7798 -0.1269 -0.7072
 6449SOL     OW21023   8.617   1.650   2.927  0.4648 -0.2638  0.1802
 6449SOL    HW121024   8.688   1.715   2.934  0.8757 -0.6265 -0.5264
 6449SOL    HW221025   8.585   1.660   2.837  0.4727 -0.9883  0.0984
 6450SOL     OW21026   0.039   3.448   7.928 -0.2252  0.8115 -0.3474
 6450SOL    HW121027   0.006   3.377   7.983  0.8596 -0.0260 -0.7507
 6450SOL    HW221028   0.018   3.422   7.838  0.6597  0.7322 -0.5374
 6451SOL     OW21029   2.758   0.463   0.870  0.2272 -0.2306 -0.6730
 6451SOL    HW121030   2.694   0.432   0.806 -0.7732  0.1534  0.1171
 6451SOL    HW221031   2.816   0.389   0.886 -0.7732 -0.9753 -0.4881
 6452SOL     OW21032   8.043   1.396   5.923  0.2177 -0.3432 -0.5500
 6452SOL    HW121033   8.108   1.326   5.920  0.0875 -0.5119  0.5883
 6452SOL    HW221034   7.976   1.370   5.860 -0.5615 -1.9587  0.9295
 6453SOL     OW21035   8.819   5.272   5.107 -0.4888 -0.1679 -0.6332
 6453SOL    HW121036   8.832   5.329   5.182 -1.4652  1.3546 -1.5910
 6453SOL    HW221037   8.905   5.234   5.090  0.3971  1.7398 -0.5575
 6454SOL     OW21038   4.798   2.972   3.689  0.0230 -0.2057 -0.5903
 6454SOL    HW121039   4.750   2.987   3.771  1.6179 -2.2122  0.7551
 6454SOL    HW221040   4.745   2.908   3.642 -0.2340 -0.0282 -0.5449
 6455SOL     OW21041   6.210   9.231   5.176 -0.2615 -0.0046 -0.2985
 6455SOL    HW121042   6.205   9.274   5.261  0.2306 -0.3010 -0.1141
 6455SOL    HW221043   6.303   9.218   5.161 -0.4279 -1.9053  0.1254
 6456SOL     OW21044   0.628   6.431   5.209 -0.0585 -0.4306  0.2313
 6456SOL    HW121045   0.628   6.524   5.234 -0.2791  0.3472 -2.4779
 6456SOL    HW221046   0.664   6.386   5.285  0.5702  1.9442  1.3942
 6457SOL     OW21047   1.064   3.985   7.365  0.4829 -0.7941 -0.4041
 6457SOL    HW121048   1.093   3.894   7.362 -1.3718 -1.3892 -1.2519
 6457SOL    HW221049   1.035   4.004   7.276 -1.0953 -0.0510  0.2411
 6458SOL     OW21050   2.095   3.485   0.138 -0.0906  0.1339  0.3059
 6458SOL    HW121051   2.024   3.474   0.201 -0.0386 -1.4799  0.0868
 6458SOL    HW221052   2.053   3.526   0.062 -0.8854 -1.2415 -0.0025
 6459SOL     OW21053   1.606   7.382   7.075  0.9139  0.0442 -0.3620
 6459SOL    HW121054   1.567   7.295   7.067  1.3582 -0.3144  1.1826
 6459SOL    HW221055   1.695   7.372   7.041  0.8981 -0.0506 -0.3752
 6460SOL     OW21056   4.295   7.601   3.424 -0.1846  0.1959  0.3492
 6460SOL    HW121057   4.336   7.626   3.341 -2.5818  2.0806 -0.3288
 6460SOL    HW221058   4.362   7.620   3.490  1.1651  0.2163 -0.9905
 6461SOL     OW21059   0.450   4.823   2.030 -0.3357 -0.1874 -0.2992
 6461SOL    HW121060   0.360   4.856   2.018 -0.5288  0.1241  1.8520
 6461SOL    HW221061   0.504   4.902   2.037 -0.1443 -0.3596  0.1802
 6462SOL     OW21062   0.917   5.622   6.514  0.1545 -0.1738 -0.1273
 6462SOL    HW121063   0.878   5.669   6.587 -2.6197 -1.7394 -0.5270
 6462SOL    HW221064   0.947   5.691   6.455 -0.0388  1.1004  1.2217
 6463SOL     OW21065   2.670   6.688   8.979  0.4492  0.6313 -0.3819
 6463SOL    HW121066   2.677   6.679   8.884  0.9080  2.8720 -0.5924
 6463SOL    HW221067   2.703   6.605   9.013 -0.0138 -0.3307 -2.1728
 6464SOL     OW21068   1.881   6.383   4.425 -0.1628  0.6763 -0.0360
 6464SOL    HW121069   1.913   6.412   4.511 -0.2009  0.4636  0.0501
 6464SOL    HW221070   1.807   6.441   4.406 -1.4859 -0.6149  1.0293
 6465SOL     OW21071   1.318   2.771   0.445 -0.4835  0.1069 -0.1891
 6465SOL    HW121072   1.262   2.698   0.471 -1.0848  0.4693 -0.4581
 6465SOL    HW221073   1.406   2.745   0.472 -0.7849 -0.4555  0.2568
 6466SOL     OW21074   5.590   2.409   7.318  0.6395 -0.0974  0.5730
 6466SOL    HW121075   5.644   2.407   7.397 -0.5320 -2.0989  1.3782
 6466SOL    HW221076   5.541   2.326   7.321 -1.9315  1.3174 -0.4702
 6467SOL     OW21077   3.723   8.067   8.587 -0.3939  0.5846 -0.4166
 6467SOL    HW121078   3.676   8.047   8.667  1.0888 -0.3713  0.2455
 6467SOL    HW221079   3.683   8.012   8.520  0.9396 -1.5656  0.5204
 6468SOL     OW21080   1.379   8.949   6.430  0.4762  0.2023  0.3100
 6468SOL    HW121081   1.376   9.020   6.366 -2.0975 -0.2261 -0.0892
 6468SOL    HW221082   1.368   8.991   6.515  0.5952  0.4382  0.2077
 6469SOL     OW21083   4.020   4.339   9.168  0.6918  0.0250  0.1714
 6469SOL    HW121084   3.958   4.314   9.237 -1.2749 -1.3030 -2.0200
 6469SOL    HW221085   4.028   4.434   9.177  1.5748 -0.2561  3.0985
 6470SOL     OW21086   3.718   2.200   5.665 -0.0275  0.3002  0.2310
 6470SOL    HW121087   3.661   2.162   5.732 -2.2439  0.4280 -1.4968
 6470SOL    HW221088   3.704   2.294   5.673  0.0371  0.3369 -0.0949
 6471SOL     OW21089   5.043   4.607   0.006 -0.7085  0.1312  0.3598
 6471SOL    HW121090   4.952   4.579   0.019 -0.0608 -1.3945  1.7453
 6471SOL    HW221091   5.086   4.531  -0.034 -0.2523  1.1994 -1.2478
 6472SOL     OW21092   3.660   8.344   7.994  0.0726  0.6155 -0.1011
 6472SOL    HW121093   3.689   8.355   7.903 -0.1426 -0.9460 -0.3593
 6472SOL    HW221094   3.599   8.416   8.008  0.7333  1.3527 -0.9264
 6473SOL     OW21095   9.274   0.579   3.068  0.7919  0.9362  0.6883
 6473SOL    HW121096   9.264   0.656   3.125  0.4334  1.3712  0.0547
 6473SOL    HW221097   9.205   0.590   3.003  0.8826  0.1841  0.4654
 6474SOL     OW21098   4.711   3.319   8.539  0.2344 -0.0760  0.6356
 6474SOL    HW121099   4.776   3.336   8.471  0.0094  0.5559  0.5667
 6474SOL    HW221100   4.637   3.281   8.493  0.9214 -1.7105  0.8578
 6475SOL     OW21101   7.551   8.030   5.105  0.2507 -0.1835  0.7003
 6475SOL    HW121102   7.516   8.110   5.145  0.6611  0.6644 -0.6141
 6475SOL    HW221103   7.522   8.035   5.014  2.0117 -0.5188  0.1138
 6476SOL     OW21104   6.595   1.120   5.459  0.7956  0.2619  0.1068
 6476SOL    HW121105   6.614   1.176   5.534 -0.0726 -0.6637  1.0495
 6476SOL    HW221106   6.501   1.102   5.465  0.8604 -0.4400 -0.7688
 6477SOL     OW21107   7.348   0.445   9.159 -0.5776  0.4010 -0.3694
 6477SOL    HW121108   7.421   0.480   9.108 -0.0364  0.8603  0.7124
 6477SOL    HW221109   7.335   0.357   9.124  0.5175  0.3015 -0.5422
 6478SOL     OW21110   1.352   5.025   2.187 -0.4776 -0.4624  0.0761
 6478SOL    HW121111   1.305   5.013   2.104  1.2185 -2.2179 -0.6793
 6478SOL    HW221112   1.312   4.961   2.247 -0.3534 -0.6194 -0.0059
 6479SOL     OW21113   7.147   6.689   7.050  0.0109 -0.1845  0.6010
 6479SOL    HW121114   7.197   6.725   7.123 -0.8790  2.0850  0.1245
 6479SOL    HW221115   7.206   6.627   7.007  1.5917  0.7817  1.3817
 6480SOL     OW21116   7.327   5.347   5.457 -0.1689  0.2066 -0.4339
 6480SOL    HW121117   7.268   5.314   5.390 -1.4915  1.4067  0.1029
 6480SOL    HW221118   7.351   5.270   5.508 -2.3951 -0.1286  0.1764
 6481SOL     OW21119   3.599   0.530   2.540  0.2666  0.3158 -0.1277
 6481SOL    HW121120   3.622   0.439   2.522  1.0538  0.9455 -2.4552
 6481SOL    HW221121   3.657   0.556   2.612  0.8704 -0.6448 -0.2660
 6482SOL     OW21122   0.709   3.284   2.623  0.2685  0.1446 -0.2497
 6482SOL    HW121123   0.780   3.301   2.561 -0.7695  1.1350 -1.1923
 6482SOL    HW221124   0.629   3.295   2.572 -0.5634 -1.9099  0.5672
 6483SOL     OW21125   4.076   7.097   2.120 -0.9873 -0.4381 -0.8567
 6483SOL    HW121126   4.085   7.158   2.193 -0.8019  1.1467 -2.1885
 6483SOL    HW221127   4.159   7.049   2.119 -0.5246  0.3654 -0.7752
 6484SOL     OW21128   0.315   8.825   0.300  0.2872  0.2725  0.1947
 6484SOL    HW121129   0.269   8.907   0.286 -2.7234 -1.2900  0.4258
 6484SOL    HW221130   0.349   8.830   0.389  3.2337  2.6536 -0.9843
 6485SOL     OW21131   5.773   2.034   2.761  0.0637  0.0323  0.0580
 6485SOL    HW121132   5.765   1.973   2.835  0.9983 -0.2684 -0.0774
 6485SOL    HW221133   5.841   1.995   2.706  1.1886  1.5891  0.3354
 6486SOL     OW21134   4.116   3.508   3.305  0.5228  0.3482 -0.1518
 6486SOL    HW121135   4.190   3.504   3.243 -0.3576  2.3133 -1.3980
 6486SOL    HW221136   4.146   3.568   3.373 -0.2198  1.8885 -1.1414
 6487SOL     OW21137   3.308   9.028   0.323 -0.2023  0.6727 -0.3966
 6487SOL    HW121138   3.362   9.082   0.380 -1.3702 -1.2083  2.6168
 6487SOL    HW221139   3.359   8.948   0.309  0.7812  1.7511 -3.4232
 6488SOL     OW21140   1.601   0.268   8.174 -0.5934 -0.2202 -0.0434
 6488SOL    HW121141   1.555   0.274   8.257  1.0048 -0.4458  0.8723
 6488SOL    HW221142   1.659   0.344   8.172 -0.8527 -0.0353 -1.0933
 6489SOL     OW21143   5.662   4.671   7.003 -0.2478 -0.5535  0.6723
 6489SOL    HW121144   5.576   4.709   6.983 -0.4723 -0.9532  0.8639
 6489SOL    HW221145   5.709   4.674   6.920  0.2757  1.5124  1.0184
 6490SOL     OW21146   4.760   9.186   3.202 -0.0517  0.2366  0.6931
 6490SOL    HW121147   4.815   9.253   3.243  1.5244 -1.1055  0.8655
 6490SOL    HW221148   4.746   9.121   3.271 -0.6301 -0.1371  0.2296
 6491SOL     OW21149   2.773   4.546   1.663  0.8215  0.3308  0.2732
 6491SOL    HW121150   2.850   4.599   1.639  0.8198 -0.1896 -0.8977
 6491SOL    HW221151   2.790   4.461   1.623  0.8588 -0.6028  2.2045
 6492SOL     OW21152   7.652   5.620   6.066  0.3248  0.6577 -0.1737
 6492SOL    HW121153   7.571   5.615   6.116 -0.0024  0.4768 -0.7168
 6492SOL    HW221154   7.713   5.563   6.113 -0.4744 -0.8168 -0.9005
 6493SOL     OW21155   8.559   7.735   7.645  0.3976  0.0482  0.1557
 6493SOL    HW121156   8.528   7.803   7.705  1.2937  0.8680 -0.2937
 6493SOL    HW221157   8.533   7.767   7.558 -1.0576 -1.2194  0.1136
 6494SOL     OW21158   9.114   8.541   1.975  0.4996 -0.2818 -0.4956
 6494SOL    HW121159   9.024   8.526   1.945 -0.0334  0.3012  0.7662
 6494SOL    HW221160   9.104   8.586   2.059  1.9714 -0.5652 -0.1574
 6495SOL     OW21161   4.249   5.158   2.278  0.1091  0.2887 -0.4512
 6495SOL    HW121162   4.327   5.145   2.331 -1.0336  1.5912  1.6417
 6495SOL    HW221163   4.274   5.225   2.214  1.1755 -0.5000 -0.8755
 6496SOL     OW21164   8.918   5.789   6.728 -1.0853 -0.1844  0.0275
 6496SOL    HW121165   8.894   5.866   6.779 -1.5724 -1.5726  1.9186
 6496SOL    HW221166   8.992   5.750   6.775 -0.2647 -0.4176 -1.3993
 6497SOL     OW21167   8.044   7.231   1.482  0.0618 -0.0990  0.5757
 6497SOL    HW121168   8.122   7.269   1.522  0.8770 -1.3782  0.2064
 6497SOL    HW221169   8.045   7.139   1.508 -0.1869 -0.6170 -1.1584
 6498SOL     OW21170   5.675   4.759   2.799  0.3442  0.5288 -0.0499
 6498SOL    HW121171   5.710   4.672   2.779  0.8126  0.5280  0.7354
 6498SOL    HW221172   5.660   4.758   2.894  0.3127  1.2865 -0.0394
 6499SOL     OW21173   2.279   1.519   8.030  0.3210  0.3563 -0.3257
 6499SOL    HW121174   2.250   1.449   7.972  0.9731 -0.7244  0.6261
 6499SOL    HW221175   2.290   1.595   7.973  0.5350 -0.5810 -1.5439
 6500SOL     OW21176   9.056   5.309   7.527  0.3165 -0.1165  0.5664
 6500SOL    HW121177   9.137   5.261   7.545  0.2018 -0.6199 -0.2516
 6500SOL    HW221178   9.085   5.390   7.484  0.4434  0.0898  1.0427
 6501SOL     OW21179   2.384   0.248   5.109  0.6074  0.2290 -0.2067
 6501SOL    HW121180   2.313   0.197   5.069  0.0302  0.7096  0.1877
 6501SOL    HW221181   2.460   0.190   5.105 -0.2266 -0.9933  0.9750
 6502SOL     OW21182   2.133   7.952   4.033 -0.0629 -0.0066  0.6159
 6502SOL    HW121183   2.168   8.030   4.075 -0.8808  0.2450  0.8482
 6502SOL    HW221184   2.117   7.979   3.942 -0.4987  0.1458  0.7373
 6503SOL     OW21185   1.154   0.431   7.019 -0.0443  0.1769  0.2904
 6503SOL    HW121186   1.137   0.524   7.035  0.4627  0.0048  1.9653
 6503SOL    HW221187   1.201   0.428   6.936  0.0715  1.4300  0.3127
 6504SOL     OW21188   1.467   8.833   9.261  0.3414  0.1616 -0.2881
 6504SOL    HW121189   1.442   8.755   9.210  3.1787 -0.8206 -0.2788
 6504SOL    HW221190   1.444   8.810   9.351  1.2493 -0.7236 -0.2708
 6505SOL     OW21191   6.920   8.168   0.905 -0.0615  0.5615  0.5347
 6505SOL    HW121192   6.883   8.093   0.857 -0.4861  0.6923  0.6555
 6505SOL    HW221193   6.854   8.237   0.895 -0.1001  0.6256  1.2171
 6506SOL     OW21194   2.839   5.814   4.734  0.5304 -0.0999  0.2658
 6506SOL    HW121195   2.792   5.802   4.652  1.4002  0.3072 -0.3067
 6506SOL    HW221196   2.878   5.728   4.752 -1.5491 -0.8221  1.4730
 6507SOL     OW21197   5.934   6.124   2.357 -0.3561 -0.2303  0.1028
 6507SOL    HW121198   5.986   6.192   2.315 -1.0067  0.2314  0.0493
 6507SOL    HW221199   5.975   6.112   2.442 -0.7651  0.8328  0.4518
 6508SOL     OW21200   2.292   8.809   0.617 -0.1076 -0.4137 -0.2752
 6508SOL    HW121201   2.317   8.717   0.617  0.6038 -0.2391  0.9614
 6508SOL    HW221202   2.199   8.809   0.595 -0.4353 -1.5338  1.0400
 6509SOL     OW21203   7.024   2.130   0.749 -0.3078  0.3087  0.0580
 6509SOL    HW121204   7.051   2.061   0.688  2.9090  1.3238  0.2734
 6509SOL    HW221205   6.965   2.085   0.810  0.1080 -1.7875 -1.0187
 6510SOL     OW21206   6.442   6.945   5.710 -0.1823  0.8002  0.1123
 6510SOL    HW121207   6.534   6.966   5.723  0.3594 -0.8022 -0.9626
 6510SOL    HW221208   6.394   7.019   5.746  1.5097  1.1649  1.6358
 6511SOL     OW21209   3.413   7.097   6.488  0.5546  0.2799 -0.2464
 6511SOL    HW121210   3.451   7.030   6.430  4.0770  1.7353  0.2532
 6511SOL    HW221211   3.319   7.083   6.481  1.0984 -3.4623 -1.6741
 6512SOL     OW21212   8.077   6.295   3.655  0.6123  0.6852 -0.4292
 6512SOL    HW121213   8.094   6.216   3.603 -0.7677  0.6168 -0.8005
 6512SOL    HW221214   8.016   6.346   3.601  0.0550  1.1367  0.6287
 6513SOL     OW21215   6.223   7.869   1.414 -0.3173 -0.1187  0.4649
 6513SOL    HW121216   6.147   7.888   1.358 -0.9591 -1.3735  0.8960
 6513SOL    HW221217   6.189   7.871   1.503  0.4257  0.5390  0.7407
 6514SOL     OW21218   3.011   7.965   2.854 -0.1258  0.3808  0.1437
 6514SOL    HW121219   2.990   7.898   2.788  0.5419  1.0545 -0.7679
 6514SOL    HW221220   2.968   8.044   2.822 -1.1033  0.3391  1.3389
 6515SOL     OW21221   4.597   5.786   3.438 -0.4180 -0.7164 -0.2848
 6515SOL    HW121222   4.518   5.798   3.385 -0.2366 -1.3339 -0.7113
 6515SOL    HW221223   4.573   5.719   3.502  0.0027 -1.5093 -0.9419
 6516SOL     OW21224   8.045   3.971   1.813 -0.3548  0.0574 -0.3291
 6516SOL    HW121225   8.133   3.987   1.848  0.3373 -0.3671 -1.7956
 6516SOL    HW221226   8.061   3.926   1.730 -1.9973 -0.8207 -0.1822
 6517SOL     OW21227   6.383   7.728   4.473  0.2872  0.4202  0.0034
 6517SOL    HW121228   6.310   7.737   4.412 -1.1649  0.6520  1.7388
 6517SOL    HW221229   6.460   7.717   4.417 -0.7968  2.1575 -1.8804
 6518SOL     OW21230   6.784   2.467   5.523  0.2428 -0.1929  0.1990
 6518SOL    HW121231   6.767   2.556   5.492 -0.9197 -0.4844 -0.0144
 6518SOL    HW221232   6.817   2.420   5.446 -1.7864 -0.6753 -0.4053
 6519SOL     OW21233   5.284   7.573   7.462  0.5095 -0.7506  0.5111
 6519SOL    HW121234   5.307   7.486   7.429  0.5239 -0.7221  0.4443
 6519SOL    HW221235   5.208   7.600   7.409  1.7533  0.1278 -0.8773
 6520SOL     OW21236   4.376   6.176   6.927 -0.5230 -0.2400  0.4625
 6520SOL    HW121237   4.316   6.184   6.853 -0.4150  0.9580  0.4953
 6520SOL    HW221238   4.343   6.101   6.977 -2.1775  0.5976  0.6532
 6521SOL     OW21239   2.895   6.228   5.785  0.5209  0.0164 -0.1352
 6521SOL    HW121240   2.962   6.225   5.717 -0.1821  0.5138 -0.8818
 6521SOL    HW221241   2.852   6.143   5.781  1.0749 -0.2855  0.3138
 6522SOL     OW21242   5.933   0.605   1.377 -0.9380 -0.5504 -0.4678
 6522SOL    HW121243   5.846   0.642   1.363 -0.6824  0.5379  0.6020
 6522SOL    HW221244   5.920   0.539   1.445 -0.8122  0.1632  0.2575
 6523SOL     OW21245   8.058   3.804   5.717 -0.6024 -0.7769 -0.5544
 6523SOL    HW121246   8.081   3.883   5.666  2.3173 -0.9820  0.3393
 6523SOL    HW221247   8.020   3.744   5.652  0.7553 -0.0942 -2.0278
 6524SOL     OW21248   0.890   2.154   4.480  0.2329 -0.2761  0.3200
 6524SOL    HW121249   0.961   2.156   4.545  0.3392 -0.9740  0.2302
 6524SOL    HW221250   0.836   2.230   4.502  0.6509 -0.1082  0.7951
 6525SOL     OW21251   1.142   4.067   5.138 -0.1107  0.2228 -0.9561
 6525SOL    HW121252   1.103   4.090   5.222  0.8097  1.0673 -0.7463
 6525SOL    HW221253   1.078   4.009   5.096 -0.6973  0.0306  0.1987
 6526SOL     OW21254   7.191   4.567   7.299  0.0001 -0.7928 -0.1193
 6526SOL    HW121255   7.181   4.662   7.287 -0.4225 -0.8717 -0.3921
 6526SOL    HW221256   7.122   4.543   7.360  0.0418 -0.9448 -0.1316
 6527SOL     OW21257   8.555   7.747   6.113  0.1698  0.8647  0.1547
 6527SOL    HW121258   8.551   7.837   6.145 -0.2531  0.6784  0.6177
 6527SOL    HW221259   8.638   7.743   6.066  1.1194  0.9453  1.7970
 6528SOL     OW21260   0.889   6.702   2.472 -0.2977 -0.0338  0.2938
 6528SOL    HW121261   0.867   6.612   2.445 -0.7483 -0.3579  1.7050
 6528SOL    HW221262   0.921   6.693   2.562  1.8697  0.9469 -0.3527
 6529SOL     OW21263   3.253   4.349   5.299  0.0383 -0.2060 -0.3134
 6529SOL    HW121264   3.167   4.379   5.330 -0.0956 -0.7139 -0.1865
 6529SOL    HW221265   3.272   4.271   5.352  0.5562 -0.1193 -0.3743
 6530SOL     OW21266   3.793   6.903   2.313  0.4275  0.2072  0.0697
 6530SOL    HW121267   3.863   6.839   2.325  0.0113 -0.3855 -0.6398
 6530SOL    HW221268   3.788   6.950   2.397  0.6962 -0.7196  0.6037
 6531SOL     OW21269   4.544   5.849   8.211  0.1449 -0.5722  0.6147
 6531SOL    HW121270   4.527   5.777   8.272 -0.0536 -1.0545 -0.0049
 6531SOL    HW221271   4.563   5.806   8.128  2.9854 -0.0193  0.9158
 6532SOL     OW21272   4.556   8.022   0.185 -0.5430  0.6399 -0.1279
 6532SOL    HW121273   4.476   7.990   0.228 -0.9484  1.6820 -0.0836
 6532SOL    HW221274   4.627   7.975   0.229 -1.1114 -0.0902  0.0243
 6533SOL     OW21275   7.560   7.829   5.315 -0.1709  0.8210  0.4707
 6533SOL    HW121276   7.655   7.819   5.302 -0.4368 -0.5094 -0.5183
 6533SOL    HW221277   7.530   7.879   5.240 -0.7738 -1.7845 -1.1055
 6534SOL     OW21278   2.657   7.423   2.929  0.0873  0.1535 -0.5303
 6534SOL    HW121279   2.589   7.357   2.940 -0.9946  1.0064 -1.9709
 6534SOL    HW221280   2.636   7.466   2.846  2.2405  0.5904 -0.8708
 6535SOL     OW21281   7.776   1.959   3.020 -0.3409  0.4855  0.1803
 6535SOL    HW121282   7.721   2.028   3.057 -0.6222  1.4653 -1.9890
 6535SOL    HW221283   7.725   1.925   2.946  0.2254 -1.3722  0.6160
 6536SOL     OW21284   2.721   7.181   7.733  0.5555 -0.1176 -0.0824
 6536SOL    HW121285   2.717   7.208   7.825  1.9500 -2.2810  0.6517
 6536SOL    HW221286   2.688   7.257   7.684 -0.3270  1.0163  2.1954
 6537SOL     OW21287   1.332   1.708   5.245  0.1917  0.0754  0.2193
 6537SOL    HW121288   1.405   1.769   5.250 -0.7923  1.3115 -0.3268
 6537SOL    HW221289   1.283   1.723   5.325 -0.6010  0.7098 -0.3841
 6538SOL     OW21290   6.607   0.589   4.535  0.3200  0.1054 -0.4633
 6538SOL    HW121291   6.537   0.645   4.501 -0.3007 -0.8277 -0.7431
 6538SOL    HW221292   6.573   0.554   4.617  1.2187  1.1488  0.3686
 6539SOL     OW21293   7.516   2.426   3.144 -0.2688  0.3778 -0.0521
 6539SOL    HW121294   7.586   2.413   3.208 -0.3951 -0.8519 -0.1495
 6539SOL    HW221295   7.520   2.519   3.123  0.2526  0.6545  1.1946
 6540SOL     OW21296   0.408   4.519   7.109  0.2621 -0.1269 -0.4149
 6540SOL    HW121297   0.388   4.459   7.181  1.3396  0.6459  0.5451
 6540SOL    HW221298   0.333   4.577   7.104  0.1713 -0.2022  0.0695
 6541SOL     OW21299   7.856   3.508   4.564  0.2903  0.5807  0.2468
 6541SOL    HW121300   7.804   3.542   4.637 -1.7671 -1.7574 -0.0316
 6541SOL    HW221301   7.931   3.567   4.557 -0.1773  1.6035  3.3714
 6542SOL     OW21302   8.636   8.583   5.636  0.4691  0.4858  0.2251
 6542SOL    HW121303   8.703   8.526   5.598  0.8605  0.1831  1.3511
 6542SOL    HW221304   8.570   8.591   5.567  0.7874 -0.6854 -0.2298
 6543SOL     OW21305   5.966   5.256   6.096  0.1043  0.6292  0.5188
 6543SOL    HW121306   5.966   5.345   6.061 -1.9925  0.2500 -0.4918
 6543SOL    HW221307   5.943   5.267   6.188 -1.1304  1.0626  0.1661
 6544SOL     OW21308   7.290   5.421   8.532  0.1217 -0.0110 -0.4291
 6544SOL    HW121309   7.335   5.486   8.585  0.4871  0.5592 -1.4335
 6544SOL    HW221310   7.335   5.423   8.448 -1.7248  0.5050 -1.4219
 6545SOL     OW21311   1.193   8.597   4.795  0.0391 -0.3761  0.3241
 6545SOL    HW121312   1.133   8.630   4.862  0.1230 -0.8966  0.6590
 6545SOL    HW221313   1.184   8.502   4.800  0.7899 -0.4518  0.2806
 6546SOL     OW21314   5.706   3.329   1.215  0.9512 -0.4030  0.1282
 6546SOL    HW121315   5.708   3.421   1.243  0.2110 -0.5143  0.5552
 6546SOL    HW221316   5.695   3.279   1.295  1.3165 -0.8656 -0.1114
 6547SOL     OW21317   6.160   8.947   4.579  0.2998 -0.5040  0.2240
 6547SOL    HW121318   6.080   8.999   4.583  0.3566 -0.5175  2.6784
 6547SOL    HW221319   6.228   9.005   4.615  1.0616 -1.0419 -0.3368
 6548SOL     OW21320   4.958   5.601   2.589 -0.4068  0.0871  0.6517
 6548SOL    HW121321   4.990   5.689   2.606 -0.2765 -0.0184  0.9528
 6548SOL    HW221322   5.034   5.544   2.599 -0.3967 -0.0152  0.0320
 6549SOL     OW21323   0.696   9.178   6.731  0.2470  0.5051  0.4341
 6549SOL    HW121324   0.760   9.208   6.796  0.4830 -1.6300  1.2373
 6549SOL    HW221325   0.732   9.206   6.647  1.9583 -0.1649  0.9258
 6550SOL     OW21326   6.289   7.184   9.096  0.3987 -0.0409 -0.6210
 6550SOL    HW121327   6.286   7.103   9.148 -1.4706  0.7458  0.5305
 6550SOL    HW221328   6.282   7.153   9.005 -1.4031 -1.1329 -0.1430
 6551SOL     OW21329   8.643   8.307   0.392  0.2412 -0.2928  0.2124
 6551SOL    HW121330   8.594   8.239   0.347 -1.2141  0.8649 -0.0095
 6551SOL    HW221331   8.642   8.281   0.484 -2.2786  0.5577  0.4676
 6552SOL     OW21332   3.539   7.601   8.941  0.0852  0.7190 -0.1760
 6552SOL    HW121333   3.627   7.639   8.945 -0.0508  1.1285 -0.8490
 6552SOL    HW221334   3.482   7.667   8.982  0.0872  0.4775  0.2125
 6553SOL     OW21335   9.264   2.983   8.406 -0.0570 -0.1203  0.2353
 6553SOL    HW121336   9.332   2.926   8.369  0.2174  0.0039  0.5378
 6553SOL    HW221337   9.209   2.924   8.457  0.3669 -0.0803  0.7431
 6554SOL     OW21338   8.317   5.774   1.987  0.3093  0.5502 -0.2071
 6554SOL    HW121339   8.274   5.833   1.925 -1.0845 -0.2761 -0.0351
 6554SOL    HW221340   8.298   5.812   2.072  2.0992  1.5998 -0.2313
 6555SOL     OW21341   7.477   1.247   6.564 -0.5625 -0.2252 -0.3795
 6555SOL    HW121342   7.389   1.256   6.600  0.1654  2.1080  0.9466
 6555SOL    HW221343   7.529   1.211   6.636 -0.2312 -0.6456 -0.8266
 6556SOL     OW21344   0.538   2.808   2.416 -0.3142  0.1241 -0.4149
 6556SOL    HW121345   0.445   2.791   2.432  0.0869 -0.3073  1.5060
 6556SOL    HW221346   0.559   2.883   2.472  0.7293 -0.3688 -0.1360
 6557SOL     OW21347   8.543   1.866   7.602 -0.3416 -0.5842 -0.3867
 6557SOL    HW121348   8.611   1.842   7.665  0.2624 -0.6498 -1.0668
 6557SOL    HW221349   8.462   1.828   7.638 -0.3707  1.1315  1.4243
 6558SOL     OW21350   2.461   4.227   8.799 -0.1911 -0.6056  0.4822
 6558SOL    HW121351   2.537   4.286   8.792  0.1404 -1.1026 -0.2527
 6558SOL    HW221352   2.486   4.164   8.866 -0.4034 -0.1141  1.0219
 6559SOL     OW21353   2.815   1.495   4.194 -0.5532 -0.1690  0.5810
 6559SOL    HW121354   2.798   1.560   4.126  1.0740 -0.6849 -0.3622
 6559SOL    HW221355   2.729   1.469   4.226 -1.2768  1.0891 -0.3314
 6560SOL     OW21356   7.763   3.784   6.430 -0.3514 -0.1017  0.2864
 6560SOL    HW121357   7.795   3.783   6.340  3.5387  0.5294  1.5315
 6560SOL    HW221358   7.693   3.718   6.432 -0.7272  0.1041 -3.2211
 6561SOL     OW21359   1.374   6.372   8.110  0.2189 -0.3521 -0.0266
 6561SOL    HW121360   1.303   6.310   8.122 -1.3484  1.3935  0.0293
 6561SOL    HW221361   1.337   6.456   8.138  2.2953  0.5895 -0.0108
 6562SOL     OW21362   0.379   4.459   8.034  0.4197  0.4212 -0.4445
 6562SOL    HW121363   0.396   4.493   7.947  1.4108  1.0674 -0.0114
 6562SOL    HW221364   0.310   4.515   8.069 -0.1046  0.0491 -0.8745
 6563SOL     OW21365   2.496   7.541   0.803  0.2055 -0.5087  0.6062
 6563SOL    HW121366   2.432   7.584   0.746 -0.9974  0.4299  2.6006
 6563SOL    HW221367   2.581   7.567   0.768 -0.5224  0.6385 -0.3320
 6564SOL     OW21368   7.062   3.345   0.426 -0.1585 -0.9539  0.0995
 6564SOL    HW121369   7.037   3.435   0.446 -0.1962 -0.9570  0.0662
 6564SOL    HW221370   7.111   3.316   0.503  1.8350 -0.1512 -0.8240
 6565SOL     OW21371   0.208   6.143   4.965  0.0357  0.8442  0.1468
 6565SOL    HW121372   0.123   6.125   4.924  0.1627  1.0430 -0.2089
 6565SOL    HW221373   0.219   6.074   5.030 -0.3671  0.7771  0.1415
 6566SOL     OW21374   7.218   4.010   3.616  0.5528  0.4590 -0.3296
 6566SOL    HW121375   7.154   3.982   3.682 -0.3818  1.9796 -0.5701
 6566SOL    HW221376   7.184   4.093   3.583  2.0450  0.7013 -1.3161
 6567SOL     OW21377   7.760   7.856   9.164 -0.2508 -0.0093  0.5758
 6567SOL    HW121378   7.844   7.903   9.167 -0.4017  0.1860  2.3561
 6567SOL    HW221379   7.699   7.920   9.128  0.6927 -0.7307 -2.4561
 6568SOL     OW21380   6.694   6.613   1.608 -0.2980 -0.1096 -0.1612
 6568SOL    HW121381   6.659   6.693   1.647 -2.7011 -1.7276  1.1256
 6568SOL    HW221382   6.763   6.586   1.669 -1.4455 -0.5606  0.9632
 6569SOL     OW21383   1.946   6.601   7.659  0.2339 -0.3192  0.3783
 6569SOL    HW121384   1.868   6.560   7.696 -0.1943  1.4239  1.4694
 6569SOL    HW221385   1.913   6.682   7.620  1.1517 -0.7015 -1.2348
 6570SOL     OW21386   2.465   3.124   3.272  0.2789  0.3313  0.7225
 6570SOL    HW121387   2.470   3.076   3.355  0.3328 -1.2288 -0.1752
 6570SOL    HW221388   2.520   3.201   3.286  0.1754  0.1602  2.1879
 6571SOL     OW21389   5.981   1.149   1.504 -0.6166  0.4501  0.1597
 6571SOL    HW121390   5.891   1.152   1.536 -0.4071  0.1643  0.7902
 6571SOL    HW221391   6.013   1.063   1.532 -0.3332  0.3247 -0.5580
 6572SOL     OW21392   5.345   0.504   0.236 -0.1928 -0.0016  0.0017
 6572SOL    HW121393   5.258   0.479   0.206  0.2367 -0.9085 -0.5202
 6572SOL    HW221394   5.349   0.473   0.327 -0.6970  0.7621  0.2900
 6573SOL     OW21395   6.143   0.275   5.666 -0.1988  0.4121 -0.6625
 6573SOL    HW121396   6.153   0.198   5.721  0.8185  2.5669  2.3020
 6573SOL    HW221397   6.199   0.259   5.590  0.4251 -1.5140  0.1970
 6574SOL     OW21398   8.181   1.312   9.275 -0.1309 -0.4876  0.4179
 6574SOL    HW121399   8.097   1.266   9.267  0.7274 -2.0316  0.1996
 6574SOL    HW221400   8.245   1.251   9.239  1.0612  0.7953  0.3445
 6575SOL     OW21401   3.875   0.014   4.494  0.2310 -0.1923  0.0445
 6575SOL    HW121402   3.820  -0.064   4.507  0.0033 -0.2489 -1.2030
 6575SOL    HW221403   3.938  -0.012   4.427  0.6671  0.4547  0.1977
 6576SOL     OW21404   7.006   6.728   1.962 -0.2010 -0.0559  0.0732
 6576SOL    HW121405   7.022   6.722   2.056  0.1337  1.6513  0.1432
 6576SOL    HW221406   7.093   6.725   1.922 -0.2721  0.2967 -0.1103
 6577SOL     OW21407   1.504   3.396   0.945 -0.3635  0.1561 -0.2530
 6577SOL    HW121408   1.429   3.436   0.991  1.8464  2.9734  1.0981
 6577SOL    HW221409   1.531   3.463   0.883  0.9101 -0.9311 -0.8749
 6578SOL     OW21410   1.739   8.819   2.868  0.2489  0.3482 -0.8024
 6578SOL    HW121411   1.644   8.826   2.880  0.2661 -0.1105 -0.4172
 6578SOL    HW221412   1.758   8.726   2.878  0.7755  0.4765 -0.6078
 6579SOL     OW21413   7.169   8.017   1.709 -0.1279  0.1321  0.5224
 6579SOL    HW121414   7.100   8.019   1.774 -0.4743  0.7472  0.1386
 6579SOL    HW221415   7.190   7.924   1.699 -1.6877 -0.1546 -0.1975
 6580SOL     OW21416   1.747   7.644   1.530  0.1413  0.2749  0.3741
 6580SOL    HW121417   1.794   7.727   1.536  0.9111 -0.2044  0.9694
 6580SOL    HW221418   1.795   7.584   1.588 -1.3803 -0.1265  1.2620
 6581SOL     OW21419   3.850   5.421   0.379  0.0950  0.4934  0.1373
 6581SOL    HW121420   3.845   5.326   0.389  1.4238  0.0861 -2.6379
 6581SOL    HW221421   3.776   5.454   0.430 -0.8894 -2.0680  0.4664
 6582SOL     OW21422   1.542   5.759   7.557 -0.1668 -0.4051 -0.0488
 6582SOL    HW121423   1.494   5.828   7.511  0.3062  0.7906  1.2211
 6582SOL    HW221424   1.615   5.738   7.499 -0.4621 -0.0279 -0.5628
 6583SOL     OW21425   0.622   0.355   4.734 -0.0459 -0.0817  0.2025
 6583SOL    HW121426   0.588   0.283   4.787 -1.4738  2.1236  2.4151
 6583SOL    HW221427   0.712   0.329   4.712 -0.6629 -2.6802  0.6095
 6584SOL     OW21428   6.307   6.948   6.331  0.0972 -0.2976  0.0984
 6584SOL    HW121429   6.286   7.033   6.370 -1.8046 -0.7801  0.1925
 6584SOL    HW221430   6.317   6.967   6.238  0.5744  0.1740  0.2400
 6585SOL     OW21431   2.351   5.859   1.960 -0.1713 -0.0612 -0.1695
 6585SOL    HW121432   2.347   5.869   2.055  0.2048  0.7448 -0.2318
 6585SOL    HW221433   2.409   5.784   1.946  0.4067  0.3026  0.2253
 6586SOL     OW21434   5.581   7.033   0.293 -0.0643  0.1772 -0.8400
 6586SOL    HW121435   5.513   6.999   0.352  0.2203  0.9616 -0.0447
 6586SOL    HW221436   5.658   6.980   0.312  0.5959  1.7096  0.9407
 6587SOL     OW21437   5.210   0.910   2.921 -0.2386 -0.4620  0.4558
 6587SOL    HW121438   5.211   0.885   3.014 -0.4235  0.4664  0.7229
 6587SOL    HW221439   5.226   0.829   2.874 -0.1449 -0.9493  1.3057
 6588SOL     OW21440   3.021   4.491   1.823  0.0883 -0.1352 -0.3726
 6588SOL    HW121441   3.007   4.402   1.793 -0.2156  0.0218 -0.6981
 6588SOL    HW221442   2.937   4.516   1.863  0.0329  0.1573 -0.6702
 6589SOL     OW21443   8.936   0.352   3.028  0.1284  0.8155 -0.1381
 6589SOL    HW121444   8.907   0.284   3.089 -0.9336  0.8508 -0.6027
 6589SOL    HW221445   8.897   0.328   2.944  0.6964  1.3656 -0.5707
 6590SOL     OW21446   3.419   3.873   6.288 -0.3147 -0.0249  0.0598
 6590SOL    HW121447   3.471   3.805   6.246 -1.3810 -0.7613 -0.0710
 6590SOL    HW221448   3.329   3.841   6.285 -0.9032  1.6202 -0.4654
 6591SOL     OW21449   4.565   1.864   8.769 -0.5091  0.2622 -0.3766
 6591SOL    HW121450   4.546   1.940   8.714  2.3617  0.2034 -1.5247
 6591SOL    HW221451   4.547   1.894   8.858 -0.5092  1.9325 -0.9141
 6592SOL     OW21452   8.281   5.913   7.606  0.5343  0.0415 -0.2475
 6592SOL    HW121453   8.319   5.973   7.542  2.1050 -0.9268 -0.2552
 6592SOL    HW221454   8.313   5.827   7.580 -0.0520 -0.5491  0.9619
 6593SOL     OW21455   7.808   0.955   4.824  0.4584 -0.2386  0.9849
 6593SOL    HW121456   7.779   0.938   4.914  0.0947  1.0790  1.1274
 6593SOL    HW221457   7.735   1.003   4.784  0.7401 -0.5651  0.0776
 6594SOL     OW21458   5.756   8.471   1.022  0.0014  0.0369  0.3692
 6594SOL    HW121459   5.667   8.465   0.989 -0.2387  1.3613  0.7587
 6594SOL    HW221460   5.785   8.559   0.998  1.1655 -0.3374  0.3436
 6595SOL     OW21461   2.956   5.726   7.935  0.0700 -0.0531 -0.2751
 6595SOL    HW121462   3.041   5.718   7.892  0.7533  0.1341  1.0214
 6595SOL    HW221463   2.949   5.819   7.958 -0.9567  0.1374 -1.3147
 6596SOL     OW21464   8.794   9.061   6.300 -0.3418 -0.3706  0.0555
 6596SOL    HW121465   8.858   9.002   6.341  0.9426  0.8877 -0.0904
 6596SOL    HW221466   8.739   9.003   6.247  0.5179 -1.5152  0.3957
 6597SOL     OW21467   9.282   3.598   3.034  0.2760 -0.1955  0.0068
 6597SOL    HW121468   9.300   3.671   2.975  1.1624 -1.0464 -0.7852
 6597SOL    HW221469   9.282   3.521   2.978  1.2271 -1.0281  1.1163
 6598SOL     OW21470   3.861   7.055   6.833  0.2095  0.0245  0.1769
 6598SOL    HW121471   3.815   7.139   6.834 -1.6683 -0.9820  1.8564
 6598SOL    HW221472   3.826   7.009   6.757  1.9205  1.1030 -1.2885
 6599SOL     OW21473   0.267   4.846   3.947 -0.2396  0.2945  0.5354
 6599SOL    HW121474   0.173   4.852   3.968  0.2824  3.3270  2.4067
 6599SOL    HW221475   0.280   4.913   3.880  0.3885 -0.8841 -0.5199
 6600SOL     OW21476   4.130   3.416   1.533 -0.1122 -0.5131  0.1596
 6600SOL    HW121477   4.083   3.391   1.613  0.6986  0.7905  1.0649
 6600SOL    HW221478   4.191   3.484   1.562 -0.0855  0.2502 -1.6437
 6601SOL     OW21479   6.435   7.667   1.358 -0.0024 -0.1353 -0.2963
 6601SOL    HW121480   6.370   7.678   1.428  0.0353  3.2569 -0.7009
 6601SOL    HW221481   6.385   7.681   1.277  0.8467  0.5494 -0.7050
 6602SOL     OW21482   7.521   3.968   9.220 -0.0806 -0.1316  0.1982
 6602SOL    HW121483   7.437   3.957   9.265  0.1424  0.6795  0.8327
 6602SOL    HW221484   7.539   3.882   9.182 -1.1686 -0.3327  0.1015
 6603SOL     OW21485   5.566   7.732   4.679 -0.4582 -0.0928  0.0010
 6603SOL    HW121486   5.570   7.793   4.753  0.2689 -0.3067  0.1343
 6603SOL    HW221487   5.544   7.648   4.718  4.0808 -1.1413  0.5229
 6604SOL     OW21488   8.550   2.939   5.258  0.1769  0.0009 -0.1669
 6604SOL    HW121489   8.459   2.968   5.258  0.0305 -0.4507 -0.2387
 6604SOL    HW221490   8.598   3.011   5.297 -0.2690  0.0633  0.2764
 6605SOL     OW21491   1.007   3.459   1.474  0.4316 -0.7416 -0.0092
 6605SOL    HW121492   1.022   3.540   1.425  0.2895 -1.6162 -1.5333
 6605SOL    HW221493   1.092   3.414   1.473  0.6568 -0.3663  1.3176
 6606SOL     OW21494   0.214   0.201   0.419 -0.4326  0.1593  0.0742
 6606SOL    HW121495   0.226   0.120   0.469 -0.5017  1.0280  1.5219
 6606SOL    HW221496   0.277   0.194   0.347  1.3059 -0.0761  1.5995
 6607SOL     OW21497   1.583   4.518   6.685 -0.2400  0.3724 -0.1078
 6607SOL    HW121498   1.613   4.549   6.770  1.7478  0.9338 -0.9886
 6607SOL    HW221499   1.663   4.503   6.635 -1.3940  0.6575 -2.1017
 6608SOL     OW21500   7.232   6.353   7.368 -0.0271 -0.2872 -0.0883
 6608SOL    HW121501   7.148   6.308   7.360  0.2327 -0.6701 -0.6671
 6608SOL    HW221502   7.288   6.311   7.303  0.3675  0.5253 -0.2861
 6609SOL     OW21503   3.836   7.055   6.392 -0.1821 -0.4058  0.4244
 6609SOL    HW121504   3.898   7.124   6.369  0.4796 -0.8786  0.7573
 6609SOL    HW221505   3.838   6.995   6.318 -0.6992 -0.1035  0.1682
 6610SOL     OW21506   6.567   4.333   1.755 -0.2787  0.0017  0.0587
 6610SOL    HW121507   6.528   4.262   1.704 -0.0470 -1.2733  1.6267
 6610SOL    HW221508   6.493   4.377   1.796 -0.4339  0.7587 -1.0358
 6611SOL     OW21509   5.651   3.831   0.711  0.0406  0.2963  0.1780
 6611SOL    HW121510   5.640   3.743   0.676  0.6905  0.4147 -0.3450
 6611SOL    HW221511   5.567   3.874   0.695 -0.5385 -0.4592  1.1265
 6612SOL     OW21512   5.860   5.977   4.372 -0.4853 -0.5614  0.5017
 6612SOL    HW121513   5.923   6.048   4.374  0.4376 -1.3485 -0.0958
 6612SOL    HW221514   5.810   5.985   4.453 -0.8904  1.2048  0.0931
 6613SOL     OW21515   2.618   6.637   0.952  0.2271 -0.7775  0.2913
 6613SOL    HW121516   2.687   6.631   1.019  0.1365 -2.2666  0.2674
 6613SOL    HW221517   2.587   6.727   0.958  0.9792 -0.5831  1.5061
 6614SOL     OW21518   8.357   2.454   0.261 -0.6656  0.1598  0.1432
 6614SOL    HW121519   8.271   2.415   0.276 -1.2388  2.1745  2.3576
 6614SOL    HW221520   8.343   2.513   0.187 -1.0888  0.1699  0.2283
 6615SOL     OW21521   6.970   2.825   5.024  0.2683 -1.1895  0.1099
 6615SOL    HW121522   7.029   2.896   4.999  0.4154 -0.4484  2.3985
 6615SOL    HW221523   6.916   2.810   4.946  0.4276  1.2624 -0.5313
 6616SOL     OW21524   6.486   1.084   8.949  0.8161  0.0930  0.4790
 6616SOL    HW121525   6.513   1.104   9.039  3.8190 -0.3541 -0.2823
 6616SOL    HW221526   6.507   0.991   8.938 -0.6170 -0.1484 -0.3357
 6617SOL     OW21527   5.009   4.129   7.717  0.3517 -0.0235  0.3693
 6617SOL    HW121528   4.943   4.060   7.725  1.1764 -0.8862 -0.2771
 6617SOL    HW221529   5.093   4.083   7.722  0.9064  0.9296 -0.0795
 6618SOL     OW21530   5.592   1.759   8.715  0.2487 -0.3855 -0.2097
 6618SOL    HW121531   5.548   1.690   8.665 -2.2817  0.9807  0.0603
 6618SOL    HW221532   5.626   1.715   8.793  0.2931 -1.6637 -0.9435
 6619SOL     OW21533   4.727   2.327   8.613  0.5669 -0.0208  0.6816
 6619SOL    HW121534   4.768   2.394   8.669  1.1369 -1.5750  2.1664
 6619SOL    HW221535   4.640   2.315   8.650 -0.3360  1.4713 -0.9356
 6620SOL     OW21536   6.718   8.428   1.062 -0.1832  0.1636 -0.1892
 6620SOL    HW121537   6.638   8.447   1.111 -0.9104 -0.7856 -0.9975
 6620SOL    HW221538   6.725   8.332   1.065  0.3720  0.1786 -1.0068
 6621SOL     OW21539   6.833   0.418   1.359 -0.5134 -0.5332 -0.7935
 6621SOL    HW121540   6.844   0.466   1.442 -1.5883 -1.9960  0.2270
 6621SOL    HW221541   6.817   0.486   1.294 -2.6109  0.4736  0.7305
 6622SOL     OW21542   0.584   3.167   0.847 -0.1045 -0.7488 -0.4313
 6622SOL    HW121543   0.657   3.104   0.850  1.1931  0.7912  1.0804
 6622SOL    HW221544   0.530   3.143   0.922  0.2713 -0.2187  0.0128
 6623SOL     OW21545   0.981   8.774   8.608  0.2462 -0.8103  0.1560
 6623SOL    HW121546   0.974   8.732   8.522 -0.3586  1.8428 -1.1254
 6623SOL    HW221547   0.914   8.842   8.607 -0.1778 -1.1579  2.9915
 6624SOL     OW21548   2.672   4.801   6.503  0.0837 -0.0327 -0.1219
 6624SOL    HW121549   2.689   4.710   6.477  0.7345  0.1646 -0.3884
 6624SOL    HW221550   2.668   4.849   6.420 -0.2957  0.1780  0.0187
 6625SOL     OW21551   3.373   6.516   6.666  0.1069  0.5061 -0.1551
 6625SOL    HW121552   3.321   6.530   6.588 -0.8702 -0.3953  0.3141
 6625SOL    HW221553   3.418   6.433   6.650 -0.6496 -0.0413  0.5260
 6626SOL     OW21554   3.583   8.760   3.850  0.6443 -0.0354 -0.2387
 6626SOL    HW121555   3.673   8.767   3.881  0.6733 -2.4531  0.3384
 6626SOL    HW221556   3.578   8.673   3.811 -1.4561  0.0398 -0.1960
 6627SOL     OW21557   8.416   8.127   6.852  0.6385  0.0057 -0.3327
 6627SOL    HW121558   8.501   8.160   6.881  1.2543 -2.3072  0.5214
 6627SOL    HW221559   8.431   8.036   6.830 -1.6283 -0.4293 -0.2013
 6628SOL     OW21560   4.926   1.446   4.636  0.3231 -0.1059  0.2848
 6628SOL    HW121561   4.857   1.382   4.616  0.8443 -0.8724  0.9237
 6628SOL    HW221562   4.879   1.524   4.665 -0.3429  0.0102 -1.0541
 6629SOL     OW21563   5.060   8.971   3.704 -0.8859  0.2281  0.0407
 6629SOL    HW121564   5.155   8.975   3.713 -0.9144 -2.0991  1.8449
 6629SOL    HW221565   5.029   9.057   3.730  0.6222  0.4541  1.0993
 6630SOL     OW21566   8.853   9.140   8.660  0.1464  0.2187 -0.0384
 6630SOL    HW121567   8.912   9.215   8.667  0.1975  0.1653  0.0927
 6630SOL    HW221568   8.770   9.170   8.695  0.6716 -0.3603  1.7484
 6631SOL     OW21569   8.149   0.967   6.602  0.3959 -0.0210 -0.1597
 6631SOL    HW121570   8.165   0.940   6.692  0.7289 -1.9659 -0.7728
 6631SOL    HW221571   8.060   1.002   6.602  0.8051  1.0731  1.1425
 6632SOL     OW21572   3.854   4.049   2.506 -0.4614 -0.3311 -0.0514
 6632SOL    HW121573   3.801   3.994   2.448  0.2839  0.6353 -1.6747
 6632SOL    HW221574   3.791   4.108   2.547 -1.0890 -1.4931  0.6680
 6633SOL     OW21575   2.038   5.234   1.536  0.0329  0.0895  0.2755
 6633SOL    HW121576   2.012   5.159   1.589  1.6518  0.3119  1.4338
 6633SOL    HW221577   1.977   5.304   1.563 -0.8215 -0.5124 -0.0693
 6634SOL     OW21578   3.537   2.714   4.899  0.5099  0.0517  0.6506
 6634SOL    HW121579   3.610   2.761   4.940 -1.3301  1.7146  2.1114
 6634SOL    HW221580   3.489   2.676   4.973 -2.1856  2.0952  0.0017
 6635SOL     OW21581   2.668   0.491   4.411 -0.2798  0.4668  0.1534
 6635SOL    HW121582   2.747   0.518   4.457 -1.3703  2.7302  0.8043
 6635SOL    HW221583   2.623   0.433   4.473  0.3153  0.0753  0.2247
 6636SOL     OW21584   0.021   6.326   6.791 -0.2495 -0.8573 -0.2442
 6636SOL    HW121585   0.018   6.236   6.824 -0.3331 -1.3845 -1.6643
 6636SOL    HW221586   0.033   6.380   6.870  1.7158 -2.2317  0.4303
 6637SOL     OW21587   3.925   7.753   3.815  0.4602 -0.0008 -0.2115
 6637SOL    HW121588   3.916   7.699   3.893 -0.0237 -0.1690 -0.3824
 6637SOL    HW221589   3.862   7.823   3.827  0.6606  0.1886 -0.2725
 6638SOL     OW21590   2.841   8.632   4.713 -0.7755 -0.0158 -0.0751
 6638SOL    HW121591   2.858   8.607   4.804 -1.8494 -0.4062  0.0256
 6638SOL    HW221592   2.915   8.595   4.664  1.9979  3.6485  1.1223
 6639SOL     OW21593   1.040   7.733   1.704  0.3390  0.0344  0.1883
 6639SOL    HW121594   1.131   7.710   1.721  0.8921  1.9551 -0.0449
 6639SOL    HW221595   1.003   7.753   1.790  0.6503  0.9876  0.1113
 6640SOL     OW21596   1.199   5.676   6.125  0.4181  0.0649 -0.0155
 6640SOL    HW121597   1.262   5.728   6.175  0.4000 -0.0816  0.1595
 6640SOL    HW221598   1.254   5.617   6.072  0.5421  2.2728 -2.4484
 6641SOL     OW21599   4.959   3.258   8.425 -0.4351 -0.0521  0.3773
 6641SOL    HW121600   5.024   3.188   8.428 -1.7608 -1.2601  1.7931
 6641SOL    HW221601   4.986   3.312   8.351  1.2043 -1.4755 -0.1113
 6642SOL     OW21602   9.076   5.212   0.060 -0.7784 -0.1889 -0.1556
 6642SOL    HW121603   9.061   5.138   0.000 -0.9055 -1.1173  1.0070
 6642SOL    HW221604   9.092   5.171   0.145  0.3173  1.0881  0.2709
 6643SOL     OW21605   7.982   1.274   0.714  0.7991 -0.2230 -0.5684
 6643SOL    HW121606   7.996   1.186   0.678 -1.9855 -0.7213 -0.5672
 6643SOL    HW221607   8.019   1.332   0.648  1.1514 -1.3419 -1.3884
 6644SOL     OW21608   8.085   5.366   6.856 -0.1319 -0.2918  0.1189
 6644SOL    HW121609   8.035   5.443   6.884 -1.9291 -1.1991 -0.5065
 6644SOL    HW221610   8.115   5.327   6.938 -1.2276 -0.2385  0.5560
 6645SOL     OW21611   6.438   2.318   4.759  0.2376 -0.3826  0.5411
 6645SOL    HW121612   6.458   2.233   4.718  0.6308 -0.7274  1.4409
 6645SOL    HW221613   6.344   2.315   4.775  0.5891 -1.5916  2.6319
 6646SOL     OW21614   2.034   9.270   6.203  0.1523 -0.3195 -0.2978
 6646SOL    HW121615   1.967   9.202   6.208 -0.0139 -0.0551  1.2412
 6646SOL    HW221616   2.014   9.318   6.123 -0.7030 -1.0554 -0.5302
 6647SOL     OW21617   7.770   3.018   8.996 -0.0462  0.7506 -0.1724
 6647SOL    HW121618   7.817   3.064   9.065  1.9249 -1.9446  0.3950
 6647SOL    HW221619   7.818   3.038   8.916 -0.3799  1.2811 -0.2380
 6648SOL     OW21620   1.477   5.278   4.301  0.0479 -0.3954  0.1498
 6648SOL    HW121621   1.427   5.214   4.250 -0.8704  0.4108  0.0507
 6648SOL    HW221622   1.499   5.347   4.238  0.5680 -0.3377  0.3916
 6649SOL     OW21623   0.259   7.053   1.160  0.0910 -0.2720  0.0669
 6649SOL    HW121624   0.326   6.991   1.189 -0.6969 -1.4971 -0.6483
 6649SOL    HW221625   0.210   7.074   1.240  1.6347  1.0538  0.6872
 6650SOL     OW21626   6.815   5.725   8.511 -0.0550 -0.4051 -0.4298
 6650SOL    HW121627   6.793   5.660   8.444 -2.3060 -0.1740  0.0676
 6650SOL    HW221628   6.798   5.809   8.470  0.2266 -0.2005 -0.1329
 6651SOL     OW21629   1.587   7.929   1.976  0.1333 -0.1192 -0.4105
 6651SOL    HW121630   1.545   7.994   1.921  0.9389  0.2773 -0.5591
 6651SOL    HW221631   1.567   7.957   2.065 -0.2958 -0.1857 -0.4832
 6652SOL     OW21632   1.253   0.843   1.554  0.3816 -0.3313  0.3759
 6652SOL    HW121633   1.159   0.831   1.566  0.3358 -0.0208  0.3217
 6652SOL    HW221634   1.263   0.936   1.533  0.8194 -0.0822  1.6112
 6653SOL     OW21635   3.282   5.118   0.014  0.7768  0.0369  0.0086
 6653SOL    HW121636   3.368   5.125   0.055 -0.3415 -1.4328  2.7218
 6653SOL    HW221637   3.224   5.166   0.073 -0.3899  0.4947 -1.4819
 6654SOL     OW21638   5.742   4.038   2.401  0.3247  0.3448 -0.2870
 6654SOL    HW121639   5.695   4.083   2.331 -1.8035 -0.5012  0.5519
 6654SOL    HW221640   5.680   4.034   2.473  0.8869 -2.7729  0.1066
 6655SOL     OW21641   1.507   6.571   5.832 -0.4960 -0.2779  0.1390
 6655SOL    HW121642   1.456   6.505   5.880  1.2791 -2.3099 -0.7050
 6655SOL    HW221643   1.596   6.562   5.867  0.0211  0.8447 -0.8637
 6656SOL     OW21644   6.313   3.670   2.916  0.1392 -0.3925 -0.5646
 6656SOL    HW121645   6.223   3.690   2.892  0.3770  1.5286  0.0733
 6656SOL    HW221646   6.361   3.751   2.900  1.4312 -0.8690  0.7687
 6657SOL     OW21647   6.539   7.178   2.492 -0.7750 -0.5978  0.2662
 6657SOL    HW121648   6.464   7.236   2.502  0.9598  1.4707  1.7255
 6657SOL    HW221649   6.552   7.170   2.398 -0.2978  2.4117  0.0467
 6658SOL     OW21650   3.162   3.786   2.181 -0.0016  0.0094 -0.0243
 6658SOL    HW121651   3.203   3.700   2.190 -0.8404 -0.6157 -1.8767
 6658SOL    HW221652   3.192   3.835   2.257  1.8799 -1.3531  0.1434
 6659SOL     OW21653   1.500   5.727   1.185  0.1747 -0.3923  0.2731
 6659SOL    HW121654   1.455   5.677   1.254  0.7680 -0.0105  0.9387
 6659SOL    HW221655   1.431   5.781   1.146 -0.0098 -0.0244  1.0991
 6660SOL     OW21656   1.920   7.820   3.146 -0.0259 -0.2149  0.5234
 6660SOL    HW121657   1.904   7.765   3.070 -0.0742 -1.7466  1.6054
 6660SOL    HW221658   1.880   7.771   3.219  2.2543 -0.0602  1.9403
 6661SOL     OW21659   7.128   4.957   7.566  0.6898 -0.8359 -0.0054
 6661SOL    HW121660   7.095   4.867   7.565 -0.9410 -0.2537 -0.6033
 6661SOL    HW221661   7.057   5.008   7.605  1.1436  0.3512 -0.7060
 6662SOL     OW21662   5.610   8.164   7.160 -0.4974  0.1578  0.1983
 6662SOL    HW121663   5.684   8.213   7.125  0.0112 -0.1782  0.7757
 6662SOL    HW221664   5.559   8.228   7.210  0.5890 -0.0439  1.6075
 6663SOL     OW21665   7.644   2.637   4.300 -0.2310  0.0690 -0.2964
 6663SOL    HW121666   7.673   2.588   4.223 -1.0221  0.5735 -0.9207
 6663SOL    HW221667   7.724   2.680   4.333 -0.0968  0.7707 -1.5070
 6664SOL     OW21668   8.043   8.044   2.784 -0.5563 -0.2923 -0.0428
 6664SOL    HW121669   8.135   8.034   2.761 -0.0547  1.7621  0.9719
 6664SOL    HW221670   8.023   7.969   2.841  1.7686  1.7309  3.5909
 6665SOL     OW21671   5.566   3.237   2.099  0.6475  0.1890 -0.1410
 6665SOL    HW121672   5.550   3.187   2.180 -1.1611  1.2221  0.1680
 6665SOL    HW221673   5.478   3.256   2.066  1.3348  2.5583 -0.6350
 6666SOL     OW21674   7.013   4.194   4.528 -0.1398  0.0992  0.4388
 6666SOL    HW121675   7.040   4.147   4.449  0.2663  0.6383  0.2570
 6666SOL    HW221676   7.058   4.278   4.523  1.3362 -0.5691  2.1725
 6667SOL     OW21677   4.986   2.440   5.289  0.1898 -0.5003  0.5579
 6667SOL    HW121678   5.001   2.380   5.361 -3.0144 -2.9701 -0.6863
 6667SOL    HW221679   4.926   2.506   5.325 -0.7425 -1.2570  0.4125
 6668SOL     OW21680   4.678   2.930   6.062 -0.1538 -0.3553  0.8750
 6668SOL    HW121681   4.773   2.933   6.056 -0.2579 -0.3732 -1.0587
 6668SOL    HW221682   4.650   3.021   6.049 -0.4615 -0.5535  0.1343
 6669SOL     OW21683   5.940   8.349   7.658 -0.4853  0.5328 -0.6677
 6669SOL    HW121684   5.874   8.293   7.699 -0.0966  0.7491  0.2681
 6669SOL    HW221685   5.936   8.326   7.565 -2.1702  0.8684 -0.6941
 6670SOL     OW21686   2.996   2.126   3.130  0.0498  0.4382  0.3280
 6670SOL    HW121687   2.941   2.143   3.207  0.5657 -0.3998  0.8925
 6670SOL    HW221688   2.937   2.138   3.055 -0.7204  0.2630  0.8959
 6671SOL     OW21689   8.191   3.510   1.631  0.3991  0.1473  0.3468
 6671SOL    HW121690   8.186   3.539   1.540  0.2585  1.8369  0.8817
 6671SOL    HW221691   8.188   3.414   1.626 -1.8769  0.2569 -1.2934
 6672SOL     OW21692   0.848   4.452   0.641  0.1172  0.0406  0.3589
 6672SOL    HW121693   0.908   4.488   0.575 -1.2410  1.4604 -0.1333
 6672SOL    HW221694   0.856   4.357   0.631 -0.7798  0.2231 -2.5734
 6673SOL     OW21695   7.491   1.359   5.082  0.3588  0.3124 -0.4269
 6673SOL    HW121696   7.509   1.446   5.048 -1.1056  0.9596  0.4329
 6673SOL    HW221697   7.474   1.372   5.175 -0.4226 -0.8050 -0.3982
 6674SOL     OW21698   0.756   2.935   1.255  0.0796  0.3247 -0.1373
 6674SOL    HW121699   0.671   2.973   1.277 -1.8525 -3.5504 -0.3443
 6674SOL    HW221700   0.783   2.888   1.334  1.6620  0.8911 -0.3261
 6675SOL     OW21701   2.065   2.207   3.658  0.1639  0.0554 -0.6602
 6675SOL    HW121702   2.020   2.144   3.715  0.0858  0.1834 -0.5793
 6675SOL    HW221703   2.156   2.178   3.657 -0.0422 -0.5983 -1.3574
 6676SOL     OW21704   4.907   8.250   4.047 -0.1288 -0.0426  0.1886
 6676SOL    HW121705   4.897   8.158   4.023 -0.1388 -0.1887  0.7413
 6676SOL    HW221706   4.995   8.254   4.086  0.2639  0.3763 -0.7335
 6677SOL     OW21707   1.021   8.778   6.913  0.4453  0.4000 -0.2595
 6677SOL    HW121708   1.053   8.840   6.847 -1.3054 -0.3930 -1.9105
 6677SOL    HW221709   0.998   8.833   6.988  1.6817  1.4192 -0.6111
 6678SOL     OW21710   0.375   2.221   5.789  0.3302 -0.4351 -0.5412
 6678SOL    HW121711   0.411   2.304   5.758  1.1323 -0.0374  1.3685
 6678SOL    HW221712   0.336   2.181   5.712 -1.9848  2.6930 -1.0710
 6679SOL     OW21713   1.118   6.671   9.147  0.1554  0.2815 -0.2957
 6679SOL    HW121714   1.083   6.735   9.085 -0.5407  1.1373  0.9576
 6679SOL    HW221715   1.178   6.722   9.202  1.0718 -0.5553 -0.5109
 6680SOL     OW21716   6.156   4.958   0.127  0.1880 -0.5587  0.1576
 6680SOL    HW121717   6.178   4.901   0.201 -1.0603 -1.4771 -0.1424
 6680SOL    HW221718   6.062   4.975   0.138  0.4215  0.9419 -0.1159
 6681SOL     OW21719   7.996   3.326   3.900  0.5002 -0.1109  0.5668
 6681SOL    HW121720   8.023   3.243   3.860  0.3094 -0.3451  0.9229
 6681SOL    HW221721   8.073   3.382   3.895  0.1453  0.2589 -1.1805
 6682SOL     OW21722   8.301   2.083   6.165 -0.4531  0.2636  0.5071
 6682SOL    HW121723   8.355   2.160   6.149  0.3820 -0.2209  0.9552
 6682SOL    HW221724   8.300   2.075   6.260  1.2683 -1.5447  0.3905
 6683SOL     OW21725   2.509   7.624   2.141  0.1473 -0.2876  0.0410
 6683SOL    HW121726   2.592   7.629   2.094 -0.1168 -2.7454 -0.7617
 6683SOL    HW221727   2.528   7.571   2.219 -0.3844  0.1995  0.5107
 6684SOL     OW21728   5.180   2.303   0.229 -0.6367 -0.1334  0.3083
 6684SOL    HW121729   5.106   2.346   0.272  0.5624  0.3403  1.9355
 6684SOL    HW221730   5.216   2.244   0.296 -0.7176 -1.8202 -1.0936
 6685SOL     OW21731   5.128   3.329   4.736 -0.6578 -0.0703 -0.3350
 6685SOL    HW121732   5.079   3.380   4.672  0.0038  0.0451 -0.7528
 6685SOL    HW221733   5.064   3.267   4.771 -1.0255 -0.1301 -1.1045
 6686SOL     OW21734   8.830   2.999   8.082  0.1487 -0.1185 -1.4431
 6686SOL    HW121735   8.886   2.994   8.159 -2.9987 -1.0785  0.8525
 6686SOL    HW221736   8.847   3.086   8.046  1.5265  0.4079  0.4097
 6687SOL     OW21737   8.060   0.578   3.526  0.7623 -0.4272 -0.2248
 6687SOL    HW121738   7.964   0.580   3.523  0.7606  1.7116  0.3923
 6687SOL    HW221739   8.086   0.550   3.439 -0.3799  2.7731 -1.6889
 6688SOL     OW21740   2.089   7.427   8.360 -0.2308 -0.1144  1.2675
 6688SOL    HW121741   2.035   7.349   8.357 -0.8908  0.3620  0.1329
 6688SOL    HW221742   2.035   7.492   8.404 -1.1937  0.7750 -1.1098
 6689SOL     OW21743   3.668   8.378   6.329  0.0145 -0.3402  0.5674
 6689SOL    HW121744   3.602   8.309   6.321  0.1703 -0.6829  1.9992
 6689SOL    HW221745   3.746   8.341   6.289 -0.1186 -0.7099  0.6427
 6690SOL     OW21746   8.380   7.102   9.096 -0.0526  0.2966 -0.6333
 6690SOL    HW121747   8.441   7.041   9.055 -0.0459 -2.3698  3.0843
 6690SOL    HW221748   8.437   7.162   9.145 -0.2475 -0.0345  0.0071
 6691SOL     OW21749   2.236   4.405   8.659 -0.5068 -0.6432  0.3839
 6691SOL    HW121750   2.166   4.409   8.594 -0.0853  0.4560 -0.0138
 6691SOL    HW221751   2.317   4.417   8.609 -0.1892  0.4524  1.1135
 6692SOL     OW21752   5.930   2.464   7.782  0.5251  0.5409  0.5904
 6692SOL    HW121753   5.941   2.498   7.871  0.0466  1.3387  0.3567
 6692SOL    HW221754   5.854   2.512   7.748 -0.8814 -1.6218  0.6521
 6693SOL     OW21755   1.020   1.530   3.572 -0.2093 -0.0752  0.4931
 6693SOL    HW121756   1.041   1.469   3.501  0.4220  2.3039 -1.4761
 6693SOL    HW221757   1.094   1.525   3.632  0.8457  0.2783 -0.7543
 6694SOL     OW21758   8.443   1.106   8.348 -0.0578  0.5906  0.5008
 6694SOL    HW121759   8.435   1.158   8.268 -1.3742  1.7065  1.3123
 6694SOL    HW221760   8.520   1.141   8.392  1.7287 -1.2471 -1.1225
 6695SOL     OW21761   7.117   2.991   0.098 -0.4813 -0.6780  0.9227
 6695SOL    HW121762   7.117   3.026   0.008  0.3135 -2.4465  0.2187
 6695SOL    HW221763   7.177   2.917   0.095 -0.4988 -0.7987  2.9235
 6696SOL     OW21764   3.618   1.782   4.641  0.0156 -0.3912 -0.1695
 6696SOL    HW121765   3.650   1.849   4.702 -0.3827  0.1241 -0.5254
 6696SOL    HW221766   3.682   1.711   4.649 -1.0441 -1.1300  2.2384
 6697SOL     OW21767   5.843   3.196   0.193  0.3765  0.1486  0.0814
 6697SOL    HW121768   5.807   3.214   0.280  1.5078 -0.0941  0.6201
 6697SOL    HW221769   5.918   3.255   0.186 -0.6975  1.3411 -1.4081
 6698SOL     OW21770   1.243   9.166   7.018  0.6417  0.5537  0.4595
 6698SOL    HW121771   1.185   9.090   7.019 -1.1046  1.7879 -1.6438
 6698SOL    HW221772   1.331   9.130   7.007 -0.4204 -1.0680 -3.2738
 6699SOL     OW21773   8.063   1.902   6.360 -0.5074 -0.3610 -0.6700
 6699SOL    HW121774   8.116   1.976   6.390 -0.6378 -0.2653 -0.6757
 6699SOL    HW221775   8.119   1.857   6.297 -0.9285  0.4930 -1.6660
 6700SOL     OW21776   2.228   2.709   8.820  0.0218 -0.0979  0.0338
 6700SOL    HW121777   2.156   2.648   8.811  0.5398 -0.6607 -0.3459
 6700SOL    HW221778   2.260   2.697   8.910  0.2280 -0.5040 -0.0930
 6701SOL     OW21779   0.864   1.392   3.009  0.1084 -0.0817 -0.1319
 6701SOL    HW121780   0.896   1.482   3.017  0.7211 -0.3482  0.3566
 6701SOL    HW221781   0.845   1.382   2.915  2.4599 -0.2659 -0.6093
 6702SOL     OW21782   3.347   5.249   5.269  0.6262  0.4633 -0.4668
 6702SOL    HW121783   3.412   5.303   5.224  0.5304 -0.0580 -1.2446
 6702SOL    HW221784   3.269   5.255   5.214  0.0210  1.0480  0.4413
 6703SOL     OW21785   1.820   8.594   0.445  0.4390  0.3874  0.9522
 6703SOL    HW121786   1.730   8.624   0.460 -0.4111 -1.8970  0.6619
 6703SOL    HW221787   1.821   8.505   0.479  1.3719 -1.1891 -2.9497
 6704SOL     OW21788   0.704   0.980   4.068  0.0152  0.0650 -0.1862
 6704SOL    HW121789   0.752   1.063   4.066 -2.4109  1.5587  0.7213
 6704SOL    HW221790   0.686   0.966   4.161 -1.0882 -0.5750 -0.4933
 6705SOL     OW21791   5.646   2.858   5.253 -0.3371  0.1508 -0.2267
 6705SOL    HW121792   5.597   2.807   5.189 -1.9147  0.5380  0.6381
 6705SOL    HW221793   5.718   2.897   5.202 -2.1167  1.2530 -2.0149
 6706SOL     OW21794   0.316   6.562   1.135  0.1340  0.0836 -0.1917
 6706SOL    HW121795   0.363   6.514   1.067 -0.7450 -0.0383 -0.7150
 6706SOL    HW221796   0.353   6.651   1.132  1.7064 -0.5058  0.7232
 6707SOL     OW21797   5.252   4.884   3.117 -0.1058 -0.0519  0.4024
 6707SOL    HW121798   5.163   4.916   3.100 -0.1908  1.1702  2.9902
 6707SOL    HW221799   5.240   4.810   3.177  0.6019 -0.2049  0.3553
 6708SOL     OW21800   6.348   6.932   1.706 -0.2187  0.0078  0.2325
 6708SOL    HW121801   6.343   6.838   1.727  0.1132 -0.2376 -0.7856
 6708SOL    HW221802   6.317   6.938   1.616 -1.1287  1.0064  0.6048
 6709SOL     OW21803   3.308   6.034   4.291 -0.3536  0.0993 -0.5566
 6709SOL    HW121804   3.392   6.065   4.322  0.2758 -0.2653 -1.8295
 6709SOL    HW221805   3.254   6.112   4.283 -0.2103  0.3068  0.4692
 6710SOL     OW21806   6.887   5.909   1.534 -0.2275 -0.1711 -0.4409
 6710SOL    HW121807   6.967   5.857   1.547 -1.3134 -0.9418  4.1104
 6710SOL    HW221808   6.914   5.999   1.549  0.0125 -0.3461  0.2175
 6711SOL     OW21809   2.667   9.070   4.029  0.3806  0.4498  0.0585
 6711SOL    HW121810   2.734   9.010   3.995  2.4716  1.9978  1.3286
 6711SOL    HW221811   2.680   9.069   4.124 -2.2177 -0.1218  0.4619
 6712SOL     OW21812   6.246   0.849   5.757 -0.0079  0.4827 -0.0709
 6712SOL    HW121813   6.171   0.811   5.712  0.5616  0.4211 -0.9824
 6712SOL    HW221814   6.296   0.892   5.688  0.1077  1.6680  0.7320
 6713SOL     OW21815   5.271   0.385   8.554 -0.5755 -0.1557 -0.1939
 6713SOL    HW121816   5.207   0.327   8.597  0.5200 -1.2811 -0.0548
 6713SOL    HW221817   5.242   0.388   8.462 -0.0430 -1.7985 -0.4374
 6714SOL     OW21818   1.025   6.019   8.310  0.0796  0.1983 -0.4398
 6714SOL    HW121819   1.093   6.046   8.373  0.4898  1.5406 -1.4436
 6714SOL    HW221820   1.074   5.993   8.232 -0.4355 -1.4349 -0.2376
 6715SOL     OW21821   3.223   1.721   7.745  0.3631 -0.5902  0.5819
 6715SOL    HW121822   3.249   1.719   7.837  0.4883  0.6244  0.5792
 6715SOL    HW221823   3.130   1.745   7.747  0.3958 -0.4482  0.3850
 6716SOL     OW21824   6.585   0.781   0.824  0.2970  0.0291 -0.5718
 6716SOL    HW121825   6.634   0.802   0.904 -0.2230  2.3438 -0.8424
 6716SOL    HW221826   6.506   0.834   0.829  0.3910  0.4321 -2.7605
 6717SOL     OW21827   1.913   1.941   2.770 -0.0615 -0.3307  0.3088
 6717SOL    HW121828   1.843   1.956   2.707  0.2739  0.2630  0.0752
 6717SOL    HW221829   1.975   1.883   2.725  0.6117  0.7950 -0.2323
 6718SOL     OW21830   7.621   5.711   4.133 -0.6345  0.0619 -0.6334
 6718SOL    HW121831   7.672   5.787   4.160 -0.3044 -0.6996  0.9082
 6718SOL    HW221832   7.686   5.644   4.111 -0.9351  0.0016 -1.3726
 6719SOL     OW21833   4.602   3.862   1.695  0.3311  0.4573  0.2448
 6719SOL    HW121834   4.619   3.951   1.664  1.4125 -0.4488 -1.8772
 6719SOL    HW221835   4.689   3.826   1.712 -0.1170 -0.1148  1.3837
 6720SOL     OW21836   8.166   2.286   0.047  0.1814  0.1735 -0.1591
 6720SOL    HW121837   8.129   2.371   0.026 -1.0748  0.2370  2.2319
 6720SOL    HW221838   8.166   2.239  -0.037  0.4445  2.3160 -1.3933
 6721SOL     OW21839   4.005   6.623   8.039 -0.7387 -0.1579 -0.1786
 6721SOL    HW121840   4.033   6.706   8.078  1.1650 -0.8303 -0.0671
 6721SOL    HW221841   3.910   6.622   8.050 -0.6492  1.4599  0.8836
 6722SOL     OW21842   0.442   2.787   3.856 -0.5438 -0.5678  0.3791
 6722SOL    HW121843   0.512   2.809   3.919 -0.6666 -0.8551  0.6162
 6722SOL    HW221844   0.411   2.702   3.885  0.5972 -1.5151 -1.1341
 6723SOL     OW21845   2.163   0.619   3.336 -0.3446  0.3337  0.2316
 6723SOL    HW121846   2.173   0.715   3.339 -0.2905  0.2809  1.8484
 6723SOL    HW221847   2.140   0.601   3.244  1.2756  1.7241 -0.4733
 6724SOL     OW21848   4.792   7.833   1.573  0.6236  0.0315  0.2973
 6724SOL    HW121849   4.734   7.811   1.501 -0.9095 -0.4255  1.6427
 6724SOL    HW221850   4.735   7.837   1.650  2.5051 -1.2429  1.8048
 6725SOL     OW21851   5.370   0.599   4.604  0.0787 -0.2288 -0.3056
 6725SOL    HW121852   5.318   0.518   4.608 -0.2832 -0.1227 -2.4181
 6725SOL    HW221853   5.321   0.661   4.659 -1.3548 -0.5191 -1.2165
 6726SOL     OW21854   8.896   8.472   6.671 -0.0860  0.2303  0.3066
 6726SOL    HW121855   8.894   8.398   6.611 -1.0585 -1.5242  2.4113
 6726SOL    HW221856   8.818   8.523   6.649 -0.1608 -0.1235 -0.2566
 6727SOL     OW21857   7.371   7.625   3.074  0.6853 -0.1135  0.0962
 6727SOL    HW121858   7.394   7.626   3.167  0.7661 -1.2239  0.0907
 6727SOL    HW221859   7.456   7.627   3.029  0.6871 -1.2193  0.0558
 6728SOL     OW21860   5.889   2.055   7.659 -0.0551 -0.4775 -0.1413
 6728SOL    HW121861   5.950   2.070   7.731 -0.0258  1.4561 -0.5299
 6728SOL    HW221862   5.817   2.116   7.677 -0.4554 -0.6177 -1.2771
 6729SOL     OW21863   0.087   5.250   3.814  0.4027  0.3196 -0.0577
 6729SOL    HW121864   0.131   5.180   3.766 -0.9232  0.8317 -2.1185
 6729SOL    HW221865   0.155   5.313   3.833  1.4356 -1.0791  0.9915
 6730SOL     OW21866   1.092   1.209   3.792  0.2954 -0.0326 -0.3022
 6730SOL    HW121867   1.147   1.215   3.715  0.6084 -1.4118 -0.2152
 6730SOL    HW221868   1.005   1.187   3.759  0.3888 -0.4378 -0.2897
 6731SOL     OW21869   6.093   6.246   8.552 -0.5024 -0.0038  0.3736
 6731SOL    HW121870   6.103   6.339   8.532 -1.5035  0.3603  1.5071
 6731SOL    HW221871   5.999   6.230   8.545  0.0705 -2.0426 -4.5155
 6732SOL     OW21872   5.332   3.820   2.865 -0.3244 -0.5125 -0.1210
 6732SOL    HW121873   5.292   3.902   2.836 -1.7676 -0.7314  1.2015
 6732SOL    HW221874   5.335   3.827   2.960 -1.5498 -2.4794  0.0776
 6733SOL     OW21875   4.148   4.620   1.702  0.3107  0.0981  0.1285
 6733SOL    HW121876   4.130   4.610   1.608  0.1287  0.5479  0.1184
 6733SOL    HW221877   4.228   4.569   1.716  0.3955  0.1145 -0.2895
 6734SOL     OW21878   4.541   6.951   2.078  0.0545 -0.2568  0.0050
 6734SOL    HW121879   4.627   6.916   2.102 -0.0805  0.2567  1.3174
 6734SOL    HW221880   4.555   6.993   1.993  1.2644  0.3523  0.4896
 6735SOL     OW21881   9.111   0.923   6.289  0.1628  0.4437 -0.6362
 6735SOL    HW121882   9.082   0.889   6.374  1.8577 -0.0009 -0.2321
 6735SOL    HW221883   9.040   0.900   6.229  0.4484 -2.1948 -0.0171
 6736SOL     OW21884   4.353   0.926   0.925  0.9088 -0.0728  0.3825
 6736SOL    HW121885   4.420   0.989   0.952  0.3016  0.0622  1.6008
 6736SOL    HW221886   4.279   0.943   0.983 -0.5346  0.3819 -1.5391
 6737SOL     OW21887   4.267   5.920   8.187 -0.4659 -0.8175  0.4440
 6737SOL    HW121888   4.359   5.895   8.194  0.2086  1.2285 -0.5334
 6737SOL    HW221889   4.240   5.888   8.101  0.5517  2.1120 -1.0389
 6738SOL     OW21890   2.933   5.636   5.385 -0.1731  0.2763 -0.2077
 6738SOL    HW121891   2.955   5.665   5.296 -0.9722 -0.4777 -0.6648
 6738SOL    HW221892   2.977   5.551   5.394  1.2127  1.0816  0.7053
 6739SOL     OW21893   8.231   8.029   3.607 -0.5918 -0.0032  0.0379
 6739SOL    HW121894   8.268   7.946   3.639  0.1880  0.3703  0.1385
 6739SOL    HW221895   8.180   8.062   3.681  2.0788  1.3842  1.3503
 6740SOL     OW21896   8.582   0.842   1.356 -0.2192 -0.3345  0.2073
 6740SOL    HW121897   8.531   0.777   1.403 -0.5947 -0.3003 -0.1492
 6740SOL    HW221898   8.518   0.890   1.303  0.0879  0.1488  0.2672
 6741SOL     OW21899   7.935   8.860   2.540  0.3957  0.1046  0.2171
 6741SOL    HW121900   7.976   8.777   2.515 -0.9337 -0.6414  0.4553
 6741SOL    HW221901   7.991   8.894   2.610  0.5948 -0.9246  0.5742
 6742SOL     OW21902   2.087   9.081   7.035 -0.3172 -0.4066  0.2214
 6742SOL    HW121903   2.176   9.116   7.036  0.0015 -1.1924 -0.2596
 6742SOL    HW221904   2.061   9.078   7.127 -0.0892  0.4363  0.3155
 6743SOL     OW21905   3.112   8.504   3.700 -0.5209 -0.2788 -0.7735
 6743SOL    HW121906   3.153   8.578   3.656  0.5569 -0.9077 -0.8448
 6743SOL    HW221907   3.146   8.507   3.789 -0.4005 -0.7370 -0.8022
 6744SOL     OW21908   2.962   3.817   6.007 -0.3511 -0.9515 -0.3063
 6744SOL    HW121909   2.900   3.890   5.999 -0.0622 -0.8764 -1.9683
 6744SOL    HW221910   2.907   3.741   6.026 -0.5474 -0.1094  2.7898
 6745SOL     OW21911   8.892   0.976   2.697  0.1860 -0.1108 -0.3403
 6745SOL    HW121912   8.852   1.004   2.779  0.0894 -1.2614  0.0225
 6745SOL    HW221913   8.986   0.983   2.713  0.1738 -0.6104 -0.0178
 6746SOL     OW21914   0.153   1.383   0.175 -0.3160  0.2592  0.4509
 6746SOL    HW121915   0.243   1.367   0.146 -0.7062 -1.2592  0.0485
 6746SOL    HW221916   0.098   1.345   0.106 -1.2552 -0.6809  1.7004
 6747SOL     OW21917   6.829   4.257   1.215 -0.5667  0.2496  0.3385
 6747SOL    HW121918   6.845   4.195   1.286 -0.0096  0.4715  0.4105
 6747SOL    HW221919   6.760   4.216   1.163  1.2535 -1.4231 -0.8163
 6748SOL     OW21920   0.024   0.011   2.513 -0.4506  0.1258 -0.0071
 6748SOL    HW121921   0.107   0.058   2.517 -0.9799  1.1265 -0.4844
 6748SOL    HW221922  -0.012   0.033   2.427 -0.2182 -2.0208 -0.6743
 6749SOL     OW21923   3.273   8.142   8.492 -0.0323 -0.4284 -0.3705
 6749SOL    HW121924   3.347   8.191   8.527  0.0471 -1.6941  1.3078
 6749SOL    HW221925   3.252   8.186   8.409  0.0301  2.4233  1.0517
 6750SOL     OW21926   6.858   3.975   3.402  0.0872 -0.1751 -0.2217
 6750SOL    HW121927   6.825   4.036   3.336  0.1078  0.3346  0.2304
 6750SOL    HW221928   6.875   4.030   3.479  0.8570 -0.6184 -0.0605
 6751SOL     OW21929   4.278   7.020   0.303 -0.0512 -0.5843 -0.5561
 6751SOL    HW121930   4.337   7.023   0.227  0.3970  0.7574 -0.1797
 6751SOL    HW221931   4.334   6.995   0.376 -0.2519 -0.7804 -0.4710
 6752SOL     OW21932   2.644   7.587   5.699  0.1600  0.0299  0.6444
 6752SOL    HW121933   2.714   7.644   5.732  0.5590  0.5291 -1.0263
 6752SOL    HW221934   2.585   7.645   5.652 -0.7279 -0.5829  0.9870
 6753SOL     OW21935   5.097   5.080   3.411 -0.0631 -0.0288  0.1521
 6753SOL    HW121936   5.166   5.130   3.368 -1.3562  1.0283 -0.7657
 6753SOL    HW221937   5.037   5.147   3.446 -1.1708 -0.9177  0.0020
 6754SOL     OW21938   5.640   1.710   6.605  0.2120  0.2869  0.2341
 6754SOL    HW121939   5.557   1.741   6.641  0.7777  1.6589  0.3946
 6754SOL    HW221940   5.693   1.789   6.596  0.4939 -0.1766 -2.5577
 6755SOL     OW21941   1.711   0.256   7.573  0.2501 -0.1156  0.5303
 6755SOL    HW121942   1.638   0.306   7.537 -0.1815 -0.3619  1.0600
 6755SOL    HW221943   1.688   0.242   7.665 -0.3943 -2.6761  0.0236
 6756SOL     OW21944   1.550   4.378   1.497 -0.1738  0.2438 -0.0792
 6756SOL    HW121945   1.533   4.300   1.550  2.2483  0.3107  0.8178
 6756SOL    HW221946   1.483   4.441   1.525 -1.2570 -0.9985  0.1905
 6757SOL     OW21947   7.138   0.125   2.589 -0.0035 -0.3491  0.0014
 6757SOL    HW121948   7.067   0.175   2.629  0.8333 -0.1090  1.2016
 6757SOL    HW221949   7.215   0.143   2.644  0.9119 -0.8662 -1.0853
 6758SOL     OW21950   5.498   8.438   6.595  0.0744 -0.3044  0.5248
 6758SOL    HW121951   5.487   8.469   6.505  1.5275 -1.2423 -0.0066
 6758SOL    HW221952   5.416   8.460   6.639 -0.2237  1.1523 -0.7338
 6759SOL     OW21953   8.507   7.573   8.823  0.4005 -0.4396 -0.1507
 6759SOL    HW121954   8.556   7.628   8.883  0.5283 -0.6389 -0.0689
 6759SOL    HW221955   8.452   7.518   8.879  1.6788 -1.7213 -0.1330
 6760SOL     OW21956   1.367   8.496   3.904 -0.1663 -0.2448 -0.0370
 6760SOL    HW121957   1.391   8.453   3.985  1.2311 -0.9414 -0.8046
 6760SOL    HW221958   1.447   8.495   3.851 -0.8450  0.8840 -1.1116
 6761SOL     OW21959   4.814   8.550   2.314  0.1086 -0.1216 -0.1806
 6761SOL    HW121960   4.898   8.514   2.288  0.3636  0.6009 -0.3661
 6761SOL    HW221961   4.836   8.635   2.354 -0.1449 -1.6095  3.3345
 6762SOL     OW21962   4.821   0.275   2.698 -0.1812 -0.2433 -0.3059
 6762SOL    HW121963   4.881   0.214   2.655  0.1813 -0.2051  0.1444
 6762SOL    HW221964   4.735   0.250   2.665 -0.2038 -1.9976  1.0229
 6763SOL     OW21965   7.564   1.608   4.961 -0.2748  0.1084 -0.0520
 6763SOL    HW121966   7.582   1.700   4.946 -1.1104  0.0552 -1.4863
 6763SOL    HW221967   7.575   1.567   4.875  1.2334 -1.3316  0.7793
 6764SOL     OW21968   2.158   2.408   7.462 -0.9439 -0.5577  0.5091
 6764SOL    HW121969   2.182   2.453   7.543 -1.2006 -1.8485  1.3274
 6764SOL    HW221970   2.232   2.348   7.446 -2.7531 -3.3564  2.1323
 6765SOL     OW21971   3.578   6.391   4.678 -0.3039 -0.0019 -0.0609
 6765SOL    HW121972   3.608   6.307   4.644  0.3333  0.6625 -1.1963
 6765SOL    HW221973   3.583   6.450   4.602 -0.8444  1.0238  0.6919
 6766SOL     OW21974   5.715   5.039   5.350  0.0768  0.1433  0.4810
 6766SOL    HW121975   5.722   4.951   5.387  1.2847  0.3706  0.8145
 6766SOL    HW221976   5.620   5.055   5.345 -0.2043 -1.6892 -0.8268
 6767SOL     OW21977   1.670   7.488   2.851  0.2108  0.1775  0.1364
 6767SOL    HW121978   1.635   7.560   2.903 -0.3844 -1.0538  1.4504
 6767SOL    HW221979   1.638   7.409   2.894  2.8560 -0.9442  0.1153
 6768SOL     OW21980   0.530   0.994   6.099 -0.3446 -0.5759  0.6732
 6768SOL    HW121981   0.507   0.905   6.124  0.4230 -1.8135 -2.7150
 6768SOL    HW221982   0.447   1.033   6.069 -0.3172 -0.8564  0.2260
 6769SOL     OW21983   2.227   0.203   7.902 -0.3897  0.0984  0.0493
 6769SOL    HW121984   2.276   0.151   7.839 -1.2886 -0.1078 -0.4777
 6769SOL    HW221985   2.215   0.144   7.977 -2.3885 -0.8547 -0.9921
 6770SOL     OW21986   0.311   0.052   3.079  0.0599 -0.5384 -0.1456
 6770SOL    HW121987   0.368   0.018   3.148  2.1240 -0.1688 -1.6088
 6770SOL    HW221988   0.320  -0.012   3.008 -1.0385 -0.2454 -0.5570
 6771SOL     OW21989   1.777   1.271   5.573  0.3004  0.1693  0.4247
 6771SOL    HW121990   1.684   1.255   5.586  0.5523 -1.7618  0.0412
 6771SOL    HW221991   1.816   1.183   5.571  2.4292  0.9836  2.8559
 6772SOL     OW21992   2.486   0.062   6.878 -0.1316  0.2521  0.5697
 6772SOL    HW121993   2.509   0.019   6.960 -0.7046 -0.1046  0.5406
 6772SOL    HW221994   2.536   0.014   6.812  0.0629  0.3176  0.6694
 6773SOL     OW21995   9.230   5.706   2.613  0.3725 -0.0599  0.1266
 6773SOL    HW121996   9.157   5.764   2.636  0.2665 -0.1110 -0.0841
 6773SOL    HW221997   9.259   5.671   2.697  0.7458  0.6675  0.3116
 6774SOL     OW21998   3.877   6.380   9.092 -0.0295  0.1819  0.3429
 6774SOL    HW121999   3.938   6.423   9.152  0.2438 -2.4735  2.0542
 6774SOL    HW222000   3.933   6.347   9.022 -0.2383  2.5169 -0.9728
 6775SOL     OW22001   2.019   2.966   0.866  0.4052  0.2895 -0.3172
 6775SOL    HW122002   2.031   2.887   0.919 -2.5063  0.0247  0.0058
 6775SOL    HW222003   1.998   3.035   0.929 -3.5592 -0.1273 -1.0405
 6776SOL     OW22004   0.438   7.078   6.714 -0.1862  0.0950  0.0270
 6776SOL    HW122005   0.418   6.985   6.729  0.4069 -0.0458 -0.0492
 6776SOL    HW222006   0.367   7.125   6.757 -1.8589 -0.4478 -2.0126
 6777SOL     OW22007   4.292   6.207   5.747 -0.1721 -0.1779 -0.5529
 6777SOL    HW122008   4.236   6.136   5.777  2.3862 -0.6295  3.5714
 6777SOL    HW222009   4.362   6.164   5.699  0.2547 -0.2554  0.1356
 6778SOL     OW22010   6.557   6.349   3.689  0.3637 -0.1266 -0.0759
 6778SOL    HW122011   6.569   6.352   3.594 -0.5719 -2.2653 -0.2969
 6778SOL    HW222012   6.587   6.261   3.714  3.7478  1.5565  2.1022
 6779SOL     OW22013   2.808   7.250   8.207 -0.0047  0.0484  0.5582
 6779SOL    HW122014   2.726   7.224   8.248 -0.5339  1.3648  0.3402
 6779SOL    HW222015   2.863   7.279   8.279  0.2394 -0.7048  0.6868
 6780SOL     OW22016   5.879   7.931   7.595 -0.2591 -0.2324  0.3979
 6780SOL    HW122017   5.814   7.953   7.662 -0.5230  0.3272 -0.0317
 6780SOL    HW222018   5.835   7.952   7.512  0.6736  0.7021  0.1253
 6781SOL     OW22019   1.607   4.787   7.694 -0.1629 -0.5789  0.1605
 6781SOL    HW122020   1.607   4.692   7.690 -1.2342 -0.6129  0.8516
 6781SOL    HW222021   1.569   4.808   7.779 -2.2978  0.4922 -1.0291
 6782SOL     OW22022   6.599   9.207   3.523  0.3091  0.3568 -0.2746
 6782SOL    HW122023   6.566   9.120   3.496 -0.2640 -0.8525  3.9810
 6782SOL    HW222024   6.519   9.259   3.537  0.5742  0.7724 -0.3024
 6783SOL     OW22025   2.679   7.062   2.051  0.0787  0.1487  0.5902
 6783SOL    HW122026   2.590   7.067   2.016  0.3354  1.0987  0.0786
 6783SOL    HW222027   2.685   7.134   2.114  1.2362  1.5543 -1.0883
 6784SOL     OW22028   7.258   2.510   3.388 -0.2389  0.1604  0.4588
 6784SOL    HW122029   7.247   2.454   3.311 -1.6499  1.7713 -0.5536
 6784SOL    HW222030   7.180   2.495   3.440 -0.3779  0.7932  0.4360
 6785SOL     OW22031   3.706   4.267   8.431  0.0366  0.4748 -0.4922
 6785SOL    HW122032   3.697   4.284   8.337  0.1212  0.5785 -0.4817
 6785SOL    HW222033   3.649   4.331   8.473  1.0952  1.3660 -0.4032
 6786SOL     OW22034   2.651   0.255   4.666 -0.4033 -0.1830  0.2492
 6786SOL    HW122035   2.636   0.268   4.760 -1.5497 -3.2960  0.5470
 6786SOL    HW222036   2.745   0.237   4.659 -0.6284 -1.8154  1.0855
 6787SOL     OW22037   1.087   1.202   4.077 -0.4785  0.0875  0.1568
 6787SOL    HW122038   1.109   1.187   3.985 -0.6208  0.8115  0.0008
 6787SOL    HW222039   0.993   1.220   4.077  0.1991  4.2132 -0.1060
 6788SOL     OW22040   0.438   8.668   3.500 -0.6163  0.2599  0.2404
 6788SOL    HW122041   0.382   8.711   3.436  0.7455  0.8804 -0.5588
 6788SOL    HW222042   0.494   8.738   3.534  1.6809 -0.8390 -1.1317
 6789SOL     OW22043   0.108   1.913   2.369 -0.4055 -0.0193  0.2626
 6789SOL    HW122044   0.067   1.938   2.451 -3.2812  1.0459 -1.4161
 6789SOL    HW222045   0.169   1.985   2.349 -1.2865  0.7849  0.4270
 6790SOL     OW22046   5.305   4.166   6.712 -0.3040  0.1305  0.1157
 6790SOL    HW122047   5.324   4.083   6.668 -0.6051 -0.3430  0.8663
 6790SOL    HW222048   5.388   4.193   6.751 -0.1771  0.2424 -0.2357
 6791SOL     OW22049   6.502   6.254   2.992 -0.4848  0.1331  0.1619
 6791SOL    HW122050   6.487   6.198   3.068 -0.4214  0.7752  0.6559
 6791SOL    HW222051   6.578   6.307   3.016  0.2705 -0.4846 -0.8270
 6792SOL     OW22052   8.340   9.179   2.647  0.5466 -0.3001 -0.2910
 6792SOL    HW122053   8.305   9.167   2.559  0.5150  2.7526 -0.7549
 6792SOL    HW222054   8.435   9.181   2.636  0.6121 -1.3337 -0.0228
 6793SOL     OW22055   1.563   3.173   1.598 -0.2602 -0.7056 -0.3478
 6793SOL    HW122056   1.581   3.119   1.522  0.5849 -0.7218 -0.1347
 6793SOL    HW222057   1.534   3.112   1.665  0.9958 -0.9439 -0.0075
 6794SOL     OW22058   4.571   3.253   1.547 -0.4170  0.4782 -0.0545
 6794SOL    HW122059   4.572   3.179   1.608  2.8155 -1.3475 -2.1493
 6794SOL    HW222060   4.614   3.324   1.594 -0.0626 -0.1670  0.6036
 6795SOL     OW22061   3.653   7.489   9.231 -0.1349 -0.0545 -0.1392
 6795SOL    HW122062   3.712   7.547   9.182  2.4169 -3.3472 -1.1148
 6795SOL    HW222063   3.711   7.436   9.286 -2.3153 -2.2909  0.1024
 6796SOL     OW22064   3.772   5.899   7.368 -0.3492 -1.0831  0.2320
 6796SOL    HW122065   3.699   5.928   7.314 -1.6652 -2.0372  1.4651
 6796SOL    HW222066   3.754   5.934   7.455  1.3198 -0.2613  0.2614
 6797SOL     OW22067   2.143   0.266   0.566  0.6250 -0.2358  0.0155
 6797SOL    HW122068   2.073   0.285   0.629 -0.1765 -0.3002 -0.8455
 6797SOL    HW222069   2.176   0.352   0.540  0.3034 -0.1813 -0.2069
 6798SOL     OW22070   1.501   1.999   8.245  0.0019  0.4572 -0.3514
 6798SOL    HW122071   1.481   2.085   8.208 -1.0737  0.0875 -0.6578
 6798SOL    HW222072   1.421   1.975   8.292 -0.6921 -1.5568 -2.5245
 6799SOL     OW22073   7.136   6.775   8.019 -0.2528 -0.6009  0.7501
 6799SOL    HW122074   7.169   6.826   8.093  0.0721 -0.1982  0.3255
 6799SOL    HW222075   7.042   6.794   8.019 -0.1735 -0.1851  0.7387
 6800SOL     OW22076   1.598   6.120   0.160 -0.1648 -0.5501  0.0954
 6800SOL    HW122077   1.675   6.151   0.112  0.2637  1.5571  2.0261
 6800SOL    HW222078   1.634   6.080   0.240 -1.0649  1.6736  1.6724
 6801SOL     OW22079   4.567   3.984   2.566 -0.0132  0.3878 -0.4342
 6801SOL    HW122080   4.618   4.047   2.617 -0.3243  1.0002 -0.8839
 6801SOL    HW222081   4.498   4.035   2.525 -0.8393 -0.3977 -0.0479
 6802SOL     OW22082   6.126   7.025   2.811 -0.2175  0.6473  0.0671
 6802SOL    HW122083   6.189   6.977   2.757 -1.1500  0.6014 -0.9855
 6802SOL    HW222084   6.078   6.957   2.858  1.0226  0.7103  1.4562
 6803SOL     OW22085   0.622   5.504   2.493 -0.2410  0.2160 -0.1835
 6803SOL    HW122086   0.609   5.521   2.586 -0.3597 -0.0059 -0.1591
 6803SOL    HW222087   0.535   5.487   2.459 -0.2228  0.5242 -0.3801
 6804SOL     OW22088   5.915   5.757   8.538 -0.5209  0.4882 -0.1827
 6804SOL    HW122089   5.849   5.691   8.516  0.9912 -0.8440 -0.7782
 6804SOL    HW222090   5.994   5.706   8.558  0.2348  2.0493  0.8913
 6805SOL     OW22091   7.718   2.048   4.029 -0.0522 -0.1756 -0.0124
 6805SOL    HW122092   7.787   2.110   4.004  0.6951 -2.1578 -3.2372
 6805SOL    HW222093   7.637   2.099   4.027  0.7968  1.1592 -0.5524
 6806SOL     OW22094   2.571   6.927   1.427 -0.0347 -0.1481  0.4105
 6806SOL    HW122095   2.563   6.974   1.344 -1.1875 -2.3487 -0.7829
 6806SOL    HW222096   2.626   6.851   1.406 -1.0243 -1.1701  1.4155
 6807SOL     OW22097   7.997   1.673   1.374  0.7733  0.1184  0.2305
 6807SOL    HW122098   8.090   1.654   1.368  0.7877  0.1292  0.4328
 6807SOL    HW222099   7.972   1.644   1.462  0.6382  0.3475  0.2674
 6808SOL     OW22100   5.379   5.924   1.504 -1.1906 -0.4797 -0.0090
 6808SOL    HW122101   5.390   5.956   1.593 -0.2972  2.4866 -1.1273
 6808SOL    HW222102   5.321   5.989   1.462 -0.3311 -0.9614 -2.0163
 6809SOL     OW22103   1.662   1.550   6.148 -0.0112 -0.2820  0.2864
 6809SOL    HW122104   1.672   1.643   6.166 -1.2672 -0.3676  1.4631
 6809SOL    HW222105   1.599   1.519   6.213  2.2187 -2.4641  1.4928
 6810SOL     OW22106   5.888   2.272   6.647 -0.4042  0.1619 -0.2803
 6810SOL    HW122107   5.959   2.323   6.608 -0.9896  0.1023 -1.4512
 6810SOL    HW222108   5.910   2.268   6.740  0.5324  1.1014 -0.4458
 6811SOL     OW22109   5.282   7.884   5.773 -0.5757  0.1599 -0.4614
 6811SOL    HW122110   5.220   7.830   5.724 -0.2729 -0.4419 -0.1921
 6811SOL    HW222111   5.244   7.971   5.773 -1.7892 -0.3533  0.3194
 6812SOL     OW22112   0.330   6.394   1.869 -0.1712  0.2224 -0.4134
 6812SOL    HW122113   0.342   6.460   1.801 -1.0153 -0.2516 -1.0366
 6812SOL    HW222114   0.382   6.425   1.942 -0.1170  1.2961 -0.8998
 6813SOL     OW22115   6.504   6.870   6.052  0.4558 -0.5310 -0.2632
 6813SOL    HW122116   6.424   6.920   6.039 -0.3217 -1.3675  1.1294
 6813SOL    HW222117   6.575   6.935   6.050 -0.3056  0.2807 -0.9483
 6814SOL     OW22118   0.358   6.269   3.677  0.9321 -0.1317  0.8133
 6814SOL    HW122119   0.380   6.217   3.755  1.8567 -0.6698  0.1997
 6814SOL    HW222120   0.349   6.205   3.607 -2.0240  0.1313  0.8889
 6815SOL     OW22121   6.190   4.165   4.477 -0.0244  0.0731 -0.1320
 6815SOL    HW122122   6.258   4.213   4.524 -0.1704  0.4909 -0.3379
 6815SOL    HW222123   6.134   4.129   4.546 -0.4661  1.0186  0.0272
 6816SOL     OW22124   8.486   0.238   2.284 -0.5517 -0.1902 -0.1307
 6816SOL    HW122125   8.439   0.259   2.204 -1.0114 -0.2001  0.1373
 6816SOL    HW222126   8.421   0.197   2.341 -0.2478 -0.1167  0.2765
 6817SOL     OW22127   6.378   8.581   0.252 -0.0610  0.4211  0.5498
 6817SOL    HW122128   6.379   8.493   0.213  0.8044  0.7415 -0.1540
 6817SOL    HW222129   6.467   8.596   0.281 -0.3367  0.8496  1.1803
 6818SOL     OW22130   4.467   5.644   5.254  0.3604 -0.3174  0.1387
 6818SOL    HW122131   4.429   5.730   5.269  1.1946 -0.1023  1.0382
 6818SOL    HW222132   4.421   5.586   5.315  0.0619 -0.4543 -0.2067
 6819SOL     OW22133   5.233   1.421   0.555  0.4667 -0.2101  0.2652
 6819SOL    HW122134   5.168   1.421   0.485 -0.2876  1.2332  0.9440
 6819SOL    HW222135   5.270   1.333   0.553 -1.3341 -0.9769 -0.2981
 6820SOL     OW22136   2.875   6.743   0.900 -0.4856 -0.2014 -0.3321
 6820SOL    HW122137   2.803   6.786   0.856 -0.9435 -1.2151 -0.5809
 6820SOL    HW222138   2.902   6.673   0.840 -0.3570 -0.8455  0.4625
 6821SOL     OW22139   6.118   6.945   2.356 -0.3142  0.0394  0.3607
 6821SOL    HW122140   6.178   7.018   2.369  0.1261 -0.2386 -0.0915
 6821SOL    HW222141   6.047   6.981   2.304  0.1722  0.0124 -0.3302
 6822SOL     OW22142   2.554   5.709   4.481 -0.2021 -0.6086  0.3531
 6822SOL    HW122143   2.543   5.693   4.574 -0.7913  0.1316  0.4123
 6822SOL    HW222144   2.649   5.703   4.467  0.0903  1.4389  1.3993
 6823SOL     OW22145   7.260   7.760   0.739  0.0978 -0.3525  0.3219
 6823SOL    HW122146   7.221   7.820   0.802 -2.2482  1.5721 -2.8202
 6823SOL    HW222147   7.186   7.712   0.702  1.1507 -0.0127 -2.3631
 6824SOL     OW22148   5.725   6.960   5.925 -0.2481  0.1912 -0.1071
 6824SOL    HW122149   5.792   7.021   5.955 -1.6041  1.9061 -0.4344
 6824SOL    HW222150   5.653   6.970   5.988 -0.3879 -1.2564 -0.0243
 6825SOL     OW22151   6.681   6.910   8.989 -0.7400  0.3342  0.4480
 6825SOL    HW122152   6.652   6.935   8.901  0.0374  0.0316  0.0983
 6825SOL    HW222153   6.769   6.875   8.975 -1.4317 -1.6551  1.0789
 6826SOL     OW22154   3.423   8.607   0.166  0.0604 -0.2812  0.0455
 6826SOL    HW122155   3.433   8.700   0.185  0.9144 -0.4015  0.2082
 6826SOL    HW222156   3.362   8.604   0.092 -0.7537  0.3506  0.6980
 6827SOL     OW22157   2.004   0.305   7.408 -0.2736  0.5795  0.0439
 6827SOL    HW122158   1.911   0.297   7.387 -0.7014 -2.7160  2.8599
 6827SOL    HW222159   2.006   0.346   7.494  0.9458  1.3984 -0.3611
 6828SOL     OW22160   5.701   5.357   9.053  0.6558  0.1828  0.0017
 6828SOL    HW122161   5.685   5.266   9.078  0.1170  0.5977  1.1927
 6828SOL    HW222162   5.703   5.355   8.957 -1.8502 -0.7026 -0.0811
 6829SOL     OW22163   4.502   0.651   2.151  0.2139  0.8109 -0.0245
 6829SOL    HW122164   4.493   0.618   2.062 -0.0754 -0.2245  0.3796
 6829SOL    HW222165   4.588   0.693   2.152  0.9284 -0.6012 -0.3551
 6830SOL     OW22166   6.784   5.263   5.130  0.3925 -0.0944 -0.4067
 6830SOL    HW122167   6.809   5.338   5.076  0.3269 -0.1843 -0.5624
 6830SOL    HW222168   6.863   5.209   5.134 -0.0562 -0.8679 -1.7207
 6831SOL     OW22169   6.381   6.858   4.125  0.0933  0.5250  0.0491
 6831SOL    HW122170   6.366   6.924   4.193  0.8284 -0.0482  0.7647
 6831SOL    HW222171   6.476   6.856   4.114  0.0476 -0.1491 -0.2401
 6832SOL     OW22172   6.814   0.745   4.795  0.4053 -0.0389  0.5179
 6832SOL    HW122173   6.849   0.833   4.808  1.1683 -0.5528  2.1041
 6832SOL    HW222174   6.869   0.689   4.850  0.2551 -1.5833 -0.8777
 6833SOL     OW22175   0.559   2.608   6.108  0.4176  0.8361  0.2528
 6833SOL    HW122176   0.547   2.516   6.131  2.1256 -0.0977 -2.3349
 6833SOL    HW222177   0.480   2.630   6.057  0.2974  0.6040  0.3402
 6834SOL     OW22178   3.013   7.758   8.506 -0.8595 -0.9424 -0.6885
 6834SOL    HW122179   3.093   7.810   8.503 -1.5779  0.1843 -0.7429
 6834SOL    HW222180   2.996   7.735   8.414 -1.5126  0.2599 -0.8770
 6835SOL     OW22181   7.039   2.074   6.495  0.2472 -0.7601  0.6570
 6835SOL    HW122182   7.030   2.136   6.567  0.5607 -0.3026  0.3076
 6835SOL    HW222183   7.125   2.035   6.507 -0.1057 -1.4135  1.0966
 6836SOL     OW22184   3.849   7.583   5.134 -0.1275 -0.0404 -0.1991
 6836SOL    HW122185   3.818   7.554   5.047 -0.4650  2.0267 -0.7856
 6836SOL    HW222186   3.944   7.570   5.131 -0.1908 -0.4173 -0.7152
 6837SOL     OW22187   5.624   2.237   0.577  0.8896  0.1618  0.2521
 6837SOL    HW122188   5.655   2.290   0.503  0.6133 -1.4384 -1.0387
 6837SOL    HW222189   5.590   2.157   0.537  0.1835 -0.4819  2.0783
 6838SOL     OW22190   9.181   3.133   6.934 -0.6938 -0.5377  0.1264
 6838SOL    HW122191   9.196   3.192   7.008  0.8099 -1.3233  0.4656
 6838SOL    HW222192   9.195   3.187   6.857  0.9945 -0.5058  0.4325
 6839SOL     OW22193   5.155   2.756   5.925 -0.7877  0.1554  0.1721
 6839SOL    HW122194   5.187   2.666   5.919  1.1929  0.9320 -1.6822
 6839SOL    HW222195   5.107   2.770   5.843  0.0035  1.1647 -0.1306
 6840SOL     OW22196   5.369   5.337   3.554  0.4861 -0.2587 -0.0043
 6840SOL    HW122197   5.459   5.368   3.566  0.8744  0.1299 -3.3806
 6840SOL    HW222198   5.360   5.264   3.615  3.1496 -0.3571  0.3273
 6841SOL     OW22199   5.610   8.651   2.711 -0.1382  0.3776 -0.0010
 6841SOL    HW122200   5.608   8.564   2.671  2.5906  0.9233 -1.4106
 6841SOL    HW222201   5.613   8.711   2.637  0.9494  1.5525  0.9755
 6842SOL     OW22202   1.177   5.340   0.284  0.3056  0.1123  0.0418
 6842SOL    HW122203   1.223   5.328   0.201  0.1348 -1.2678  0.1206
 6842SOL    HW222204   1.161   5.250   0.315 -0.7962  0.5981  0.9109
 6843SOL     OW22205   4.675   1.107   4.404  0.1716 -0.5905 -0.1496
 6843SOL    HW122206   4.662   1.170   4.475  1.6827  0.7507 -1.0205
 6843SOL    HW222207   4.587   1.074   4.385 -0.2939 -0.7290  2.0939
 6844SOL     OW22208   2.798   7.605   3.098 -0.5643  0.0549 -0.1528
 6844SOL    HW122209   2.817   7.533   3.159  2.0237 -0.7488 -1.8189
 6844SOL    HW222210   2.754   7.563   3.024 -1.0200  0.5497 -0.1629
 6845SOL     OW22211   5.909   9.080   4.562  0.4709  0.3816  0.1041
 6845SOL    HW122212   5.828   9.055   4.518 -0.7141  1.7803  1.4610
 6845SOL    HW222213   5.885   9.085   4.654  1.9895  1.3085  0.4503
 6846SOL     OW22214   2.197   2.980   8.061 -0.3054  0.2027 -0.1339
 6846SOL    HW122215   2.225   3.060   8.105 -1.5312  0.9857 -0.7260
 6846SOL    HW222216   2.103   2.974   8.081 -0.5160 -0.3313 -1.2435
 6847SOL     OW22217   3.633   3.284   1.944 -0.7018 -0.0973 -0.3693
 6847SOL    HW122218   3.548   3.269   1.904 -1.4089  0.1912  1.0070
 6847SOL    HW222219   3.615   3.294   2.037  0.8589 -0.2063 -0.0364
 6848SOL     OW22220   8.219   7.874   9.102  0.0949 -0.2768  0.1595
 6848SOL    HW122221   8.200   7.885   9.008  0.3671  0.6817  0.2050
 6848SOL    HW222222   8.314   7.883   9.107  0.0072  0.3754  0.6183
 6849SOL     OW22223   4.760   4.006   2.165 -0.1174 -0.0663  0.1085
 6849SOL    HW122224   4.670   4.031   2.183 -0.2583 -0.1824 -0.4215
 6849SOL    HW222225   4.758   3.969   2.076  0.1237 -1.7995  0.8056
 6850SOL     OW22226   0.713   8.079   5.200  0.2997  0.2471 -0.3390
 6850SOL    HW122227   0.636   8.131   5.176  0.4311 -1.0223 -3.8386
 6850SOL    HW222228   0.685   8.028   5.277 -2.3896 -0.1935 -1.5482
 6851SOL     OW22229   4.595   4.286   9.293 -0.0582  0.8008 -0.4465
 6851SOL    HW122230   4.520   4.329   9.253 -1.1909 -2.0907 -1.5033
 6851SOL    HW222231   4.568   4.272   9.384 -0.6368  0.1668 -0.7118
 6852SOL     OW22232   5.783   3.255   6.137 -0.7578  0.8364 -1.2150
 6852SOL    HW122233   5.710   3.286   6.085 -2.4333 -1.1378 -0.0918
 6852SOL    HW222234   5.773   3.160   6.139  1.0792  0.6423  0.0648
 6853SOL     OW22235   6.545   0.762   5.489 -0.2243  0.1487  0.1381
 6853SOL    HW122236   6.474   0.699   5.503 -0.4944  0.3553 -0.3079
 6853SOL    HW222237   6.512   0.821   5.421  0.2833  0.3833  0.0934
 6854SOL     OW22238   0.800   5.311   4.117 -0.3540 -0.7194  0.1358
 6854SOL    HW122239   0.803   5.332   4.023 -0.0008 -0.2017  0.2616
 6854SOL    HW222240   0.829   5.391   4.160 -0.8291 -0.8553  0.7053
 6855SOL     OW22241   0.752   4.183   0.920  0.2896 -0.6481 -0.8571
 6855SOL    HW122242   0.700   4.158   0.843 -1.0549 -1.3569  0.2505
 6855SOL    HW222243   0.690   4.228   0.977  1.9937  2.5850 -1.4771
 6856SOL     OW22244   1.495   7.991   7.762  0.2230 -0.3765  0.1446
 6856SOL    HW122245   1.552   7.974   7.687 -0.3880 -0.2227 -0.3539
 6856SOL    HW222246   1.416   7.939   7.745 -1.0400  1.7620 -0.6634
 6857SOL     OW22247   2.730   9.222   4.821  0.1701  0.1225  0.8956
 6857SOL    HW122248   2.817   9.263   4.821 -0.0228  0.5378  0.5944
 6857SOL    HW222249   2.748   9.128   4.825  0.6197  0.2281  1.4271
 6858SOL     OW22250   6.065   4.587   6.104  0.4212  0.6387 -0.7340
 6858SOL    HW122251   6.016   4.638   6.168  0.3267  0.3415 -0.5697
 6858SOL    HW222252   6.098   4.653   6.042  0.7692  0.9571 -0.2157
 6859SOL     OW22253   4.171   5.325   5.642 -0.5386 -0.4100  0.0169
 6859SOL    HW122254   4.242   5.376   5.602  2.2973 -4.7345 -0.8037
 6859SOL    HW222255   4.131   5.278   5.568 -1.7210 -0.9677  1.0013
 6860SOL     OW22256   4.921   5.473   7.941 -0.4406  0.3103  0.1761
 6860SOL    HW122257   4.923   5.484   7.846  2.3345 -1.9217 -0.0682
 6860SOL    HW222258   4.830   5.447   7.960 -0.3965 -1.6882 -2.1774
 6861SOL     OW22259   2.155   6.702   4.881  0.3208  0.5413 -0.1111
 6861SOL    HW122260   2.106   6.702   4.799  0.8756 -0.3974 -0.4533
 6861SOL    HW222261   2.235   6.653   4.861  1.9239  2.9310  0.1319
 6862SOL     OW22262   1.837   8.899   3.118  0.0953  0.3414 -0.1592
 6862SOL    HW122263   1.927   8.931   3.111 -0.5103  1.5970 -2.5088
 6862SOL    HW222264   1.819   8.859   3.033 -2.2069  1.7631 -0.3623
 6863SOL     OW22265   7.313   2.082   7.936 -0.3980 -0.2430  0.3544
 6863SOL    HW122266   7.330   1.993   7.966 -1.1858 -0.0343  1.4629
 6863SOL    HW222267   7.218   2.086   7.925 -0.3937  0.5199  0.5332
 6864SOL     OW22268   4.681   4.733   6.938  0.2417  0.3525  0.6199
 6864SOL    HW122269   4.669   4.640   6.915  1.1788  0.9312 -2.4990
 6864SOL    HW222270   4.770   4.737   6.973  1.2628  0.4863 -1.8920
 6865SOL     OW22271   9.086   7.863   7.714  0.1606 -0.0844 -0.0389
 6865SOL    HW122272   9.091   7.826   7.626 -2.4556 -1.6321  0.4174
 6865SOL    HW222273   9.008   7.919   7.711  0.1964  0.0415  1.2184
 6866SOL     OW22274   7.712   7.219   9.150 -0.1535  0.2851  0.4131
 6866SOL    HW122275   7.659   7.140   9.166 -0.2169  0.6428  2.0208
 6866SOL    HW222276   7.649   7.284   9.120 -0.2347 -0.0296 -0.0990
 6867SOL     OW22277   6.073   1.893   6.478 -0.5394 -0.5355 -0.1479
 6867SOL    HW122278   6.079   1.944   6.559 -1.5214 -0.5397 -0.0571
 6867SOL    HW222279   6.122   1.813   6.497 -2.0993 -1.2518  1.0284
 6868SOL     OW22280   8.616   0.837   3.413 -0.0828  0.1481 -0.5131
 6868SOL    HW122281   8.685   0.853   3.477 -0.5964  0.1362  0.0523
 6868SOL    HW222282   8.662   0.814   3.332  0.5581 -0.2343 -0.0408
 6869SOL     OW22283   5.355   7.886   0.492 -0.6943  0.2408 -0.1606
 6869SOL    HW122284   5.394   7.957   0.542 -1.9795  0.6731  0.2228
 6869SOL    HW222285   5.320   7.927   0.413 -1.2656  0.0102 -0.0322
 6870SOL     OW22286   4.791   3.811   3.548  0.3032  0.0549 -0.1739
 6870SOL    HW122287   4.849   3.851   3.484  1.3523 -0.8908  0.1800
 6870SOL    HW222288   4.793   3.718   3.527 -0.6313 -0.0534  0.2048
 6871SOL     OW22289   1.393   6.181   7.378  0.4805 -0.6747 -0.2176
 6871SOL    HW122290   1.384   6.242   7.304  1.3788  0.4119  0.5580
 6871SOL    HW222291   1.453   6.224   7.438 -0.2750 -1.5234  1.1848
 6872SOL     OW22292   2.019   4.885   3.230  0.4073 -0.0588 -0.0535
 6872SOL    HW122293   1.966   4.806   3.239  0.0953  0.1193 -0.3173
 6872SOL    HW222294   2.034   4.894   3.136  0.2628  0.3119 -0.0443
 6873SOL     OW22295   5.059   7.615   0.399 -0.2817  0.1202 -0.2319
 6873SOL    HW122296   4.966   7.601   0.415  0.2006 -0.8293  1.8700
 6873SOL    HW222297   5.080   7.555   0.328 -0.4561 -2.5767  1.9180
 6874SOL     OW22298   6.168   7.137   3.855  0.0417 -0.6115  0.1254
 6874SOL    HW122299   6.102   7.181   3.909  0.0781  0.8299 -0.9962
 6874SOL    HW222300   6.126   7.125   3.770  0.3346 -2.0004  0.1647
 6875SOL     OW22301   1.040   2.792   0.054  0.5411 -0.2051 -0.0474
 6875SOL    HW122302   0.956   2.786   0.100  0.3551 -0.4864 -0.4203
 6875SOL    HW222303   1.102   2.823   0.120  0.1783 -0.1624  0.2721
 6876SOL     OW22304   8.770   4.477   2.594  0.5673 -0.4534  0.7738
 6876SOL    HW122305   8.855   4.518   2.607  0.2628  0.0673  1.1306
 6876SOL    HW222306   8.762   4.468   2.499  1.3443 -1.2023  0.7690
 6877SOL     OW22307   8.577   2.794   5.979  0.1733 -0.0159  0.0863
 6877SOL    HW122308   8.556   2.702   5.966  0.7061  0.1089 -1.8741
 6877SOL    HW222309   8.634   2.795   6.056 -0.8643 -1.1631  0.8916
 6878SOL     OW22310   2.415   6.444   4.075  0.4345  0.6134  0.5125
 6878SOL    HW122311   2.443   6.454   4.167 -0.5279 -2.0159  1.1597
 6878SOL    HW222312   2.492   6.409   4.031  0.0703 -0.7895  0.9581
 6879SOL     OW22313   7.954   6.575   3.726 -0.0990  0.4376 -0.2628
 6879SOL    HW122314   7.897   6.551   3.799  0.3695 -0.2465 -0.1207
 6879SOL    HW222315   7.917   6.528   3.651  0.1287  0.1969 -0.2230
 6880SOL     OW22316   2.308   9.043   8.667  0.0393 -0.1216  0.2594
 6880SOL    HW122317   2.362   9.082   8.598 -0.4918  0.1752  0.0128
 6880SOL    HW222318   2.221   9.080   8.654 -0.0082  0.1258  1.2461
 6881SOL     OW22319   3.824   3.073   6.342 -0.2615 -0.4859 -0.5366
 6881SOL    HW122320   3.892   3.110   6.397 -0.7914 -0.8646  0.3924
 6881SOL    HW222321   3.831   2.978   6.355 -0.3694 -0.5770 -1.1367
 6882SOL     OW22322   8.177   3.930   8.643  0.0797 -0.1010 -0.3068
 6882SOL    HW122323   8.141   3.982   8.571 -0.5856  0.5506  0.4842
 6882SOL    HW222324   8.172   3.988   8.719  0.5039 -0.8859  0.3269
 6883SOL     OW22325   5.853   7.682   1.761  0.6403  0.6348 -0.7506
 6883SOL    HW122326   5.899   7.609   1.720  0.5494  0.7165 -0.9927
 6883SOL    HW222327   5.876   7.758   1.709 -0.0597  0.6167 -1.0904
 6884SOL     OW22328   7.118   8.586   1.957 -0.1936 -0.1002 -0.4334
 6884SOL    HW122329   7.154   8.673   1.938 -0.6777 -0.5941 -3.9198
 6884SOL    HW222330   7.046   8.603   2.018  0.5349  1.7835 -0.0457
 6885SOL     OW22331   1.213   4.710   8.444  0.5450 -0.6517 -0.0174
 6885SOL    HW122332   1.229   4.767   8.369 -1.0401 -0.8017 -0.4908
 6885SOL    HW222333   1.181   4.768   8.513  1.3430 -0.6160  0.3299
 6886SOL     OW22334   3.442   7.331   1.479  0.6939 -0.3044 -0.0538
 6886SOL    HW122335   3.395   7.387   1.417  0.1604 -1.5501 -0.7987
 6886SOL    HW222336   3.392   7.338   1.560  1.7557  1.8294  0.4277
 6887SOL     OW22337   1.815   8.314   3.285  0.0228 -0.0763  0.1301
 6887SOL    HW122338   1.805   8.409   3.276 -0.1898  0.1941  2.8380
 6887SOL    HW222339   1.884   8.291   3.223  0.7473  1.9863  0.1433
 6888SOL     OW22340   2.843   7.785   5.750  0.2079  0.3497  0.1872
 6888SOL    HW122341   2.868   7.874   5.723  0.6411  0.5885  1.3380
 6888SOL    HW222342   2.889   7.772   5.833 -0.0771 -0.8535  0.1598
 6889SOL     OW22343   1.606   1.007   6.349 -0.1419  0.7175  0.0129
 6889SOL    HW122344   1.550   1.049   6.283 -0.3408 -0.3408 -0.4944
 6889SOL    HW222345   1.548   0.951   6.399  0.4940 -0.5598 -0.6567
 6890SOL     OW22346   0.389   6.806   7.561 -0.3681  0.0152  0.5700
 6890SOL    HW122347   0.380   6.712   7.543 -3.5100  0.2628  0.5234
 6890SOL    HW222348   0.397   6.846   7.474  2.1326 -0.2646  0.6349
 6891SOL     OW22349   1.127   8.696   8.821  0.0575  0.1960 -0.1540
 6891SOL    HW122350   1.200   8.758   8.813 -1.1110  1.8090  1.2559
 6891SOL    HW222351   1.062   8.727   8.758 -1.0600  1.2250  1.4584
 6892SOL     OW22352   2.284   4.837   1.765 -0.0594 -0.1889  0.1441
 6892SOL    HW122353   2.378   4.851   1.753  0.1831 -1.6459  0.1747
 6892SOL    HW222354   2.256   4.907   1.824  0.3241  2.2763 -2.5119
 6893SOL     OW22355   5.630   1.183   0.127  0.2285  0.0551  0.1029
 6893SOL    HW122356   5.611   1.250   0.192 -1.6365 -1.7680  1.5098
 6893SOL    HW222357   5.661   1.108   0.178  0.8103 -0.6829 -1.3051
 6894SOL     OW22358   5.230   9.145   7.694  0.5865 -0.3471  0.1982
 6894SOL    HW122359   5.169   9.171   7.625  0.2866 -0.8912  0.2531
 6894SOL    HW222360   5.313   9.131   7.649  0.7161  0.5513  0.1461
 6895SOL     OW22361   1.051   7.766   8.383 -0.1037  0.2045  0.2709
 6895SOL    HW122362   1.078   7.707   8.313 -2.4197  0.6392 -1.0351
 6895SOL    HW222363   1.057   7.713   8.462 -2.1140 -1.8155 -0.8648
 6896SOL     OW22364   2.896   5.967   6.552  0.1954 -0.3403 -0.0975
 6896SOL    HW122365   2.914   5.891   6.607 -0.3013  0.2904  0.9511
 6896SOL    HW222366   2.806   5.991   6.572  0.7251  1.2373  0.4598
 6897SOL     OW22367   8.002   3.746   4.478  0.3870 -0.0103  0.0988
 6897SOL    HW122368   7.978   3.765   4.388  0.8142 -1.4298 -0.3231
 6897SOL    HW222369   8.073   3.807   4.498 -1.7591  2.4366  0.5032
 6898SOL     OW22370   1.569   1.688   3.277 -0.6711  0.2495 -0.3491
 6898SOL    HW122371   1.537   1.743   3.348 -1.3190 -1.4268  0.6941
 6898SOL    HW222372   1.555   1.598   3.308 -1.8312 -0.5151 -2.9743
 6899SOL     OW22373   5.644   0.639   8.179 -0.1541  0.2263 -0.1203
 6899SOL    HW122374   5.645   0.669   8.270 -2.7858 -1.5150  0.5385
 6899SOL    HW222375   5.603   0.710   8.130 -1.1757  0.0648  0.4955
 6900SOL     OW22376   4.399   7.398   3.765  0.1013  0.0604 -0.2352
 6900SOL    HW122377   4.355   7.431   3.843  3.3091 -0.4011  1.8635
 6900SOL    HW222378   4.489   7.429   3.773  0.4070  0.3161 -3.9665
 6901SOL     OW22379   8.291   2.936   5.282 -0.1308  0.5420  0.0396
 6901SOL    HW122380   8.240   2.859   5.256  1.5732 -0.1330 -1.4006
 6901SOL    HW222381   8.276   2.943   5.377 -0.4137 -1.5055  0.1756
 6902SOL     OW22382   9.074   7.614   2.197  0.1083 -0.0139 -0.1011
 6902SOL    HW122383   9.043   7.704   2.205 -0.0077 -0.0826  0.2110
 6902SOL    HW222384   9.132   7.616   2.120  1.1478  0.6143  0.6803
 6903SOL     OW22385   6.915   8.544   1.584 -0.1176  0.2000  0.6032
 6903SOL    HW122386   6.886   8.462   1.545  1.3689 -0.0568 -0.0080
 6903SOL    HW222387   6.905   8.609   1.515 -0.1115  0.2866  0.6825
 6904SOL     OW22388   3.711   8.305   1.792  0.1852  0.0204 -0.5288
 6904SOL    HW122389   3.644   8.373   1.792 -0.3569 -0.5032 -1.0720
 6904SOL    HW222390   3.720   8.280   1.700 -0.2944 -1.3007 -0.2267
 6905SOL     OW22391   6.886   3.884   5.839 -0.1784 -0.0898 -0.1785
 6905SOL    HW122392   6.833   3.963   5.842  0.5064  0.4152 -1.4009
 6905SOL    HW222393   6.972   3.912   5.869  0.9208  0.3384 -3.5576
 6906SOL     OW22394   1.608   0.955   4.451 -0.3619  0.9265 -0.3882
 6906SOL    HW122395   1.696   0.951   4.414  0.1815 -0.5179  0.9701
 6906SOL    HW222396   1.550   0.931   4.379  0.3732  1.6142 -1.2182
 6907SOL     OW22397   0.749   3.208   0.586 -0.2090  0.6420  0.3179
 6907SOL    HW122398   0.719   3.182   0.674 -0.5483 -0.1452 -0.0273
 6907SOL    HW222399   0.843   3.194   0.588 -0.3377 -0.2441  0.2647
 6908SOL     OW22400   0.626   6.682   5.300  0.0543 -0.0568  1.0034
 6908SOL    HW122401   0.614   6.773   5.327  0.2192  0.4976 -0.7357
 6908SOL    HW222402   0.537   6.645   5.302 -0.1320  0.3761  0.9294
 6909SOL     OW22403   6.993   4.901   6.576  0.1350 -0.5183  0.0722
 6909SOL    HW122404   7.070   4.891   6.519 -0.2852 -0.1692 -0.5670
 6909SOL    HW222405   6.989   4.820   6.626  1.2659 -0.2969  0.5313
 6910SOL     OW22406   8.483   7.272   3.039  0.5131 -0.4714 -0.2195
 6910SOL    HW122407   8.456   7.190   2.999 -0.7216 -0.3265  0.3049
 6910SOL    HW222408   8.527   7.246   3.121 -1.5138 -0.5492  0.8785
 6911SOL     OW22409   2.140   4.812   9.244 -0.0037 -0.1571 -0.4268
 6911SOL    HW122410   2.139   4.902   9.209 -0.0463 -0.8860 -2.3922
 6911SOL    HW222411   2.079   4.815   9.318 -1.4130  1.0299 -1.5772
 6912SOL     OW22412   3.038   1.273   3.767 -0.1921  0.3195  0.0727
 6912SOL    HW122413   2.950   1.246   3.741 -0.2685  1.3428 -0.7906
 6912SOL    HW222414   3.029   1.302   3.858 -0.5935 -0.2914  0.2263
 6913SOL     OW22415   2.595   1.299   2.040 -0.8708 -0.4700 -0.4742
 6913SOL    HW122416   2.686   1.281   2.017 -0.6754 -1.3485  0.8653
 6913SOL    HW222417   2.545   1.280   1.961  0.2004  1.0043 -1.5257
 6914SOL     OW22418   3.676   6.939   5.420 -0.7174  0.1923 -0.0795
 6914SOL    HW122419   3.703   6.848   5.430 -2.3960 -0.4392 -1.0791
 6914SOL    HW222420   3.721   6.969   5.340 -0.8614 -0.0269 -0.2422
 6915SOL     OW22421   3.835   2.848   5.475 -0.3152 -0.1574 -0.3285
 6915SOL    HW122422   3.750   2.805   5.482 -0.8969  0.4900 -2.7582
 6915SOL    HW222423   3.818   2.940   5.497  0.4275 -0.6276  2.3695
 6916SOL     OW22424   5.084   8.154   0.147  0.1356 -0.3588 -0.4441
 6916SOL    HW122425   5.086   8.234   0.200  0.4952 -0.7622  0.1518
 6916SOL    HW222426   4.991   8.129   0.146  0.3238 -1.1597  1.2174
 6917SOL     OW22427   6.885   1.887   7.426 -0.2251  0.0176 -0.0933
 6917SOL    HW122428   6.970   1.844   7.439 -1.3767 -2.5590 -0.6836
 6917SOL    HW222429   6.826   1.843   7.488 -1.0654  2.0133  0.5637
 6918SOL     OW22430   7.957   3.716   0.249  0.3133 -0.6256 -0.2786
 6918SOL    HW122431   7.928   3.626   0.264 -0.1026 -0.5930 -0.8856
 6918SOL    HW222432   7.953   3.757   0.335 -2.0436 -0.4359 -0.4503
 6919SOL     OW22433   7.453   3.385   9.146  0.2215 -0.1002 -0.1565
 6919SOL    HW122434   7.361   3.362   9.132 -0.5750  3.0153 -0.3676
 6919SOL    HW222435   7.498   3.348   9.070 -1.3524  0.9539 -1.6411
 6920SOL     OW22436   8.395   5.571   5.150 -0.1564  0.1154 -0.5628
 6920SOL    HW122437   8.467   5.512   5.129 -0.5290 -0.6749  0.3826
 6920SOL    HW222438   8.436   5.643   5.198 -0.2207 -1.1160  1.3764
 6921SOL     OW22439   2.329   7.909   1.223 -0.0240 -0.4387  0.0510
 6921SOL    HW122440   2.323   7.818   1.250 -1.6779  0.2257  2.0699
 6921SOL    HW222441   2.263   7.918   1.154 -0.0865 -0.6728  0.0807
 6922SOL     OW22442   5.531   3.162   7.957  0.5548  0.2981  0.1423
 6922SOL    HW122443   5.512   3.208   8.039  1.0073  1.3065 -0.3054
 6922SOL    HW222444   5.513   3.070   7.976  2.2302  0.2857  1.8826
 6923SOL     OW22445   1.021   4.153   4.853 -0.1896  0.1882  0.7306
 6923SOL    HW122446   1.016   4.245   4.828 -1.0608  0.1772  0.8306
 6923SOL    HW222447   0.980   4.150   4.939 -0.5796 -0.3631  0.5293
 6924SOL     OW22448   2.172   6.831   2.573 -0.1768 -0.5481 -0.4419
 6924SOL    HW122449   2.152   6.925   2.579  1.5137 -0.2161  0.2317
 6924SOL    HW222450   2.200   6.819   2.482 -0.5094 -0.4198 -0.5619
 6925SOL     OW22451   3.216   4.442   2.590  0.4061  0.3075 -0.6726
 6925SOL    HW122452   3.181   4.361   2.626 -0.8451  1.1215 -0.0541
 6925SOL    HW222453   3.310   4.424   2.578 -0.2419 -1.9419 -2.5553
 6926SOL     OW22454   6.278   9.208   1.659 -0.1656  0.5359  0.1190
 6926SOL    HW122455   6.330   9.238   1.585 -0.8853  0.5010 -0.4123
 6926SOL    HW222456   6.301   9.266   1.731  1.0104  0.1643  0.0399
 6927SOL     OW22457   4.245   2.322   6.444 -0.2727  0.4959 -0.7852
 6927SOL    HW122458   4.150   2.331   6.441 -0.5219 -1.1755  1.1702
 6927SOL    HW222459   4.269   2.303   6.353 -2.0952 -1.3310 -0.9380
 6928SOL     OW22460   1.477   0.604   2.157 -0.0943 -0.3924 -0.3337
 6928SOL    HW122461   1.537   0.584   2.085 -0.2067 -0.3118 -0.4498
 6928SOL    HW222462   1.412   0.533   2.154 -0.2740 -0.2186 -0.5033
 6929SOL     OW22463   5.084   1.366   0.104 -0.0386 -0.4399 -0.3116
 6929SOL    HW122464   5.118   1.339   0.018  1.2610  0.5287 -0.1286
 6929SOL    HW222465   5.062   1.285   0.148  1.8337 -1.1184 -0.5624
 6930SOL     OW22466   3.560   2.534   5.308  0.0322 -0.0321  0.2098
 6930SOL    HW122467   3.583   2.612   5.257  0.4427  0.2686  0.8459
 6930SOL    HW222468   3.573   2.560   5.399  0.5526 -0.9656  0.4143
 6931SOL     OW22469   7.924   3.529   7.119 -0.3174  0.2539  0.1925
 6931SOL    HW122470   7.952   3.567   7.202 -1.8058  0.2355  0.7262
 6931SOL    HW222471   7.968   3.581   7.052 -1.6653  2.3928  0.9232
 6932SOL     OW22472   8.913   8.974   0.299  0.2435  0.0137 -0.2421
 6932SOL    HW122473   8.924   9.061   0.337 -0.3943  0.3180 -0.7575
 6932SOL    HW222474   8.829   8.943   0.332  1.9588 -1.8367  2.7208
 6933SOL     OW22475   5.882   1.637   8.326 -0.2743  0.0877  0.9032
 6933SOL    HW122476   5.873   1.689   8.406 -0.9869  0.4602  0.5878
 6933SOL    HW222477   5.792   1.625   8.295  0.1419  2.0148 -1.1670
 6934SOL     OW22478   6.283   8.562   3.141  0.3304 -0.0631 -0.9001
 6934SOL    HW122479   6.289   8.467   3.138 -0.0111 -0.0943 -0.4982
 6934SOL    HW222480   6.321   8.591   3.057 -0.7852 -0.5977 -1.5989
 6935SOL     OW22481   7.732   0.577   1.768 -0.6135 -0.3664 -0.4272
 6935SOL    HW122482   7.653   0.618   1.801 -0.2634 -0.4395  0.5038
 6935SOL    HW222483   7.781   0.551   1.846  1.0074  0.9681 -0.9501
 6936SOL     OW22484   8.531   2.920   7.872  0.0920 -0.3790 -0.4441
 6936SOL    HW122485   8.592   2.986   7.903 -2.4357  1.5956  0.5435
 6936SOL    HW222486   8.515   2.943   7.780 -0.6379  0.3055 -0.1549
 6937SOL     OW22487   8.512   6.223   9.184 -0.1085  0.2620 -0.2461
 6937SOL    HW122488   8.597   6.246   9.147 -0.2047  2.1432  0.6535
 6937SOL    HW222489   8.525   6.136   9.222  1.9630  1.3183  1.5593
 6938SOL     OW22490   4.290   2.940   3.223 -0.2743  0.0334  0.1724
 6938SOL    HW122491   4.344   2.879   3.273  0.8584 -0.1772 -1.2849
 6938SOL    HW222492   4.207   2.945   3.271 -0.1908 -2.2549  0.5694
 6939SOL     OW22493   5.969   4.892   5.821  0.6405 -0.2240 -0.2322
 6939SOL    HW122494   5.936   4.978   5.793  0.6114 -0.2684 -0.3361
 6939SOL    HW222495   6.063   4.898   5.810  0.7216  0.0814  0.5506
 6940SOL     OW22496   0.680   1.990   5.613  0.7638  0.1642 -0.3356
 6940SOL    HW122497   0.707   1.965   5.524  2.8773 -1.9381  0.8522
 6940SOL    HW222498   0.604   1.934   5.631  0.9409 -0.1265 -0.4737
 6941SOL     OW22499   3.153   2.109   1.256  0.1136  0.0625  0.4467
 6941SOL    HW122500   3.127   2.196   1.286  1.7289  1.1615 -1.2033
 6941SOL    HW222501   3.234   2.090   1.304 -1.1371 -1.2943  2.0699
 6942SOL     OW22502   8.380   1.162   6.826  0.0218  0.4500  0.8327
 6942SOL    HW122503   8.421   1.188   6.744 -0.3680 -0.6608  0.2860
 6942SOL    HW222504   8.448   1.112   6.872 -0.3579 -0.4779  0.3912
 6943SOL     OW22505   4.070   3.158   0.429 -0.2479  0.2416 -0.0403
 6943SOL    HW122506   4.064   3.115   0.344  1.8677  0.1277 -0.1557
 6943SOL    HW222507   3.980   3.157   0.462 -0.7799 -1.3863 -1.4366
 6944SOL     OW22508   6.848   1.570   0.613 -0.1995 -0.0413  0.2759
 6944SOL    HW122509   6.940   1.547   0.596 -0.1919  0.5315 -0.4683
 6944SOL    HW222510   6.804   1.485   0.624  0.3560 -0.3255  0.3399
 6945SOL     OW22511   5.477   6.298   0.057  0.2338  0.7375 -0.2687
 6945SOL    HW122512   5.495   6.209   0.027 -0.7801  0.1739  0.7504
 6945SOL    HW222513   5.441   6.343  -0.019  1.7865  0.6104 -1.0983
 6946SOL     OW22514   6.523   5.772   8.038 -0.4198 -0.4484  0.5983
 6946SOL    HW122515   6.518   5.715   8.114  0.9009  0.9233  1.7341
 6946SOL    HW222516   6.564   5.718   7.970  2.2715 -0.4094  2.1245
 6947SOL     OW22517   4.083   8.081   2.258  0.3322 -0.3953  0.0650
 6947SOL    HW122518   4.024   8.156   2.249  0.8836  0.3591  2.4139
 6947SOL    HW222519   4.157   8.102   2.201 -0.6579 -0.3210 -1.2028
 6948SOL     OW22520   8.167   9.248   3.270  0.2592  0.4122  0.6857
 6948SOL    HW122521   8.102   9.244   3.340 -1.7947  0.1732 -1.1546
 6948SOL    HW222522   8.202   9.159   3.264 -1.0438 -0.0766  0.0968
 6949SOL     OW22523   1.064   4.951   3.603  0.4744  0.5713 -0.1422
 6949SOL    HW122524   1.143   4.898   3.611  1.1993  1.5675 -0.5987
 6949SOL    HW222525   1.095   5.040   3.593 -0.7580  1.1983  1.4055
 6950SOL     OW22526   0.677   1.374   5.265  0.0100 -0.2062 -0.5337
 6950SOL    HW122527   0.597   1.325   5.281  0.0519 -0.8103 -2.0516
 6950SOL    HW222528   0.714   1.334   5.186  0.7729  1.3602 -0.9874
 6951SOL     OW22529   0.098   4.004   0.557  0.4140  0.1465 -0.4666
 6951SOL    HW122530   0.162   3.942   0.522  0.8310  0.4348 -0.2250
 6951SOL    HW222531   0.047   3.954   0.620 -0.5635 -0.4668 -1.7217
 6952SOL     OW22532   2.162   4.145   3.012  0.1381 -0.3722  0.3917
 6952SOL    HW122533   2.211   4.226   3.024  0.4112 -0.5243  0.3168
 6952SOL    HW222534   2.167   4.128   2.917  0.6620 -0.8382  0.5004
 6953SOL     OW22535   4.426   6.068   4.639 -0.7195  0.1744  0.5419
 6953SOL    HW122536   4.466   6.148   4.672 -0.3710  0.5343 -0.7304
 6953SOL    HW222537   4.488   5.999   4.663  0.1005  0.5798 -0.3645
 6954SOL     OW22538   4.361   2.991   4.275 -0.0087  0.1462  0.1446
 6954SOL    HW122539   4.353   2.899   4.303  0.7056  0.0215 -0.0302
 6954SOL    HW222540   4.402   2.985   4.189  0.4698  0.6507  0.3391
 6955SOL     OW22541   4.477   5.777   2.793  0.2511 -0.0399  0.1773
 6955SOL    HW122542   4.403   5.787   2.734 -0.2287 -0.4730  0.6890
 6955SOL    HW222543   4.555   5.794   2.739 -0.2283  0.5666 -0.3221
 6956SOL     OW22544   0.123   6.945   4.898 -0.5128  0.2515  0.0268
 6956SOL    HW122545   0.095   7.031   4.930  0.5665 -0.3688  2.7633
 6956SOL    HW222546   0.218   6.953   4.889 -0.6455 -0.0152 -1.7986
 6957SOL     OW22547   0.136   8.992   4.613  0.7490  0.0607  0.0471
 6957SOL    HW122548   0.191   9.057   4.658  1.0917 -0.5130  0.4534
 6957SOL    HW222549   0.065   8.974   4.674  0.3102  0.5171 -0.3230
 6958SOL     OW22550   7.978   8.169   1.676  0.3315 -0.0878  0.4880
 6958SOL    HW122551   7.973   8.074   1.665 -0.2207  0.0157 -0.1600
 6958SOL    HW222552   7.900   8.192   1.726  0.3340  0.0586  0.4240
 6959SOL     OW22553   5.130   4.058   1.695 -0.1698  0.3610 -0.3050
 6959SOL    HW122554   5.154   4.132   1.638 -2.4889  1.1043 -0.3521
 6959SOL    HW222555   5.058   4.091   1.748 -1.2550 -1.8966 -0.3501
 6960SOL     OW22556   4.973   8.565   3.642 -0.1943  0.1651  0.7141
 6960SOL    HW122557   4.995   8.521   3.560 -0.2616  0.0416  0.7638
 6960SOL    HW222558   4.948   8.494   3.702  0.0890  0.2361  0.9150
 6961SOL     OW22559   8.573   7.897   2.604  0.0805 -0.0465  0.3004
 6961SOL    HW122560   8.506   7.854   2.656 -0.1711  1.9746  1.6846
 6961SOL    HW222561   8.642   7.918   2.666  0.8206  0.3056 -0.6282
 6962SOL     OW22562   6.497   4.399   8.130  0.4434 -0.2310  0.5648
 6962SOL    HW122563   6.499   4.482   8.177  0.9198 -0.1837  0.4650
 6962SOL    HW222564   6.505   4.424   8.037  1.9950 -0.4627  0.6244
 6963SOL     OW22565   4.235   4.589   7.635 -0.5502  0.6709 -0.2184
 6963SOL    HW122566   4.265   4.679   7.622 -1.4592  0.9140 -0.6388
 6963SOL    HW222567   4.272   4.564   7.720 -0.8274  1.6566  0.1963
 6964SOL     OW22568   2.345   2.799   4.701  0.4171  0.3456  0.0225
 6964SOL    HW122569   2.251   2.795   4.718  0.4577  0.9757  0.4087
 6964SOL    HW222570   2.385   2.779   4.786  0.6460 -2.3310 -0.6862
 6965SOL     OW22571   2.101   8.880   0.126  0.5186 -0.1360 -0.2604
 6965SOL    HW122572   2.044   8.826   0.181  0.7423 -0.8083 -0.6833
 6965SOL    HW222573   2.160   8.923   0.187  1.5669 -1.8210 -0.0495
 6966SOL     OW22574   2.787   5.581   7.732  0.0690 -0.2638  0.0880
 6966SOL    HW122575   2.832   5.612   7.811 -0.7389 -0.0620  0.4685
 6966SOL    HW222576   2.790   5.656   7.672 -2.8973  0.9720  1.4286
 6967SOL     OW22577   3.223   8.883   7.513 -0.2092  0.0666 -0.4266
 6967SOL    HW122578   3.254   8.793   7.502  1.2340  0.4008  0.6945
 6967SOL    HW222579   3.160   8.895   7.443 -0.4923 -1.8584 -0.5394
 6968SOL     OW22580   2.780   4.494   3.830 -0.6183 -0.7912  0.1893
 6968SOL    HW122581   2.849   4.510   3.894 -1.9974  0.2997  1.4383
 6968SOL    HW222582   2.745   4.408   3.854 -0.2957 -0.9491  0.1027
 6969SOL     OW22583   3.535   7.896   5.274  0.0799 -0.0046  0.3557
 6969SOL    HW122584   3.583   7.956   5.331  0.1946  0.2016  0.0430
 6969SOL    HW222585   3.451   7.885   5.317 -0.7769  2.1045 -0.6687
 6970SOL     OW22586   7.136   4.678   1.874 -0.3582  0.0024  0.3193
 6970SOL    HW122587   7.229   4.656   1.876 -0.6652 -1.3313  0.0631
 6970SOL    HW222588   7.133   4.770   1.900  1.1041  0.2900 -0.4669
 6971SOL     OW22589   8.130   6.012   0.228 -0.2381 -0.1948  0.6935
 6971SOL    HW122590   8.163   5.994   0.140  1.0843  1.2672  0.8668
 6971SOL    HW222591   8.051   6.064   0.214 -2.2006 -3.1398  0.2974
 6972SOL     OW22592   3.768   4.715   9.188 -0.0519  0.5304 -0.4562
 6972SOL    HW122593   3.773   4.810   9.181 -1.4540  0.5108 -2.0383
 6972SOL    HW222594   3.729   4.699   9.274 -0.3173  1.3916 -0.4093
 6973SOL     OW22595   2.447   7.270   0.782  0.2214 -0.7422 -0.1028
 6973SOL    HW122596   2.497   7.262   0.702  2.0340  1.3091  0.7737
 6973SOL    HW222597   2.459   7.361   0.809 -2.1243 -0.8205  1.3422
 6974SOL     OW22598   3.063   0.615   8.954 -0.3188  0.7692 -0.1113
 6974SOL    HW122599   3.046   0.659   9.037  1.9248  2.1344 -0.3452
 6974SOL    HW222600   3.024   0.528   8.964  0.3926  0.7250  2.5592
 6975SOL     OW22601   4.501   8.208   4.153  0.1002 -0.1076 -1.0403
 6975SOL    HW122602   4.461   8.134   4.109  0.2610 -1.2961  0.7586
 6975SOL    HW222603   4.562   8.244   4.089 -1.5615 -0.1688 -2.7019
 6976SOL     OW22604   0.800   8.875   3.996  0.7957 -0.2400 -0.1839
 6976SOL    HW122605   0.713   8.854   3.961  1.2734 -0.3631 -1.3058
 6976SOL    HW222606   0.789   8.869   4.091  0.1240 -2.4621 -0.3642
 6977SOL     OW22607   3.010   2.305   1.894 -0.6416  0.0826  0.2291
 6977SOL    HW122608   3.037   2.388   1.933 -1.2768 -1.0235  3.1114
 6977SOL    HW222609   3.079   2.243   1.917 -1.5715 -0.8456  0.5957
 6978SOL     OW22610   1.334   8.835   5.863  0.0903  0.3188 -0.1819
 6978SOL    HW122611   1.292   8.754   5.835 -1.1926  0.5855  0.8929
 6978SOL    HW222612   1.261   8.895   5.880  1.0476  2.2929 -2.6820
 6979SOL     OW22613   0.947   3.858   1.684 -0.0188  0.2082 -0.0247
 6979SOL    HW122614   0.952   3.785   1.746  1.5201 -0.0079 -0.3816
 6979SOL    HW222615   0.864   3.900   1.704 -0.1803 -0.6807  1.2755
 6980SOL     OW22616   8.293   1.226   8.572 -0.7450  0.9146  0.2284
 6980SOL    HW122617   8.309   1.314   8.537 -2.8608  0.4911 -1.8855
 6980SOL    HW222618   8.301   1.168   8.496 -0.1167 -0.6616  1.4660
 6981SOL     OW22619   4.461   3.583   7.522  0.3514 -0.1279  0.1064
 6981SOL    HW122620   4.498   3.618   7.442 -1.4683 -0.3720 -0.8736
 6981SOL    HW222621   4.367   3.604   7.517 -0.4025 -3.1560  0.5184
 6982SOL     OW22622   2.412   2.763   8.206  0.2619  0.0193  0.6065
 6982SOL    HW122623   2.375   2.815   8.278  2.6380  1.9234  0.5025
 6982SOL    HW222624   2.479   2.709   8.248  2.3856  1.8933 -0.2611
 6983SOL     OW22625   7.614   3.789   0.142  0.3280  0.0561  0.6276
 6983SOL    HW122626   7.664   3.729   0.086 -0.7489  1.0513 -1.4332
 6983SOL    HW222627   7.667   3.868   0.146 -0.8644  0.9705 -1.2397
 6984SOL     OW22628   8.126   8.541   0.519  0.0137  0.5747  0.0420
 6984SOL    HW122629   8.146   8.634   0.519  0.9667  0.3898  1.6925
 6984SOL    HW222630   8.129   8.516   0.426 -0.8755  2.2918 -0.4570
 6985SOL     OW22631   1.471   3.923   3.154 -0.1326 -0.4156  0.1508
 6985SOL    HW122632   1.478   3.965   3.069  0.7543 -0.3598  0.2525
 6985SOL    HW222633   1.548   3.866   3.160 -0.4036 -0.7303  0.7400
 6986SOL     OW22634   3.853   4.978   8.884  0.1545  0.4504 -0.8721
 6986SOL    HW122635   3.770   4.932   8.872  1.3622 -1.7663 -1.0500
 6986SOL    HW222636   3.828   5.068   8.907 -2.2797  0.9762 -4.9789
 6987SOL     OW22637   5.159   7.292   4.458  0.5400 -0.4443 -0.2897
 6987SOL    HW122638   5.142   7.357   4.526  0.1724 -0.0201 -0.7800
 6987SOL    HW222639   5.224   7.233   4.496  1.1783  0.4472  0.0093
 6988SOL     OW22640   0.922   6.575   8.908 -0.2064  0.2353 -0.2900
 6988SOL    HW122641   0.881   6.601   8.990 -0.1624 -0.4523 -0.0487
 6988SOL    HW222642   1.011   6.552   8.932 -0.7226 -1.7598 -0.2185
 6989SOL     OW22643   1.010   7.389   5.757 -0.6019 -0.2593 -0.3968
 6989SOL    HW122644   1.034   7.297   5.767 -1.5301 -0.5681 -0.9128
 6989SOL    HW222645   1.043   7.431   5.837 -1.3014 -1.2808  0.4591
 6990SOL     OW22646   5.691   2.599   3.637  0.2249  0.2893 -0.0941
 6990SOL    HW122647   5.727   2.605   3.549 -0.2745  2.3805 -0.1824
 6990SOL    HW222648   5.596   2.605   3.625  0.0288 -1.2513  0.4624
 6991SOL     OW22649   5.350   7.827   1.129 -0.8379  0.4934 -0.1080
 6991SOL    HW122650   5.316   7.812   1.216 -1.0513  0.4521 -0.1992
 6991SOL    HW222651   5.395   7.746   1.106 -3.3220 -0.5965 -1.2275
 6992SOL     OW22652   1.575   0.114   8.835 -0.1813  0.3369 -0.0715
 6992SOL    HW122653   1.519   0.159   8.898  0.2793  0.6316  0.1325
 6992SOL    HW222654   1.654   0.168   8.831  0.5575 -0.6762  0.4992
 6993SOL     OW22655   4.940   7.497   9.016  0.0611 -0.2568  0.2905
 6993SOL    HW122656   4.971   7.408   9.035 -0.4382 -0.2985  0.9170
 6993SOL    HW222657   5.005   7.532   8.955  0.6516 -0.7989  0.5975
 6994SOL     OW22658   7.068   5.207   2.543  0.2645  0.6240  0.1332
 6994SOL    HW122659   6.991   5.250   2.582  0.4109  0.1322  0.9934
 6994SOL    HW222660   7.142   5.255   2.579  0.4362 -0.4726  1.2688
 6995SOL     OW22661   6.042   3.989   7.170  0.4593 -0.6161 -0.1452
 6995SOL    HW122662   6.086   4.004   7.086  0.8110 -1.2016 -0.0704
 6995SOL    HW222663   6.104   3.936   7.221 -0.2598 -1.3212  0.0171
 6996SOL     OW22664   9.203   4.943   5.097  0.1542 -0.2649 -0.7075
 6996SOL    HW122665   9.211   4.937   5.192  0.6174 -2.4650 -0.8786
 6996SOL    HW222666   9.291   4.930   5.064 -0.2668 -1.0794 -1.5254
 6997SOL     OW22667   5.584   2.897   4.626  0.1692  0.0903 -0.3360
 6997SOL    HW122668   5.649   2.827   4.629  0.3496  0.2746  0.2049
 6997SOL    HW222669   5.635   2.978   4.633 -0.0590  0.2673 -0.6933
 6998SOL     OW22670   0.644   8.679   0.167  0.0392 -0.2074 -0.0743
 6998SOL    HW122671   0.636   8.762   0.215 -2.2657  0.1042 -0.9739
 6998SOL    HW222672   0.686   8.704   0.084 -2.8800  0.5031 -1.3918
 6999SOL     OW22673   5.713   0.117   6.344 -0.0018 -0.0154  0.0021
 6999SOL    HW122674   5.717   0.044   6.406 -0.6085 -1.2940 -1.4393
 6999SOL    HW222675   5.622   0.146   6.346 -0.2678 -0.7792 -1.1169
 7000SOL     OW22676   5.364   1.434   8.141 -0.3327 -0.0026  0.1042
 7000SOL    HW122677   5.276   1.467   8.159 -1.1735 -2.2916  0.3555
 7000SOL    HW222678   5.389   1.386   8.220  1.4095  1.0952  0.2662
 7001SOL     OW22679   7.974   0.301   1.793 -0.0614  0.1410 -0.1427
 7001SOL    HW122680   8.060   0.287   1.752  0.2474  0.8165  0.2637
 7001SOL    HW222681   7.912   0.298   1.720  0.1609 -1.6056 -0.2944
 7002SOL     OW22682   8.491   2.650   7.828  0.0165 -0.0937 -0.4670
 7002SOL    HW122683   8.476   2.742   7.850 -0.8081 -0.3994  0.3021
 7002SOL    HW222684   8.459   2.641   7.738  1.0533  0.6003 -0.9112
 7003SOL     OW22685   3.294   0.160   6.413 -0.7868  0.1712 -0.2802
 7003SOL    HW122686   3.311   0.166   6.319 -0.8106 -0.0633 -0.3003
 7003SOL    HW222687   3.204   0.193   6.423 -0.7006  0.4134 -0.3105
 7004SOL     OW22688   6.827   8.104   4.250  0.3302 -0.4170  0.0382
 7004SOL    HW122689   6.894   8.150   4.200 -0.7240  0.8909 -0.2084
 7004SOL    HW222690   6.856   8.110   4.341 -0.1174  1.3151  0.0794
 7005SOL     OW22691   5.361   5.201   2.278 -0.2646 -0.5654  0.1342
 7005SOL    HW122692   5.360   5.110   2.248  1.8613 -0.2709 -0.9032
 7005SOL    HW222693   5.268   5.225   2.281 -0.8185 -2.4831 -0.4493
 7006SOL     OW22694   7.446   1.510   2.495  0.6260 -0.3903 -0.5344
 7006SOL    HW122695   7.532   1.497   2.535  0.1297 -1.6527  0.1654
 7006SOL    HW222696   7.405   1.579   2.547  0.2445 -1.5543  0.7393
 7007SOL     OW22697   3.046   5.518   6.080  0.1713 -0.4522 -0.2306
 7007SOL    HW122698   3.116   5.582   6.091  0.3397 -0.7247  0.3519
 7007SOL    HW222699   2.968   5.570   6.060  1.0179 -0.2974 -3.3575
 7008SOL     OW22700   1.923   7.110   4.485  0.2304  0.1791 -0.1813
 7008SOL    HW122701   1.938   7.021   4.454 -0.7733 -0.0798  0.0631
 7008SOL    HW222702   1.939   7.165   4.408  0.4798 -0.2356 -0.4273
 7009SOL     OW22703   0.075   6.672   4.022  0.5161  0.3261 -0.1773
 7009SOL    HW122704   0.143   6.739   4.011 -0.1177  0.6871 -2.0411
 7009SOL    HW222705   0.059   6.639   3.934 -1.5576  0.0543  0.2778
 7010SOL     OW22706   2.263   2.740   5.986  0.6432  0.2440  0.2370
 7010SOL    HW122707   2.299   2.741   6.074  1.8315  1.3114 -0.2453
 7010SOL    HW222708   2.340   2.739   5.928 -0.1187 -1.7930 -0.7825
 7011SOL     OW22709   6.115   8.960   2.936 -0.2956  0.7421 -0.0650
 7011SOL    HW122710   6.193   9.014   2.944  0.2630  0.4594 -3.0088
 7011SOL    HW222711   6.084   8.976   2.847 -2.6286 -0.4375  0.4987
 7012SOL     OW22712   9.056   6.257   0.303 -0.0839 -0.1935  0.5039
 7012SOL    HW122713   8.991   6.287   0.239  1.6613  0.2229 -1.1629
 7012SOL    HW222714   9.069   6.332   0.361 -0.9369 -0.2003  0.6972
 7013SOL     OW22715   7.498   8.591   4.650 -0.4679  0.4365 -0.3304
 7013SOL    HW122716   7.525   8.679   4.622 -0.1318  0.2608 -0.5596
 7013SOL    HW222717   7.578   8.551   4.685 -1.0759  0.9955  1.7865
 7014SOL     OW22718   2.629   1.264   3.957  0.2265 -0.3698  0.2993
 7014SOL    HW122719   2.597   1.213   4.031 -1.8448 -0.8970 -0.9232
 7014SOL    HW222720   2.551   1.308   3.922  1.3338  0.6555 -0.9719
 7015SOL     OW22721   2.741   8.194   8.488 -0.1635 -0.1994 -0.0698
 7015SOL    HW122722   2.713   8.283   8.511  0.3830  0.0094 -0.2107
 7015SOL    HW222723   2.788   8.205   8.405  0.4058 -0.5422  0.2049
 7016SOL     OW22724   3.201   8.180   5.838 -0.2418  0.0141  0.0533
 7016SOL    HW122725   3.273   8.215   5.786 -0.0439  0.4405  0.5978
 7016SOL    HW222726   3.195   8.240   5.913 -0.3341 -0.7499  0.6597
 7017SOL     OW22727   0.675   2.545   6.902  0.4592  0.3455  0.2215
 7017SOL    HW122728   0.714   2.579   6.821 -1.7418  1.5423 -0.3763
 7017SOL    HW222729   0.653   2.624   6.952 -1.1767 -0.3118  0.5508
 7018SOL     OW22730   6.173   5.367   0.289 -0.0677 -0.1423  0.2534
 7018SOL    HW122731   6.125   5.445   0.263  1.2756  0.6299  0.0410
 7018SOL    HW222732   6.158   5.360   0.384 -0.0935  0.4599  0.2979
 7019SOL     OW22733   3.518   2.554   4.041  0.0050 -0.4220 -0.3051
 7019SOL    HW122734   3.581   2.627   4.046 -0.3388 -0.0449 -1.3629
 7019SOL    HW222735   3.456   2.571   4.112  0.3438 -0.0757 -0.0894
 7020SOL     OW22736   8.450   1.115   7.242  0.2756  0.0658 -0.3487
 7020SOL    HW122737   8.439   1.054   7.315 -2.8808  0.3390 -0.5183
 7020SOL    HW222738   8.543   1.113   7.222  0.5733 -3.0229  1.1012
 7021SOL     OW22739   8.857   5.598   1.204  0.6586  0.5559 -0.1677
 7021SOL    HW122740   8.764   5.589   1.225  0.7424  1.4768  0.6391
 7021SOL    HW222741   8.882   5.683   1.240  2.2853 -0.5464  1.4082
 7022SOL     OW22742   0.782   7.407   5.072  0.0715 -0.1654  0.3102
 7022SOL    HW122743   0.826   7.464   5.135  2.1232  0.7894 -1.9106
 7022SOL    HW222744   0.711   7.460   5.037 -0.5627 -0.4141  1.2090
 7023SOL     OW22745   4.206   9.237   5.204 -0.3535 -0.5651  0.3097
 7023SOL    HW122746   4.118   9.217   5.235 -1.1174  2.3499  0.2137
 7023SOL    HW222747   4.200   9.328   5.174  2.9229  0.0299  1.2831
 7024SOL     OW22748   3.598   6.869   6.051  0.1741  0.4678 -0.0711
 7024SOL    HW122749   3.505   6.867   6.029  0.1841 -0.4954 -0.0381
 7024SOL    HW222750   3.642   6.863   5.967  0.2116  1.7497 -0.1508
 7025SOL     OW22751   0.567   4.580   5.073 -0.3506  0.0789  0.1407
 7025SOL    HW122752   0.661   4.564   5.080 -0.5009 -0.5910  0.6913
 7025SOL    HW222753   0.531   4.500   5.036 -1.0755 -0.8089  2.6441
 7026SOL     OW22754   2.010   7.692   3.939  0.5000 -0.9859  0.1660
 7026SOL    HW122755   2.058   7.765   3.978  2.2895 -2.6413  1.1934
 7026SOL    HW222756   2.014   7.707   3.845 -2.5312  2.2565  0.4699
 7027SOL     OW22757   4.114   0.195   2.561 -0.1169  0.3210 -0.0127
 7027SOL    HW122758   4.041   0.186   2.622  0.5625 -0.5523  0.6899
 7027SOL    HW222759   4.074   0.226   2.479 -1.3702 -0.8159  0.1554
 7028SOL     OW22760   9.093   7.771   8.780 -0.5492  0.9240 -0.0243
 7028SOL    HW122761   9.077   7.862   8.807 -1.4683  1.3603 -1.9059
 7028SOL    HW222762   9.157   7.779   8.709  0.9948 -0.0891  1.2393
 7029SOL     OW22763   6.668   4.447   3.597  0.3772 -0.4695 -0.2649
 7029SOL    HW122764   6.689   4.525   3.648 -2.0720  1.2263 -1.7495
 7029SOL    HW222765   6.643   4.381   3.663  1.2658  0.3878  0.9349
 7030SOL     OW22766   4.642   5.441   7.929  0.2119  0.6190 -0.0077
 7030SOL    HW122767   4.629   5.398   7.845  1.1518 -0.7756  0.5391
 7030SOL    HW222768   4.556   5.436   7.972  0.7297 -2.5651  0.8588
 7031SOL     OW22769   1.118   0.589   8.407  0.3036 -0.5042  1.0261
 7031SOL    HW122770   1.144   0.658   8.468  1.3726  0.0138  0.0135
 7031SOL    HW222771   1.186   0.591   8.339 -1.6891  0.0288 -1.0049
 7032SOL     OW22772   2.123   7.134   2.499 -0.3166  0.0160 -0.2725
 7032SOL    HW122773   2.210   7.172   2.494 -1.0810  1.8413 -0.0892
 7032SOL    HW222774   2.074   7.177   2.428 -1.1569 -0.7585 -0.1698
 7033SOL     OW22775   0.694   5.333   2.978  0.2283 -0.0512 -0.3356
 7033SOL    HW122776   0.631   5.377   3.034  0.5950  0.3078 -0.1995
 7033SOL    HW222777   0.707   5.247   3.018  0.8964  0.3999  0.4376
 7034SOL     OW22778   2.940   8.320   8.751  0.2720  0.1719  0.3028
 7034SOL    HW122779   3.020   8.268   8.743 -0.1979 -0.2471 -1.8844
 7034SOL    HW222780   2.922   8.322   8.845  1.9574 -1.1026  0.6697
 7035SOL     OW22781   6.180   3.730   5.129  0.3784  0.3903  0.3008
 7035SOL    HW122782   6.231   3.749   5.050  1.1669 -0.2857  0.6514
 7035SOL    HW222783   6.202   3.801   5.189  0.7263  0.2244  0.3679
 7036SOL     OW22784   7.807   5.364   5.514  0.0611  0.3193  0.0935
 7036SOL    HW122785   7.733   5.420   5.535 -0.9352 -0.3182 -1.6116
 7036SOL    HW222786   7.776   5.275   5.531  1.5985  0.2129  2.6866
 7037SOL     OW22787   7.086   2.996   4.824  0.5625  0.0268 -0.1848
 7037SOL    HW122788   7.005   2.966   4.784  0.3821  0.6359 -0.2806
 7037SOL    HW222789   7.083   3.092   4.817  0.5068  0.1501  1.3047
 7038SOL     OW22790   5.800   8.856   1.273  0.2232 -0.2145 -0.1096
 7038SOL    HW122791   5.731   8.806   1.228 -0.3738 -0.0028  0.5562
 7038SOL    HW222792   5.764   8.945   1.280  0.2250 -0.2948  0.9575
 7039SOL     OW22793   6.249   4.433   7.537 -0.7755 -0.3396 -0.4661
 7039SOL    HW122794   6.235   4.372   7.610  1.1836  0.8830  1.0010
 7039SOL    HW222795   6.295   4.381   7.471 -0.1884 -0.7596  0.2673
 7040SOL     OW22796   1.311   3.119   3.336  0.1305 -0.3399 -0.0843
 7040SOL    HW122797   1.233   3.147   3.384 -0.5177  1.3464 -2.0015
 7040SOL    HW222798   1.384   3.156   3.385 -0.4971  0.9472 -0.0799
 7041SOL     OW22799   4.090   6.074   5.992  0.4195  0.1668  0.2805
 7041SOL    HW122800   4.165   6.107   6.042 -0.5486  1.7306  0.7400
 7041SOL    HW222801   4.032   6.150   5.983 -0.0763 -0.4453 -2.0067
 7042SOL     OW22802   4.667   7.026   5.988  0.3105  0.2030 -0.2869
 7042SOL    HW122803   4.664   7.103   5.931 -0.9057  0.5870  0.2750
 7042SOL    HW222804   4.617   6.959   5.940  0.4486  0.1048 -0.2924
 7043SOL     OW22805   7.448   0.245   7.301 -0.8257  0.2780  0.0698
 7043SOL    HW122806   7.469   0.338   7.306 -0.9361  0.3166 -0.1715
 7043SOL    HW222807   7.472   0.219   7.212  0.1714 -0.1657  0.4609
 7044SOL     OW22808   7.988   0.001   2.418  0.0512 -0.1618  0.0964
 7044SOL    HW122809   7.975  -0.071   2.356 -0.7446  0.8013 -0.8738
 7044SOL    HW222810   7.986  -0.041   2.504 -0.2984 -1.3185 -0.4618
 7045SOL     OW22811   1.477   2.347   5.931  0.0608  0.3377  0.5381
 7045SOL    HW122812   1.432   2.336   6.015  0.2125 -2.0250  0.3194
 7045SOL    HW222813   1.509   2.260   5.909  0.6347  1.0768 -1.6459
 7046SOL     OW22814   1.624   6.319   0.752 -0.9131  0.0691 -0.3519
 7046SOL    HW122815   1.531   6.335   0.737 -0.7474 -0.1564 -1.6466
 7046SOL    HW222816   1.630   6.225   0.766 -0.7991 -0.0068 -0.8995
 7047SOL     OW22817   5.130   8.250   7.955  1.0111 -0.1857 -0.2331
 7047SOL    HW122818   5.120   8.267   8.049  1.5220 -0.8839 -0.0492
 7047SOL    HW222819   5.139   8.155   7.949 -1.8451 -0.4321 -1.2553
 7048SOL     OW22820   3.078   0.661   7.707  0.3220 -0.1442 -0.2010
 7048SOL    HW122821   3.054   0.568   7.704  2.3188 -0.7563  1.5015
 7048SOL    HW222822   3.160   0.666   7.657  1.4398  0.2705  1.6403
 7049SOL     OW22823   7.133   2.756   6.337  0.0785  0.5858  0.3315
 7049SOL    HW122824   7.126   2.764   6.242 -1.4199 -0.6302  0.3266
 7049SOL    HW222825   7.048   2.785   6.370  0.7249  1.3554  1.3235
 7050SOL     OW22826   3.831   8.860   2.916 -0.0076 -0.2785  0.4943
 7050SOL    HW122827   3.831   8.825   2.827 -0.0834  4.0865 -1.3924
 7050SOL    HW222828   3.923   8.877   2.935 -0.0081 -1.0324  1.1884
 7051SOL     OW22829   2.786   4.356   4.671  0.5522 -0.8152 -0.1997
 7051SOL    HW122830   2.795   4.262   4.688  2.4993 -0.9505 -1.8004
 7051SOL    HW222831   2.871   4.393   4.693  0.2103  0.3741 -0.8447
 7052SOL     OW22832   8.781   2.807   1.655  0.2601  0.3709  0.2571
 7052SOL    HW122833   8.739   2.743   1.598  0.0913  0.2674  0.4936
 7052SOL    HW222834   8.800   2.758   1.735  1.1459  0.3255  0.0283
 7053SOL     OW22835   6.015   3.006   0.828 -0.3951 -0.5629  0.4157
 7053SOL    HW122836   6.094   3.045   0.866  0.2817 -2.3674  0.8967
 7053SOL    HW222837   5.970   3.079   0.786  0.6729  0.8076  1.6021
 7054SOL     OW22838   1.363   8.442   3.007  0.4468 -0.1476 -0.0473
 7054SOL    HW122839   1.273   8.457   3.035  0.1233  0.9076 -1.6013
 7054SOL    HW222840   1.416   8.461   3.084 -0.5266  0.9954  0.3480
 7055SOL     OW22841   3.068   2.906   5.606  0.0850  0.1885  0.3352
 7055SOL    HW122842   3.033   2.835   5.660 -1.8328  0.3370 -0.6704
 7055SOL    HW222843   3.107   2.862   5.530  0.6946  0.1082  0.6930
 7056SOL     OW22844   7.100   3.131   1.909 -0.2398 -0.6425  0.1079
 7056SOL    HW122845   7.158   3.200   1.941  0.5391 -1.2452  0.0080
 7056SOL    HW222846   7.102   3.139   1.814  0.1345 -1.0316  0.0824
 7057SOL     OW22847   8.414   0.870   2.169 -0.5142 -0.3974 -0.1267
 7057SOL    HW122848   8.322   0.847   2.182 -1.1819  2.3402  0.1800
 7057SOL    HW222849   8.415   0.928   2.094  1.1864 -1.5988 -1.0805
 7058SOL     OW22850   0.492   8.254   7.066  0.1339  0.7103 -0.0388
 7058SOL    HW122851   0.570   8.309   7.065  0.1580  0.7040  0.9026
 7058SOL    HW222852   0.479   8.228   6.974  1.1994  0.7579 -0.2043
 7059SOL     OW22853   4.419   0.309   8.131 -0.0264 -0.2105 -0.2255
 7059SOL    HW122854   4.337   0.280   8.092 -0.0667 -0.4951  0.0716
 7059SOL    HW222855   4.393   0.351   8.213  0.0509  0.4500 -0.5365
 7060SOL     OW22856   3.331   2.797   8.831 -0.1031  0.5400 -0.6236
 7060SOL    HW122857   3.330   2.871   8.891  1.0002  0.8980 -1.0416
 7060SOL    HW222858   3.422   2.769   8.829 -0.3603 -0.2701 -1.1529
 7061SOL     OW22859   3.918   3.623   4.957 -0.1478 -0.2116 -0.1267
 7061SOL    HW122860   3.862   3.592   4.885  0.1846  1.1677 -1.0128
 7061SOL    HW222861   3.922   3.718   4.945 -1.8671  0.3181  3.0328
 7062SOL     OW22862   4.430   1.131   3.119 -0.3260 -0.2662 -0.5644
 7062SOL    HW122863   4.390   1.076   3.187 -0.6108 -0.2898 -0.7479
 7062SOL    HW222864   4.469   1.204   3.167  0.0040 -0.5975 -0.3238
 7063SOL     OW22865   1.047   1.010   7.761  0.1658  0.1311 -0.0729
 7063SOL    HW122866   1.123   1.000   7.819  2.0642 -2.2886 -2.8092
 7063SOL    HW222867   1.022   1.102   7.769  3.2056  0.9061  1.1256
 7064SOL     OW22868   0.709   7.835   2.351 -0.0300  1.0684 -0.2191
 7064SOL    HW122869   0.742   7.925   2.363  1.0009  0.7478 -0.5321
 7064SOL    HW222870   0.693   7.803   2.439 -0.5971  1.6367 -0.1160
 7065SOL     OW22871   4.714   5.290   6.163 -0.3468  0.3549 -1.1131
 7065SOL    HW122872   4.768   5.361   6.199 -2.0853  0.9613  0.4134
 7065SOL    HW222873   4.707   5.311   6.070  1.9290  0.3138 -1.3243
 7066SOL     OW22874   0.969   5.931   7.126  0.0999 -0.1045  0.2597
 7066SOL    HW122875   0.905   5.874   7.167  0.6768 -0.8897  0.0746
 7066SOL    HW222876   0.998   5.989   7.197  0.8271 -1.2123  0.8839
 7067SOL     OW22877   0.058   3.984   2.282  0.1749 -0.6421  0.0101
 7067SOL    HW122878  -0.029   3.947   2.295 -0.0635  0.2090  0.8653
 7067SOL    HW222879   0.098   3.985   2.369  1.5357 -2.2247 -0.5626
 7068SOL     OW22880   6.736   3.223   3.346 -0.2701 -0.5407  0.3972
 7068SOL    HW122881   6.762   3.132   3.361  2.4982 -0.1830 -1.7894
 7068SOL    HW222882   6.791   3.273   3.407  1.0372 -0.0934 -1.1121
 7069SOL     OW22883   8.986   3.405   5.796  0.2893  0.9234  0.2413
 7069SOL    HW122884   8.968   3.479   5.738  0.1979  0.1501 -0.7348
 7069SOL    HW222885   9.081   3.401   5.802  0.3543 -0.2695 -1.5314
 7070SOL     OW22886   4.851   2.061   4.295  0.0903 -0.1441  0.6518
 7070SOL    HW122887   4.944   2.081   4.290  0.2126 -0.3181  1.9600
 7070SOL    HW222888   4.821   2.061   4.204  0.8590  2.2527  0.3695
 7071SOL     OW22889   1.968   3.243   1.494  0.4016 -0.1109  0.4458
 7071SOL    HW122890   1.976   3.155   1.457 -1.6808 -0.6204  1.1329
 7071SOL    HW222891   1.994   3.301   1.422 -1.1247 -1.1797 -1.0332
 7072SOL     OW22892   4.053   7.691   4.553  0.1962  0.3627  0.1400
 7072SOL    HW122893   3.988   7.659   4.490  0.2564  0.4031  0.0570
 7072SOL    HW222894   4.012   7.768   4.592 -0.0924 -0.0028  0.5817
 7073SOL     OW22895   8.923   0.286   3.675 -0.1872 -0.6584 -0.0258
 7073SOL    HW122896   8.944   0.224   3.605 -0.1687  0.5926 -1.1514
 7073SOL    HW222897   8.965   0.249   3.753  0.9547 -1.3686 -0.9585
 7074SOL     OW22898   7.808   5.864   8.585 -0.3959  0.1144 -0.2388
 7074SOL    HW122899   7.726   5.908   8.566 -1.4381 -0.1090  3.4067
 7074SOL    HW222900   7.867   5.934   8.615  0.2325  0.0317 -1.2530
 7075SOL     OW22901   2.324   3.451   2.928  0.2791  0.2779 -0.0459
 7075SOL    HW122902   2.255   3.435   2.863  1.0827  0.9625 -1.1014
 7075SOL    HW222903   2.403   3.416   2.887  1.1036  2.2106 -0.1671
 7076SOL     OW22904   0.905   8.872   3.218  0.5120  0.1973  0.5460
 7076SOL    HW122905   0.877   8.903   3.304  1.4897  1.0029  0.5851
 7076SOL    HW222906   0.923   8.778   3.232  1.3391  0.4631  1.4031
 7077SOL     OW22907   0.261   5.759   3.142 -0.2024  0.0910  0.1106
 7077SOL    HW122908   0.276   5.853   3.151 -0.0453  0.0995 -0.2590
 7077SOL    HW222909   0.346   5.719   3.165  0.0804  0.0935 -0.9289
 7078SOL     OW22910   8.479   0.015   1.053 -0.3816  0.2204  0.1243
 7078SOL    HW122911   8.443  -0.057   1.104  1.1583 -1.1372 -0.6531
 7078SOL    HW222912   8.404   0.072   1.035 -2.1400 -2.4501 -1.3565
 7079SOL     OW22913   6.187   6.164   7.226 -0.6851  0.5286  0.1570
 7079SOL    HW122914   6.162   6.202   7.141 -0.8079 -2.7085 -1.3351
 7079SOL    HW222915   6.105   6.162   7.275 -0.6021  2.4905  0.4306
 7080SOL     OW22916   6.230   1.635   1.208  0.2494 -0.1143 -0.0606
 7080SOL    HW122917   6.199   1.621   1.118 -1.5716  2.4822  0.1119
 7080SOL    HW222918   6.323   1.658   1.198  0.5965 -1.8900 -1.0852
 7081SOL     OW22919   9.278   8.815   6.497  0.4972 -0.1636  0.2086
 7081SOL    HW122920   9.373   8.830   6.492  0.7168 -0.5439  2.6379
 7081SOL    HW222921   9.269   8.742   6.559 -1.4280  0.3512  0.5485
 7082SOL     OW22922   7.944   0.824   8.148 -0.6000 -0.1030 -0.0922
 7082SOL    HW122923   7.923   0.747   8.201  2.3114 -0.8548  0.0646
 7082SOL    HW222924   8.039   0.827   8.147 -0.6415  3.6456  0.0529
 7083SOL     OW22925   5.911   9.025   8.154 -0.2546  0.1564 -0.0685
 7083SOL    HW122926   5.910   8.930   8.145  0.7312 -0.0374  1.7288
 7083SOL    HW222927   5.894   9.042   8.246  0.7128  1.6771 -0.1390
 7084SOL     OW22928   7.440   4.039   5.985 -0.0273 -0.2579  0.6756
 7084SOL    HW122929   7.411   4.050   5.895 -0.6475  0.8385  0.9877
 7084SOL    HW222930   7.411   3.951   6.009 -0.4477 -0.3049  0.0130
 7085SOL     OW22931   6.311   6.045   3.717  0.5694  0.5876  0.0001
 7085SOL    HW122932   6.346   6.120   3.765 -1.6960  1.7097 -0.0483
 7085SOL    HW222933   6.273   5.989   3.785  1.4233 -0.0765 -0.0581
 7086SOL     OW22934   1.002   5.410   8.803  0.1695 -0.4562  0.1984
 7086SOL    HW122935   0.917   5.365   8.805 -0.8667  1.4278  2.9372
 7086SOL    HW222936   1.005   5.452   8.717 -2.1726  0.2843  0.4253
 7087SOL     OW22937   6.093   6.507   5.178  0.0487 -0.2756 -0.1413
 7087SOL    HW122938   6.119   6.437   5.118 -0.7903 -0.0368 -0.7969
 7087SOL    HW222939   6.093   6.467   5.264  0.8314 -0.7434 -0.3614
 7088SOL     OW22940   7.490   1.679   0.697 -0.2182 -0.5214  0.4258
 7088SOL    HW122941   7.503   1.716   0.609 -2.2233 -1.7811 -0.4444
 7088SOL    HW222942   7.515   1.749   0.756 -0.3527  0.9141 -1.1742
 7089SOL     OW22943   1.252   3.217   5.093  0.4013 -0.8278  0.4240
 7089SOL    HW122944   1.187   3.163   5.047 -1.1340  1.2518  0.1045
 7089SOL    HW222945   1.211   3.236   5.178  1.2056 -0.6855  0.7814
 7090SOL     OW22946   2.713   6.208   5.063  0.4299  0.7496  0.3906
 7090SOL    HW122947   2.805   6.199   5.038  0.5044  2.6277 -0.0774
 7090SOL    HW222948   2.715   6.253   5.148 -0.0472  0.8475  0.3536
 7091SOL     OW22949   7.794   2.551   3.865  0.6655  0.5964 -0.1710
 7091SOL    HW122950   7.799   2.627   3.924 -0.4860  0.4673  0.1108
 7091SOL    HW222951   7.885   2.532   3.842  1.2627 -0.1473  2.5946
 7092SOL     OW22952   6.509   1.549   4.627 -0.1810  0.0964  0.2605
 7092SOL    HW122953   6.487   1.639   4.650 -2.5381 -0.7421  1.3540
 7092SOL    HW222954   6.435   1.518   4.575  1.5898 -0.5578 -1.9998
 7093SOL     OW22955   9.224   5.374   4.178 -0.5214 -0.0922  0.9272
 7093SOL    HW122956   9.265   5.440   4.122 -3.1629  0.2194 -0.7205
 7093SOL    HW222957   9.157   5.421   4.226 -1.2797 -1.2434  1.0213
 7094SOL     OW22958   0.366   5.508   1.390  0.0684 -0.1689  0.3945
 7094SOL    HW122959   0.356   5.414   1.402  1.4489  0.0554  3.7147
 7094SOL    HW222960   0.430   5.516   1.319  0.0352 -1.7335  0.1681
 7095SOL     OW22961   7.671   1.127   3.132 -0.4449  0.1240  0.4485
 7095SOL    HW122962   7.729   1.203   3.126 -1.7586  1.1954  1.0343
 7095SOL    HW222963   7.606   1.141   3.063 -1.8225  0.5339  1.7989
 7096SOL     OW22964   6.877   6.853   6.203  0.2465  0.3567  0.9284
 7096SOL    HW122965   6.943   6.923   6.194  1.4976 -0.7330  1.4613
 7096SOL    HW222966   6.815   6.888   6.268 -0.5632  2.0140 -0.6879
 7097SOL     OW22967   6.891   4.403   9.012  0.0733  0.0824  0.0521
 7097SOL    HW122968   6.816   4.343   9.022 -0.8171  1.0634 -0.6623
 7097SOL    HW222969   6.887   4.459   9.089 -1.9776  2.3428 -1.5994
 7098SOL     OW22970   7.711   1.409   1.112  0.5854 -0.6787 -0.0780
 7098SOL    HW122971   7.738   1.336   1.057 -0.1254 -0.1943 -1.0804
 7098SOL    HW222972   7.786   1.469   1.109 -0.3744  0.4887 -2.5573
 7099SOL     OW22973   1.158   0.593   3.354 -0.1171 -0.4882 -0.2588
 7099SOL    HW122974   1.197   0.680   3.361  0.7550 -0.8772 -0.2295
 7099SOL    HW222975   1.211   0.539   3.412 -0.8764 -0.9657 -0.0080
 7100SOL     OW22976   8.617   8.698   8.687 -0.1666 -0.9350  0.6265
 7100SOL    HW122977   8.657   8.723   8.770 -1.8242 -0.3926  1.2808
 7100SOL    HW222978   8.523   8.701   8.703 -0.5436  0.0109 -1.4931
 7101SOL     OW22979   4.626   5.779   6.107 -0.0723 -0.0843  0.5133
 7101SOL    HW122980   4.634   5.855   6.164  3.1595  0.5359 -0.6639
 7101SOL    HW222981   4.596   5.815   6.023  0.8679 -0.1658  0.1337
 7102SOL     OW22982   8.558   3.643   7.584  0.1374  0.3580 -0.3267
 7102SOL    HW122983   8.477   3.618   7.628  0.3262 -1.3884 -0.8984
 7102SOL    HW222984   8.609   3.562   7.582  0.7342  0.7540 -2.4005
 7103SOL     OW22985   0.176   1.819   6.914 -0.1305 -0.1505 -0.0874
 7103SOL    HW122986   0.209   1.729   6.921  0.9540  0.1092 -1.5211
 7103SOL    HW222987   0.242   1.864   6.861 -0.2651  1.7114  1.3156
 7104SOL     OW22988   0.741   2.256   1.046  0.2945 -0.0274  0.1500
 7104SOL    HW122989   0.734   2.166   1.014  0.1205 -0.0399  0.2235
 7104SOL    HW222990   0.691   2.307   0.982 -2.1627 -0.3663  1.7597
 7105SOL     OW22991   8.233   6.408   0.661 -0.3556 -0.4331 -0.3643
 7105SOL    HW122992   8.144   6.439   0.644  0.0158  1.1249  0.4223
 7105SOL    HW222993   8.272   6.476   0.715  0.7036 -2.0008  0.9193
 7106SOL     OW22994   9.126   1.573   5.947  0.3735 -0.0562  0.7505
 7106SOL    HW122995   9.142   1.479   5.954 -1.8536 -0.6055 -0.9885
 7106SOL    HW222996   9.132   1.605   6.037 -1.1067 -2.2671  1.6685
 7107SOL     OW22997   1.541   2.092   0.075 -0.3405  0.2384  0.2907
 7107SOL    HW122998   1.480   2.165   0.066 -0.1201  0.1870 -2.0794
 7107SOL    HW222999   1.613   2.114   0.015  0.3532 -1.2923  0.5341
 7108SOL     OW23000   0.457   5.559   4.809 -0.2246  0.2123 -0.0240
 7108SOL    HW123001   0.390   5.502   4.846 -0.5530  1.0606  0.6873
 7108SOL    HW223002   0.473   5.625   4.876 -2.0484  2.7737 -1.9916
 7109SOL     OW23003   0.896   5.769   5.503  0.5066  0.2513 -0.6275
 7109SOL    HW123004   0.813   5.784   5.549 -0.9727 -0.3363 -3.0323
 7109SOL    HW223005   0.925   5.857   5.478  0.0652  0.3855 -0.6817
 7110SOL     OW23006   5.716   0.226   1.404 -0.1424 -0.0466  0.2097
 7110SOL    HW123007   5.650   0.232   1.335  1.0025  1.8501 -0.7589
 7110SOL    HW223008   5.677   0.271   1.479  0.2576  1.6420 -0.5628
 7111SOL     OW23009   7.314   2.968   1.584 -0.5233  0.0852 -0.0949
 7111SOL    HW123010   7.352   2.940   1.667 -0.0316 -1.3879 -0.7935
 7111SOL    HW223011   7.383   2.949   1.519 -1.0275  0.9056 -0.8855
 7112SOL     OW23012   4.807   7.876   8.536 -0.9377 -0.4199  0.2218
 7112SOL    HW123013   4.744   7.883   8.465 -1.1507  0.5175  0.4956
 7112SOL    HW223014   4.762   7.827   8.605 -0.9585 -0.7569 -0.0332
 7113SOL     OW23015   8.946   0.697   1.142 -0.4707 -0.0861  0.1712
 7113SOL    HW123016   8.865   0.748   1.143  0.1065  0.8563 -0.6984
 7113SOL    HW223017   8.999   0.737   1.073  1.2904  0.1668  1.6245
 7114SOL     OW23018   1.182   4.825   4.660  0.4757  0.0966 -0.1466
 7114SOL    HW123019   1.167   4.895   4.595  3.5631  0.2185 -0.7672
 7114SOL    HW223020   1.241   4.764   4.617  0.2807 -1.3219  1.5394
 7115SOL     OW23021   0.602   1.032   1.666  0.3644  0.2908  0.5230
 7115SOL    HW123022   0.559   0.947   1.672  0.2095  0.3031 -0.2610
 7115SOL    HW223023   0.538   1.094   1.702 -0.9349  0.5064 -1.9968
 7116SOL     OW23024   0.123   4.557   3.569 -0.0822  0.0471  0.0062
 7116SOL    HW123025   0.132   4.547   3.664 -0.8761  1.7084  0.2696
 7116SOL    HW223026   0.029   4.549   3.553  0.0736 -0.5060 -0.6922
 7117SOL     OW23027   4.206   4.057   3.416  0.1551  0.1910 -0.1549
 7117SOL    HW123028   4.271   4.124   3.438  1.2519 -1.0190  0.4212
 7117SOL    HW223029   4.124   4.089   3.453  0.9701  0.5247  1.3855
 7118SOL     OW23030   9.221   7.219   8.120 -0.4542 -0.2299  0.1701
 7118SOL    HW123031   9.199   7.303   8.161 -1.3921  0.2272 -1.2074
 7118SOL    HW223032   9.158   7.158   8.157  0.1147 -0.2934  1.0429
 7119SOL     OW23033   3.366   6.815   8.656 -0.0503  0.2513  0.1368
 7119SOL    HW123034   3.301   6.748   8.634 -0.1055 -0.3920  2.1173
 7119SOL    HW223035   3.317   6.897   8.654 -0.1936  0.1332 -1.4251
 7120SOL     OW23036   8.685   6.067   4.788 -0.2495 -0.0499 -0.3127
 7120SOL    HW123037   8.693   6.162   4.778  0.3943 -0.3063 -2.6361
 7120SOL    HW223038   8.773   6.038   4.812 -0.9445  0.1476  2.6145
 7121SOL     OW23039   6.070   2.686   1.589 -0.3555  0.2219  0.1680
 7121SOL    HW123040   6.143   2.629   1.612  0.1301  0.6328 -0.3352
 7121SOL    HW223041   6.089   2.769   1.632 -0.7167  0.2212  0.3374
 7122SOL     OW23042   4.299   7.859   1.450  0.1448  0.0096  0.1477
 7122SOL    HW123043   4.313   7.951   1.430  0.7676 -0.1233 -0.0347
 7122SOL    HW223044   4.226   7.833   1.394 -1.0659  0.7818  1.3251
 7123SOL     OW23045   5.440   7.628   6.410 -0.0202 -0.4421 -0.3786
 7123SOL    HW123046   5.384   7.689   6.362  0.3596  1.3862  1.4805
 7123SOL    HW223047   5.475   7.570   6.342 -1.8967  0.1753 -1.9217
 7124SOL     OW23048   8.822   2.795   6.120 -0.0814  0.2387  0.0400
 7124SOL    HW123049   8.844   2.888   6.118 -1.3744  0.5296 -2.4381
 7124SOL    HW223050   8.907   2.750   6.122  0.5683  1.4525  0.1433
 7125SOL     OW23051   4.852   1.914   3.020 -0.7597 -0.1206 -0.6469
 7125SOL    HW123052   4.852   1.875   3.107  1.4179  1.7866  0.2740
 7125SOL    HW223053   4.940   1.896   2.986 -0.5218  1.8152 -1.1479
 7126SOL     OW23054   1.106   8.343   0.018  0.0114  0.3913  0.0506
 7126SOL    HW123055   1.045   8.289   0.068  0.8116 -0.5778 -0.0091
 7126SOL    HW223056   1.102   8.429   0.060 -0.8543  0.1424  0.4955
 7127SOL     OW23057   4.925   5.878   3.064 -0.1139  0.2649 -0.2381
 7127SOL    HW123058   4.934   5.853   3.156  0.2305  0.4457 -0.2250
 7127SOL    HW223059   4.842   5.838   3.037 -0.0809 -0.0182  0.0750
 7128SOL     OW23060   4.956   1.963   3.804 -0.0361  0.2223 -0.0493
 7128SOL    HW123061   5.017   1.984   3.733  1.0278  0.3998  0.9135
 7128SOL    HW223062   4.973   1.871   3.823 -0.4664  0.1202 -0.1599
 7129SOL     OW23063   8.747   9.047   5.948 -0.8059 -0.7556 -0.2649
 7129SOL    HW123064   8.701   9.130   5.954  0.9948  0.1915  0.9064
 7129SOL    HW223065   8.799   9.055   5.867 -0.6383 -0.7273 -0.1558
 7130SOL     OW23066   7.730   4.304   3.587  0.0563  0.5880  0.2120
 7130SOL    HW123067   7.696   4.349   3.664 -1.5231  0.8620 -0.6300
 7130SOL    HW223068   7.722   4.368   3.516  0.1407 -0.1629 -0.4850
 7131SOL     OW23069   4.443   2.466   3.268  0.0425 -0.2402 -0.0288
 7131SOL    HW123070   4.482   2.493   3.352 -0.0972 -0.3349  0.0674
 7131SOL    HW223071   4.373   2.405   3.293 -0.6420  0.4729 -0.1500
 7132SOL     OW23072   3.568   0.774   7.699 -0.3082 -0.1769 -0.1899
 7132SOL    HW123073   3.658   0.800   7.679  0.0535  0.1694  1.8298
 7132SOL    HW223074   3.577   0.704   7.763 -1.4848 -0.1264  0.0425
 7133SOL     OW23075   4.491   2.860   5.898 -0.4649  0.0806 -0.2118
 7133SOL    HW123076   4.482   2.926   5.829 -0.1418 -0.9668 -1.2672
 7133SOL    HW223077   4.563   2.893   5.953 -0.4406  0.7031 -0.6076
 7134SOL     OW23078   2.204   8.010   3.221 -0.4286 -0.0265  0.0611
 7134SOL    HW123079   2.231   7.923   3.250  2.9651  1.1200  0.5272
 7134SOL    HW223080   2.174   8.053   3.300 -1.3174 -0.4694 -0.0266
 7135SOL     OW23081   7.857   1.634   4.024  0.3352  0.5902  0.0417
 7135SOL    HW123082   7.935   1.688   4.038 -0.3029  1.3387  0.7969
 7135SOL    HW223083   7.877   1.552   4.069 -0.1733  1.5914  2.1899
 7136SOL     OW23084   0.992   1.903   8.417  0.0574 -0.6358 -0.0569
 7136SOL    HW123085   0.921   1.952   8.377 -0.3868 -1.4242 -0.2461
 7136SOL    HW223086   1.057   1.969   8.440  0.0357 -0.1013 -1.4987
 7137SOL     OW23087   7.383   2.758   6.453  0.2735  0.0201 -0.1680
 7137SOL    HW123088   7.400   2.851   6.467  1.5242  0.2624 -2.8767
 7137SOL    HW223089   7.298   2.756   6.407  0.1384 -0.1893  0.0903
 7138SOL     OW23090   3.366   5.514   6.332  0.4514  0.4638 -0.2881
 7138SOL    HW123091   3.459   5.495   6.317  0.0730 -0.4064 -1.6838
 7138SOL    HW223092   3.349   5.481   6.420  0.8538 -1.8236 -1.0213
 7139SOL     OW23093   6.913   7.868   1.485  0.0841 -0.4692 -0.2405
 7139SOL    HW123094   7.000   7.830   1.477  0.6739  0.2164  2.2135
 7139SOL    HW223095   6.869   7.813   1.550 -0.9371 -0.2065 -0.7082
 7140SOL     OW23096   3.368   1.679   5.010 -0.6465  0.1022 -0.4097
 7140SOL    HW123097   3.284   1.662   5.053 -1.1120  0.5299 -1.1452
 7140SOL    HW223098   3.413   1.741   5.068 -0.2022 -1.2744  0.7462
 7141SOL     OW23099   4.561   3.044   7.236  0.7349 -0.3734 -0.0239
 7141SOL    HW123100   4.577   3.112   7.300  2.5466 -0.4593 -0.3635
 7141SOL    HW223101   4.482   2.999   7.267 -0.6482  2.0450  0.0345
 7142SOL     OW23102   7.217   4.600   8.816 -0.5170  0.5847  0.4111
 7142SOL    HW123103   7.128   4.632   8.806 -0.3528  0.5887 -1.2409
 7142SOL    HW223104   7.273   4.675   8.795 -0.1328  0.4388  0.9067
 7143SOL     OW23105   5.864   0.314   3.415 -0.0596 -0.2068  0.0213
 7143SOL    HW123106   5.892   0.244   3.356 -0.1329 -0.7488  0.6299
 7143SOL    HW223107   5.931   0.316   3.483 -0.7191 -0.5279  0.6855
 7144SOL     OW23108   8.607   4.073   6.115  0.0405  0.2516 -0.3065
 7144SOL    HW123109   8.550   4.150   6.113 -1.5093 -0.7912  1.7231
 7144SOL    HW223110   8.548   4.000   6.136  2.4301 -0.5063  4.4914
 7145SOL     OW23111   4.392   5.517   3.003 -0.1146  0.9165 -0.2408
 7145SOL    HW123112   4.445   5.585   3.045 -0.1453  0.5337  0.4252
 7145SOL    HW223113   4.455   5.446   2.987 -0.5812  0.1430  1.2771
 7146SOL     OW23114   2.471   8.660   2.931  0.1911 -0.3763 -0.1898
 7146SOL    HW123115   2.403   8.593   2.920 -0.2923  0.3474 -1.7386
 7146SOL    HW223116   2.499   8.681   2.842  0.4608  1.3394  0.2773
 7147SOL     OW23117   7.208   4.225   8.464 -0.2674 -0.3082  0.3470
 7147SOL    HW123118   7.236   4.249   8.553  0.0237 -0.8374  0.4010
 7147SOL    HW223119   7.179   4.135   8.472  0.4748 -0.6093 -0.2483
 7148SOL     OW23120   8.579   4.155   5.454 -0.1105  0.9063  0.0950
 7148SOL    HW123121   8.506   4.215   5.470 -1.0090  0.0903 -0.7705
 7148SOL    HW223122   8.567   4.085   5.518  0.1260  0.9569  0.1948
 7149SOL     OW23123   0.509   2.094   6.122 -0.2237 -0.1814 -0.1987
 7149SOL    HW123124   0.478   2.045   6.198 -2.2404 -0.1684 -0.9809
 7149SOL    HW223125   0.567   2.034   6.076  2.1404  0.2831  2.0659
 7150SOL     OW23126   9.076   4.793   4.357 -0.1167  0.2116 -0.1273
 7150SOL    HW123127   9.092   4.865   4.296 -0.8879  0.7809  0.3364
 7150SOL    HW223128   8.983   4.799   4.378 -0.8836 -2.7097 -2.3621
 7151SOL     OW23129   4.703   6.094   6.865 -0.4575 -0.3483  0.0246
 7151SOL    HW123130   4.691   6.143   6.783 -1.0590 -0.5475 -0.0093
 7151SOL    HW223131   4.619   6.049   6.878 -0.3034 -0.4427  0.6698
 7152SOL     OW23132   0.624   1.719   6.097 -0.8202 -0.1629 -0.0145
 7152SOL    HW123133   0.703   1.721   6.043 -0.4491 -0.6890  0.5035
 7152SOL    HW223134   0.562   1.667   6.047 -0.0288 -1.7798  0.6548
 7153SOL     OW23135   4.515   1.492   2.988  0.0280  0.3123  0.0947
 7153SOL    HW123136   4.460   1.499   2.909  0.8827 -2.9141 -0.8643
 7153SOL    HW223137   4.588   1.550   2.971 -0.0947  0.1011 -1.2828
 7154SOL     OW23138   5.816   8.726   3.226  0.0202 -0.3463 -0.2978
 7154SOL    HW123139   5.765   8.724   3.145  0.6705  0.1886 -0.7309
 7154SOL    HW223140   5.903   8.694   3.201  0.2118 -0.2304  0.1972
 7155SOL     OW23141   2.225   0.083   0.998 -0.0076 -0.0837 -0.1281
 7155SOL    HW123142   2.176   0.039   1.068 -0.2908 -1.8504 -1.4050
 7155SOL    HW223143   2.295   0.129   1.044 -0.6955 -0.5234  1.4069
 7156SOL     OW23144   3.187   3.813   6.624  0.5746 -0.8500 -0.2481
 7156SOL    HW123145   3.173   3.744   6.689 -0.3852 -0.8205 -0.4220
 7156SOL    HW223146   3.262   3.782   6.573 -0.3773 -2.1886 -0.8740
 7157SOL     OW23147   1.417   7.281   6.874 -0.3122  0.0490 -0.7976
 7157SOL    HW123148   1.346   7.221   6.898  0.0698  0.5167  1.6893
 7157SOL    HW223149   1.378   7.368   6.884  0.4595  0.2964  0.2117
 7158SOL     OW23150   2.312   2.576   2.853 -1.2685 -0.1096  0.7144
 7158SOL    HW123151   2.261   2.511   2.805 -0.2471 -1.0681  0.8932
 7158SOL    HW223152   2.361   2.623   2.785 -0.1424 -1.1858  0.7579
 7159SOL     OW23153   3.197   4.888   4.890  0.0948  0.8364 -0.2498
 7159SOL    HW123154   3.292   4.878   4.890  0.1180  0.6456  2.4307
 7159SOL    HW223155   3.165   4.809   4.847  1.1303  0.8125 -1.0020
 7160SOL     OW23156   7.308   8.771   0.592  0.7548 -0.0704 -0.3927
 7160SOL    HW123157   7.339   8.861   0.577  1.6713 -0.0994  1.2187
 7160SOL    HW223158   7.383   8.726   0.630 -0.3429 -0.9757  0.7144
 7161SOL     OW23159   4.387   4.453   9.111 -0.1888 -0.0404  0.0599
 7161SOL    HW123160   4.344   4.384   9.161  1.4184 -0.8435  0.3809
 7161SOL    HW223161   4.321   4.483   9.049 -0.6983 -2.3915 -0.5961
 7162SOL     OW23162   7.166   7.740   5.057 -0.5345  0.3995  0.1919
 7162SOL    HW123163   7.115   7.697   5.125 -1.2440  0.3357 -0.3692
 7162SOL    HW223164   7.230   7.673   5.030 -0.6695  0.2048  0.3524
 7163SOL     OW23165   1.550   2.195   3.096 -0.1631  0.3919  0.0481
 7163SOL    HW123166   1.618   2.261   3.101  0.7846 -0.5553 -0.1738
 7163SOL    HW223167   1.565   2.139   3.173 -0.1993 -0.2774 -0.4271
 7164SOL     OW23168   3.139   5.361   3.456  0.0551  0.1604  0.4259
 7164SOL    HW123169   3.088   5.350   3.536 -1.3201 -0.0032 -0.4519
 7164SOL    HW223170   3.091   5.310   3.390 -0.0546  2.0372 -1.0050
 7165SOL     OW23171   2.033   8.508   6.554 -0.3993 -0.6526 -0.1598
 7165SOL    HW123172   2.035   8.421   6.592  0.3020 -0.5750 -0.0172
 7165SOL    HW223173   2.030   8.494   6.460 -1.4641 -0.8392 -0.1099
 7166SOL     OW23174   1.297   7.368   5.980 -0.0349  0.1743 -0.0356
 7166SOL    HW123175   1.265   7.366   6.070  1.5766  1.4827  0.6090
 7166SOL    HW223176   1.295   7.277   5.951  1.4676 -0.5769  2.0879
 7167SOL     OW23177   7.640   7.913   0.689  0.2327  0.3003 -0.1164
 7167SOL    HW123178   7.597   7.829   0.701  3.3745 -1.5663 -1.4678
 7167SOL    HW223179   7.589   7.974   0.743 -1.6123 -2.5967  1.5156
 7168SOL     OW23180   0.434   5.230   8.697  0.0466 -0.1675  0.5410
 7168SOL    HW123181   0.525   5.222   8.728  0.2290 -0.3086 -0.0210
 7168SOL    HW223182   0.381   5.230   8.777  0.5045 -0.5871  0.8469
 7169SOL     OW23183   9.110   2.179   7.458 -0.1345  0.4133  0.1633
 7169SOL    HW123184   9.170   2.180   7.532 -1.1070  2.1358  0.9470
 7169SOL    HW223185   9.145   2.112   7.400  1.7177  0.3821  1.2872
 7170SOL     OW23186   2.289   4.860   5.650 -0.6865 -0.2821 -0.2138
 7170SOL    HW123187   2.365   4.807   5.626 -0.1446 -0.3716  1.6229
 7170SOL    HW223188   2.256   4.894   5.567  1.0165 -0.7152 -1.0885
 7171SOL     OW23189   1.216   1.326   6.271  0.3730  0.4324 -0.0737
 7171SOL    HW123190   1.169   1.362   6.347 -0.7804 -3.1414  1.0437
 7171SOL    HW223191   1.150   1.322   6.202  0.4400  0.3801 -0.1353
 7172SOL     OW23192   4.826   6.280   8.961  0.8004 -0.1677 -0.0559
 7172SOL    HW123193   4.828   6.189   8.931 -0.8840 -0.1561 -0.1978
 7172SOL    HW223194   4.856   6.330   8.885  3.3039 -0.6995  0.5152
 7173SOL     OW23195   2.261   1.250   4.896  0.1227  0.2685  0.1895
 7173SOL    HW123196   2.342   1.260   4.947  0.2077  0.6472 -0.0207
 7173SOL    HW223197   2.272   1.310   4.822  0.6676 -1.3694 -1.1009
 7174SOL     OW23198   8.865   4.957   6.905 -0.0303  0.0696 -0.2699
 7174SOL    HW123199   8.916   4.925   6.979  0.2753  0.4590 -0.3096
 7174SOL    HW223200   8.780   4.979   6.942  0.7328  2.1177  0.3620
 7175SOL     OW23201   6.825   3.450   1.871  0.2768  0.2532  0.6173
 7175SOL    HW123202   6.770   3.464   1.948  1.4334  0.2428  1.4635
 7175SOL    HW223203   6.868   3.366   1.887 -0.1276 -0.1707 -0.4554
 7176SOL     OW23204   3.879   5.692   3.932  0.0155  0.0636 -0.0201
 7176SOL    HW123205   3.913   5.626   3.871 -1.4779  0.7200 -1.6101
 7176SOL    HW223206   3.795   5.719   3.893  0.0182  1.9910  1.2647
 7177SOL     OW23207   2.189   0.490   6.705 -0.4401  0.0029 -0.0915
 7177SOL    HW123208   2.201   0.409   6.755 -0.4438 -0.6173 -1.0793
 7177SOL    HW223209   2.172   0.460   6.615  0.5188  1.1330 -0.6516
 7178SOL     OW23210   3.094   6.202   0.949 -0.4123 -0.2227  0.3561
 7178SOL    HW123211   3.119   6.164   0.864  0.8181 -0.7409  0.9213
 7178SOL    HW223212   3.035   6.274   0.928 -0.9620 -1.0260 -0.8798
 7179SOL     OW23213   5.621   2.740   7.239  0.1168 -0.2547 -0.2746
 7179SOL    HW123214   5.631   2.760   7.145 -0.2021 -0.8827 -0.4410
 7179SOL    HW223215   5.668   2.658   7.251 -1.6272 -1.2724 -0.3112
 7180SOL     OW23216   6.637   3.807   0.921 -0.9295  0.5155  0.0340
 7180SOL    HW123217   6.637   3.809   0.825 -1.9534  0.4448  0.0239
 7180SOL    HW223218   6.548   3.835   0.945 -1.1735 -0.9813  0.9329
 7181SOL     OW23219   8.946   3.303   7.971 -0.0878  0.1929  0.2534
 7181SOL    HW123220   9.037   3.272   7.974 -0.4304 -0.8257  0.1752
 7181SOL    HW223221   8.954   3.398   7.969  0.9764  0.1248  0.5811
 7182SOL     OW23222   1.646   3.555   0.730  0.4111  0.0775  0.1611
 7182SOL    HW123223   1.639   3.593   0.643 -0.5680 -1.4266 -0.4400
 7182SOL    HW223224   1.662   3.461   0.714  1.1264 -0.0649  1.5943
 7183SOL     OW23225   6.388   6.776   5.477  0.6146  0.1825 -0.1477
 7183SOL    HW123226   6.418   6.802   5.564  0.1771  1.9808 -0.5197
 7183SOL    HW223227   6.468   6.761   5.427  0.8789  0.7557  0.0984
 7184SOL     OW23228   0.572   1.706   6.851  0.4203 -0.6233  0.4411
 7184SOL    HW123229   0.528   1.624   6.828  1.4098 -0.6208 -1.5648
 7184SOL    HW223230   0.503   1.773   6.846  0.5661 -0.6324 -2.5836
 7185SOL     OW23231   3.288   7.720   6.113  0.2471 -0.5938 -0.5537
 7185SOL    HW123232   3.256   7.630   6.100  0.0277 -0.6497  0.3818
 7185SOL    HW223233   3.378   7.719   6.079  0.5850 -1.4180  0.3520
 7186SOL     OW23234   6.578   1.209   1.384 -0.8200  0.9731  0.3334
 7186SOL    HW123235   6.535   1.291   1.361 -0.5456  1.1511  0.4646
 7186SOL    HW223236   6.531   1.178   1.461 -1.8690  0.2783 -0.5610
 7187SOL     OW23237   6.948   6.298   7.778  0.0694  0.4814  0.2838
 7187SOL    HW123238   6.961   6.344   7.695 -0.4541  1.3587  0.6874
 7187SOL    HW223239   7.019   6.330   7.834  1.4989 -1.4360 -0.3784
 7188SOL     OW23240   9.014   0.333   7.096  0.2917  0.3992 -0.0958
 7188SOL    HW123241   8.983   0.262   7.040 -0.5132  1.2768 -0.7728
 7188SOL    HW223242   9.068   0.387   7.038  1.4835 -0.0324  0.5897
 7189SOL     OW23243   1.576   0.911   6.010  0.1946 -0.2734 -0.5716
 7189SOL    HW123244   1.589   0.863   6.092 -0.5917 -1.4250 -1.1120
 7189SOL    HW223245   1.665   0.933   5.981  0.5324 -0.8256  0.0250
 7190SOL     OW23246   0.409   9.082   3.083  0.3702  0.4378  0.3032
 7190SOL    HW123247   0.385   9.017   3.016  2.1767 -0.5771  0.6114
 7190SOL    HW223248   0.387   9.040   3.166  0.8690  0.5054  0.4723
 7191SOL     OW23249   4.197   6.618   1.174 -0.6999 -0.5486 -0.0861
 7191SOL    HW123250   4.166   6.705   1.200 -1.0837 -1.1301  1.4522
 7191SOL    HW223251   4.117   6.570   1.152 -0.4689 -0.4530 -1.2099
 7192SOL     OW23252   8.422   2.351   1.043 -0.9441 -0.1765 -0.2977
 7192SOL    HW123253   8.365   2.382   0.973 -1.4418  0.0729  0.2168
 7192SOL    HW223254   8.402   2.257   1.051 -0.8496 -0.2161 -0.5213
 7193SOL     OW23255   8.686   9.092   1.961 -0.2087 -0.1741 -0.3384
 7193SOL    HW123256   8.780   9.107   1.966 -0.3409  0.2808  0.8378
 7193SOL    HW223257   8.649   9.179   1.943 -0.4922 -0.1370  0.4015
 7194SOL     OW23258   0.038   8.112   3.684 -0.0227 -0.0794 -0.2497
 7194SOL    HW123259  -0.006   8.048   3.740  2.7968 -0.0027  2.1636
 7194SOL    HW223260   0.095   8.060   3.628  0.3043  0.1370 -0.1210
 7195SOL     OW23261   3.974   7.245   9.003  0.2349  0.5310  0.1443
 7195SOL    HW123262   4.003   7.325   9.045 -0.3533  0.8944 -0.1372
 7195SOL    HW223263   3.898   7.217   9.055  0.2961  0.2789  0.1008
 7196SOL     OW23264   6.485   5.339   3.282 -0.6316  0.1836  0.7469
 7196SOL    HW123265   6.550   5.315   3.215 -1.6404 -0.4618 -0.0094
 7196SOL    HW223266   6.478   5.434   3.276 -2.8271 -0.1002 -2.0736
 7197SOL     OW23267   8.445   7.679   5.366  0.7181 -0.6792 -0.5231
 7197SOL    HW123268   8.469   7.735   5.441 -0.9617 -2.0459  1.0721
 7197SOL    HW223269   8.355   7.704   5.345  0.3192 -2.0339 -0.4646
 7198SOL     OW23270   1.814   7.583   5.682 -0.5964  0.1774 -0.2706
 7198SOL    HW123271   1.882   7.590   5.749 -1.8948  2.7144  0.8712
 7198SOL    HW223272   1.746   7.529   5.721 -0.5028  0.0550 -0.2790
 7199SOL     OW23273   9.012   5.012   0.789 -0.1566 -0.1152 -0.0513
 7199SOL    HW123274   8.965   5.095   0.795 -0.5739 -0.4447  1.5819
 7199SOL    HW223275   8.943   4.945   0.786  0.1779 -0.4543 -0.2531
 7200SOL     OW23276   3.998   0.441   7.419  0.0181  0.8362  0.1847
 7200SOL    HW123277   3.997   0.458   7.513  0.3039  0.1698  0.3083
 7200SOL    HW223278   3.914   0.398   7.401  0.6584 -0.5585  0.4278
 7201SOL     OW23279   6.860   0.369   8.267  0.4009  0.8943  0.0186
 7201SOL    HW123280   6.873   0.455   8.307 -0.1210  0.7500  0.5075
 7201SOL    HW223281   6.785   0.381   8.208 -1.2977  0.1805  1.9557
 7202SOL     OW23282   1.771   1.569   8.327 -0.1013  0.6595 -0.5145
 7202SOL    HW123283   1.807   1.511   8.260  0.3908  0.3803 -0.0186
 7202SOL    HW223284   1.695   1.522   8.361  0.4875  0.1504  0.1130
 7203SOL     OW23285   6.262   5.513   2.463 -0.4977 -0.5256  0.3124
 7203SOL    HW123286   6.329   5.480   2.524  1.4461  1.2370 -0.8166
 7203SOL    HW223287   6.293   5.600   2.438 -3.5146  0.5446  0.1532
 7204SOL     OW23288   0.195   8.412   4.881 -0.2459 -0.1412 -0.0246
 7204SOL    HW123289   0.231   8.356   4.950  0.1704 -0.4128 -0.4604
 7204SOL    HW223290   0.164   8.351   4.814  0.1750  0.1407 -0.4837
 7205SOL     OW23291   6.407   8.524   5.132 -0.3258  0.1576 -0.1518
 7205SOL    HW123292   6.489   8.556   5.168  0.2016 -3.4169  2.0707
 7205SOL    HW223293   6.429   8.498   5.042  0.4578  1.0740 -0.2307
 7206SOL     OW23294   4.651   0.534   0.409  0.2114 -0.3443 -0.7343
 7206SOL    HW123295   4.595   0.562   0.336 -1.4439  1.4790  1.1867
 7206SOL    HW223296   4.617   0.447   0.432 -1.9938  0.7957  0.4955
 7207SOL     OW23297   3.628   0.469   0.824  0.6011 -0.0096 -0.3066
 7207SOL    HW123298   3.705   0.514   0.791  1.4056 -1.2133 -0.1058
 7207SOL    HW223299   3.585   0.434   0.746  0.7653 -0.1335 -0.3411
 7208SOL     OW23300   5.028   5.876   9.204  0.4322 -0.5500  0.1103
 7208SOL    HW123301   5.025   5.783   9.185  1.1154 -0.6353  0.4381
 7208SOL    HW223302   4.957   5.913   9.151 -0.6671 -1.4173  0.9400
 7209SOL     OW23303   0.031   1.061   9.009  0.1642 -0.0432  0.4442
 7209SOL    HW123304   0.018   1.146   9.050  1.4188  0.2416  0.2725
 7209SOL    HW223305  -0.005   1.071   8.921 -0.3031  0.0953  0.6486
 7210SOL     OW23306   7.428   7.704   6.283  0.1098  0.3082  0.0188
 7210SOL    HW123307   7.411   7.689   6.190 -0.2837 -0.8174  0.2595
 7210SOL    HW223308   7.376   7.781   6.304  1.9491  1.9249 -1.1907
 7211SOL     OW23309   5.753   4.803   6.003 -0.6367  0.5440 -0.1101
 7211SOL    HW123310   5.768   4.803   5.909 -1.5998  1.4883 -0.2782
 7211SOL    HW223311   5.791   4.886   6.033  0.0975  0.0219  0.4025
 7212SOL     OW23312   6.311   5.099   0.670  0.1239 -0.8572 -0.3763
 7212SOL    HW123313   6.302   5.184   0.627 -0.7865 -0.7582 -0.0025
 7212SOL    HW223314   6.402   5.096   0.698  0.6144 -0.7408 -1.9233
 7213SOL     OW23315   4.853   3.881   2.439  0.5089 -0.4106 -0.3481
 7213SOL    HW123316   4.888   3.942   2.504 -1.2626  0.8778 -0.5691
 7213SOL    HW223317   4.808   3.937   2.376 -2.0635 -2.0097  0.0098
 7214SOL     OW23318   1.576   2.800   0.741  0.6236 -0.2019  0.0499
 7214SOL    HW123319   1.562   2.890   0.711  0.2122 -0.0458  0.6893
 7214SOL    HW223320   1.644   2.766   0.684 -0.2908  0.0198 -1.2134
 7215SOL     OW23321   4.785   1.151   8.489  0.4372 -0.1809  0.1826
 7215SOL    HW123322   4.726   1.176   8.560 -0.0322  0.1634 -0.3247
 7215SOL    HW223323   4.836   1.078   8.525  0.1163 -0.0959  0.8257
 7216SOL     OW23324   3.727   8.059   1.944  0.0554 -0.2247  0.9357
 7216SOL    HW123325   3.730   8.102   1.858  1.5344 -1.3870  0.3785
 7216SOL    HW223326   3.635   8.062   1.970 -0.5453 -0.6113 -1.0801
 7217SOL     OW23327   2.597   2.076   0.312 -0.2889 -0.6365  0.1697
 7217SOL    HW123328   2.667   2.022   0.275  0.0204 -0.8987  1.1226
 7217SOL    HW223329   2.620   2.166   0.289  2.1073 -0.4062  3.2953
 7218SOL     OW23330   7.829   6.567   0.421  0.1019 -0.2782  0.7503
 7218SOL    HW123331   7.876   6.593   0.342  1.0279 -0.4943  1.2236
 7218SOL    HW223332   7.772   6.496   0.393  1.8772 -1.7172  0.6749
 7219SOL     OW23333   7.457   4.906   0.877  0.4367 -0.1577  0.1681
 7219SOL    HW123334   7.442   4.993   0.841  1.7825  0.0099 -0.0316
 7219SOL    HW223335   7.537   4.876   0.834 -0.1586 -1.6021  0.0379
 7220SOL     OW23336   2.300   1.298   3.500  0.0860 -0.1789  0.2316
 7220SOL    HW123337   2.302   1.300   3.595  1.0519 -0.7195  0.2253
 7220SOL    HW223338   2.218   1.254   3.478 -0.0676 -0.1825  0.8079
 7221SOL     OW23339   5.688   5.307   5.821  0.2859  0.1573  0.3217
 7221SOL    HW123340   5.735   5.390   5.818 -3.4330  2.3927  1.0994
 7221SOL    HW223341   5.665   5.289   5.730  0.3896  0.4234  0.2431
 7222SOL     OW23342   8.704   0.296   4.278  0.0302  0.8548  0.8089
 7222SOL    HW123343   8.761   0.302   4.202  0.1190  2.5886  0.9861
 7222SOL    HW223344   8.679   0.386   4.296  0.1513  0.4923  2.9354
 7223SOL     OW23345   8.555   4.273   7.349  0.4379  0.0865 -0.8942
 7223SOL    HW123346   8.578   4.284   7.441 -0.9076  0.4599 -0.6007
 7223SOL    HW223347   8.492   4.202   7.348  0.3997  0.1246 -1.5300
 7224SOL     OW23348   6.838   1.642   3.368 -0.6366 -0.4840  0.4814
 7224SOL    HW123349   6.815   1.730   3.339  0.1855 -0.5277 -0.3199
 7224SOL    HW223350   6.783   1.584   3.314 -0.2910 -0.5045  0.1491
 7225SOL     OW23351   8.979   9.258   7.695 -0.0651 -0.1998 -0.6492
 7225SOL    HW123352   8.921   9.330   7.720  1.2879  0.8885 -0.5755
 7225SOL    HW223353   8.998   9.213   7.778 -3.1678 -2.4203 -1.0563
 7226SOL     OW23354   5.359   3.548   8.471  0.2036  0.7064  0.6625
 7226SOL    HW123355   5.319   3.484   8.530  0.4286  0.3228  0.3932
 7226SOL    HW223356   5.427   3.500   8.425  0.1421  1.0511  0.2083
 7227SOL     OW23357   7.188   2.640   0.673 -0.5643 -0.1910 -0.1050
 7227SOL    HW123358   7.195   2.591   0.755 -0.0207 -2.1585 -1.2906
 7227SOL    HW223359   7.097   2.631   0.646 -0.7984  0.6446  0.3622
 7228SOL     OW23360   7.491   0.830   8.383 -0.1150 -0.0932  0.3068
 7228SOL    HW123361   7.550   0.901   8.358  0.8690 -0.7177  0.8163
 7228SOL    HW223362   7.526   0.753   8.338 -0.8503 -0.3716  0.2005
 7229SOL     OW23363   7.604   5.304   5.048 -0.1153  0.2542 -0.4550
 7229SOL    HW123364   7.580   5.309   5.140  0.7086  0.0882 -0.2235
 7229SOL    HW223365   7.522   5.289   5.002 -0.5993  0.8866  0.2000
 7230SOL     OW23366   1.739   5.551   8.762  0.3229  0.5546  0.5789
 7230SOL    HW123367   1.745   5.524   8.853 -0.6148  0.5489  0.6462
 7230SOL    HW223368   1.709   5.641   8.765 -0.0871  0.4331  0.2724
 7231SOL     OW23369   0.443   0.102   1.080  0.5541 -0.0088  0.1930
 7231SOL    HW123370   0.502   0.154   1.135  1.0565 -1.8109  1.4142
 7231SOL    HW223371   0.359   0.106   1.126  0.7303 -0.6973  0.5917
 7232SOL     OW23372   7.472   9.074   1.335 -0.0225  0.5501  0.4528
 7232SOL    HW123373   7.460   9.078   1.240  0.8665 -0.4140  0.2783
 7232SOL    HW223374   7.405   9.013   1.366 -0.3803  0.9451  0.4609
 7233SOL     OW23375   4.344   7.358   5.623  0.1702  0.4382  0.0183
 7233SOL    HW123376   4.328   7.354   5.529  0.5507  0.8598 -0.0659
 7233SOL    HW223377   4.409   7.289   5.640  0.8372  1.0038 -0.1889
 7234SOL     OW23378   6.609   4.336   5.278  0.3533  0.0669 -0.0034
 7234SOL    HW123379   6.691   4.286   5.281  1.3421  1.6814  1.0348
 7234SOL    HW223380   6.606   4.370   5.188  0.0884 -1.1844 -0.4697
 7235SOL     OW23381   7.801   1.635   1.865  0.1177  0.3211  0.2977
 7235SOL    HW123382   7.707   1.617   1.860  0.1891 -0.3603  1.4284
 7235SOL    HW223383   7.811   1.695   1.939  0.1698  3.2253 -1.9653
 7236SOL     OW23384   0.606   7.631   8.301  0.0580 -0.5578  0.5215
 7236SOL    HW123385   0.605   7.688   8.378  2.1477  1.1919 -0.6883
 7236SOL    HW223386   0.629   7.690   8.228 -0.9597 -2.3464 -1.2851
 7237SOL     OW23387   6.984   8.110   0.538  0.4020 -0.7222  0.1918
 7237SOL    HW123388   7.004   8.036   0.481  0.5980 -0.7170  0.2528
 7237SOL    HW223389   7.065   8.162   0.539  0.1401 -0.2944 -0.1772
 7238SOL     OW23390   1.537   0.020   7.298  0.4241 -0.1708  0.7113
 7238SOL    HW123391   1.469   0.068   7.344 -1.2261 -0.4501 -1.3700
 7238SOL    HW223392   1.562   0.076   7.225 -0.5206 -1.8358 -0.9200
 7239SOL     OW23393   4.329   4.744   9.178 -0.4222  1.0051  0.6463
 7239SOL    HW123394   4.279   4.758   9.098 -0.4742  1.5330  0.7698
 7239SOL    HW223395   4.330   4.829   9.221 -0.5817  0.6683  1.3189
 7240SOL     OW23396   5.460   7.076   5.851  0.4744  0.0285  0.0271
 7240SOL    HW123397   5.493   7.130   5.779  0.2793 -0.6801 -0.5951
 7240SOL    HW223398   5.419   7.001   5.809 -0.4061  0.0276  0.8470
 7241SOL     OW23399   3.545   0.754   1.562 -0.2328  0.7694  0.7096
 7241SOL    HW123400   3.539   0.844   1.532 -0.4845  1.0212  1.5033
 7241SOL    HW223401   3.639   0.738   1.569 -0.1378  0.4189 -1.0239
 7242SOL     OW23402   0.080   5.926   8.805 -0.2043  0.2437  0.2661
 7242SOL    HW123403   0.135   5.878   8.867  0.5706  0.0858 -0.5328
 7242SOL    HW223404   0.007   5.866   8.787 -0.2568  0.1543  0.7594
 7243SOL     OW23405   7.959   2.401   3.476  0.0637  0.3492  0.7110
 7243SOL    HW123406   8.003   2.374   3.557  2.1035  3.1218  0.5897
 7243SOL    HW223407   7.933   2.492   3.492 -2.2902 -0.0306 -0.6667
 7244SOL     OW23408   2.740   4.791   4.020 -0.6044 -0.2125 -0.4417
 7244SOL    HW123409   2.786   4.740   4.087 -2.2282 -0.5991  0.4231
 7244SOL    HW223410   2.797   4.789   3.944  1.2377  0.1483  0.9065
 7245SOL     OW23411   3.072   2.402   6.898  0.5717  0.3204 -0.3203
 7245SOL    HW123412   3.063   2.475   6.837  2.7885 -0.0669 -1.1628
 7245SOL    HW223413   3.107   2.441   6.978 -3.4328  1.0157  1.1744
 7246SOL     OW23414   1.243   0.349   0.131 -0.4284 -0.0154  0.7627
 7246SOL    HW123415   1.228   0.439   0.104  0.6587 -0.0705 -0.0483
 7246SOL    HW223416   1.242   0.351   0.226 -2.3545  0.5185  0.7606
 7247SOL     OW23417   3.152   3.948   7.162 -0.1854  0.0563  0.2729
 7247SOL    HW123418   3.061   3.979   7.153  0.2606  2.2283  2.7095
 7247SOL    HW223419   3.205   4.028   7.158  1.6475 -1.1758 -0.8830
 7248SOL     OW23420   9.062   1.878   2.921  0.2256 -0.2318 -0.1555
 7248SOL    HW123421   9.114   1.883   3.001  2.3423 -0.9853 -1.4441
 7248SOL    HW223422   9.072   1.964   2.880 -0.8666  0.1581  0.3857
 7249SOL     OW23423   1.764   6.979   6.387 -0.0849 -0.5123  0.0702
 7249SOL    HW123424   1.686   6.993   6.441 -0.6305  1.6779 -1.2345
 7249SOL    HW223425   1.733   6.927   6.313  0.0667 -1.0955  0.4111
 7250SOL     OW23426   2.497   3.457   7.490  0.0103 -0.1441 -0.6481
 7250SOL    HW123427   2.521   3.365   7.498 -2.5967 -0.6816  1.5245
 7250SOL    HW223428   2.459   3.480   7.574  0.4230  2.8945 -1.2152
 7251SOL     OW23429   7.085   0.761   5.843 -0.3535  0.1072  0.0177
 7251SOL    HW123430   6.992   0.760   5.820 -1.2689 -0.4243  3.5175
 7251SOL    HW223431   7.107   0.854   5.849 -0.2026  0.2601 -2.3499
 7252SOL     OW23432   7.103   5.196   3.512  0.5468 -0.1518 -0.2118
 7252SOL    HW123433   7.170   5.256   3.477  1.1700 -0.5409  0.2957
 7252SOL    HW223434   7.153   5.120   3.542 -0.1223 -0.4146  0.2382
 7253SOL     OW23435   8.705   0.954   2.930  0.5709 -0.0668 -0.0916
 7253SOL    HW123436   8.626   0.900   2.933  0.2540  0.3184 -1.4444
 7253SOL    HW223437   8.763   0.914   2.996  0.9252 -2.9930 -2.0739
 7254SOL     OW23438   6.007   2.994   4.581 -0.4536 -0.3126 -0.5626
 7254SOL    HW123439   5.932   3.054   4.579  0.2421  0.5863  0.2626
 7254SOL    HW223440   6.049   3.006   4.496  0.9086  1.9610  0.3869
 7255SOL     OW23441   8.185   0.828   3.549  0.1826  0.3030  0.2214
 7255SOL    HW123442   8.109   0.771   3.543 -0.1115  0.6776  0.3542
 7255SOL    HW223443   8.157   0.911   3.511  0.5784  0.3881  0.1092
 7256SOL     OW23444   2.869   6.477   8.629  0.1733  0.2971  0.4570
 7256SOL    HW123445   2.950   6.458   8.677  0.5349 -0.3345 -0.3814
 7256SOL    HW223446   2.826   6.392   8.619 -1.0507  0.7580  1.6849
 7257SOL     OW23447   8.248   2.546   6.048 -0.0375  0.5744 -0.0072
 7257SOL    HW123448   8.297   2.621   6.082 -0.3466  0.5777  0.4303
 7257SOL    HW223449   8.241   2.563   5.954 -0.5861  1.3752  0.1703
 7258SOL     OW23450   2.383   7.219   2.480  0.3205 -0.2758  0.1429
 7258SOL    HW123451   2.421   7.298   2.442  0.4972 -0.3440  0.1723
 7258SOL    HW223452   2.444   7.195   2.551 -0.5811  0.4486  1.1698
 7259SOL     OW23453   6.853   6.968   2.828  0.1354 -0.4062  0.3126
 7259SOL    HW123454   6.844   6.943   2.736  1.7726  0.7625 -0.2078
 7259SOL    HW223455   6.922   7.035   2.827 -0.4567  0.2591  2.2796
 7260SOL     OW23456   5.582   8.144   4.834  0.8078 -0.8900  0.2462
 7260SOL    HW123457   5.503   8.122   4.784  0.1912  1.2489  0.2076
 7260SOL    HW223458   5.619   8.219   4.787  0.3705  1.0047  2.7898
 7261SOL     OW23459   4.759   2.690   3.291  0.6449  0.2015  0.2231
 7261SOL    HW123460   4.854   2.690   3.289  0.6361 -0.5763 -1.0387
 7261SOL    HW223461   4.733   2.646   3.210 -0.8137  2.1333 -0.4124
 7262SOL     OW23462   5.747   7.800   0.453  0.2097  0.6103  0.1827
 7262SOL    HW123463   5.823   7.852   0.477  0.1203  0.2016  1.3924
 7262SOL    HW223464   5.711   7.770   0.537  0.1228 -1.1866 -0.4682
 7263SOL     OW23465   1.978   7.611   1.713 -0.8203 -0.7293 -0.5226
 7263SOL    HW123466   2.023   7.671   1.772 -2.4716  0.5588 -0.5444
 7263SOL    HW223467   2.034   7.608   1.635  0.1837 -0.6419  0.1815
 7264SOL     OW23468   5.528   6.936   3.008  0.5790 -0.0170  0.1854
 7264SOL    HW123469   5.557   6.998   3.074  0.4627  0.8721 -0.5903
 7264SOL    HW223470   5.481   6.868   3.057  1.4360  0.0621  1.1196
 7265SOL     OW23471   2.351   4.586   5.058 -0.1547 -0.5263  0.5856
 7265SOL    HW123472   2.336   4.493   5.076  0.2260 -0.4328  1.3898
 7265SOL    HW223473   2.411   4.586   4.983  0.8466 -0.9415  1.3759
 7266SOL     OW23474   5.217   6.658   3.777  0.1948  0.3216  0.3350
 7266SOL    HW123475   5.193   6.576   3.820 -2.6912  0.5868 -0.6805
 7266SOL    HW223476   5.190   6.727   3.838  1.1831  0.5783  0.4991
 7267SOL     OW23477   0.303   5.753   0.455 -0.2226  0.2711  0.0696
 7267SOL    HW123478   0.350   5.672   0.438  0.8153  0.6031  1.3009
 7267SOL    HW223479   0.221   5.744   0.406 -0.4427 -1.8133  0.7676
 7268SOL     OW23480   3.028   4.862   7.168 -0.4013  0.1784  0.1534
 7268SOL    HW123481   3.013   4.785   7.222  0.4430  2.0032  3.1051
 7268SOL    HW223482   2.978   4.932   7.211 -0.7726  1.4405 -2.1880
 7269SOL     OW23483   4.771   4.075   0.049 -0.0854 -0.3516 -0.1447
 7269SOL    HW123484   4.835   4.038  -0.011 -0.1126 -0.2568 -0.2312
 7269SOL    HW223485   4.698   4.102  -0.006  0.6481  1.4143 -0.3013
 7270SOL     OW23486   4.343   5.943   6.276 -0.1703 -0.5452  0.0485
 7270SOL    HW123487   4.302   5.860   6.251  1.3344 -1.7229  1.3727
 7270SOL    HW223488   4.322   5.954   6.368  0.2291  0.1931  0.0619
 7271SOL     OW23489   1.410   8.413   1.522  0.4303  0.2384 -0.4501
 7271SOL    HW123490   1.343   8.476   1.548  0.0750 -0.3283  0.0196
 7271SOL    HW223491   1.491   8.463   1.523  0.4632  0.1817  1.9545
 7272SOL     OW23492   7.053   5.358   8.252  0.8127 -0.2501 -0.3522
 7272SOL    HW123493   7.008   5.431   8.294 -0.4048 -0.8019 -0.6777
 7272SOL    HW223494   7.138   5.394   8.227  1.1401  0.3912  1.5817
 7273SOL     OW23495   2.534   4.742   3.040 -0.4106 -0.3539  0.5928
 7273SOL    HW123496   2.603   4.693   3.085 -1.8195 -1.1466  1.9339
 7273SOL    HW223497   2.478   4.774   3.111 -1.7059 -0.1350 -0.5271
 7274SOL     OW23498   7.938   0.376   0.857 -0.4094 -0.6056  0.1733
 7274SOL    HW123499   8.003   0.365   0.926  0.7299  1.2653 -0.5608
 7274SOL    HW223500   7.854   0.378   0.904  0.3067  0.1022  1.4730
 7275SOL     OW23501   6.369   3.656   0.133 -0.0192 -0.8904 -0.4570
 7275SOL    HW123502   6.320   3.576   0.116  1.2934 -1.4061 -1.9209
 7275SOL    HW223503   6.460   3.633   0.114  0.7453  0.1995  1.6967
 7276SOL     OW23504   5.111   2.429   8.381  0.2557 -0.1245  0.1571
 7276SOL    HW123505   5.082   2.453   8.293 -0.1344  0.4436  0.4407
 7276SOL    HW223506   5.147   2.510   8.418 -0.6699 -0.0709  0.9541
 7277SOL     OW23507   4.190   4.195   5.174 -0.2505  0.2065  0.1422
 7277SOL    HW123508   4.265   4.197   5.233  1.2985  0.7883 -1.8103
 7277SOL    HW223509   4.136   4.123   5.206  2.0801 -1.4583  0.3950
 7278SOL     OW23510   8.085   1.301   6.706  0.5360  0.5326 -0.2535
 7278SOL    HW123511   8.167   1.312   6.658 -0.4341 -1.8990 -2.6194
 7278SOL    HW223512   8.109   1.251   6.784  1.3781  0.1607 -0.7455
 7279SOL     OW23513   7.416   1.676   5.337 -0.0814 -0.2731  0.1975
 7279SOL    HW123514   7.466   1.730   5.398 -0.2968 -0.1917  0.3006
 7279SOL    HW223515   7.483   1.632   5.284  0.1886 -1.7954  1.7325
 7280SOL     OW23516   5.506   1.823   4.016 -0.8228 -0.2275 -0.5595
 7280SOL    HW123517   5.450   1.821   4.093 -1.9745  1.2154 -1.3231
 7280SOL    HW223518   5.477   1.749   3.963 -1.7180  0.2441 -0.7402
 7281SOL     OW23519   3.089   0.637   3.518 -0.4391 -0.0758  0.8127
 7281SOL    HW123520   3.036   0.558   3.525  0.1239 -0.5766 -0.3077
 7281SOL    HW223521   3.152   0.617   3.448 -1.5460  2.0567 -0.8834
 7282SOL     OW23522   3.456   0.397   6.108 -0.0952 -0.3401 -0.3528
 7282SOL    HW123523   3.536   0.414   6.058 -0.2978 -2.5434 -1.4966
 7282SOL    HW223524   3.393   0.461   6.074  0.9967  1.0711  0.1921
 7283SOL     OW23525   3.288   0.314   3.743  0.1525  0.5059  0.1638
 7283SOL    HW123526   3.208   0.301   3.793  1.0134 -0.6626  1.3079
 7283SOL    HW223527   3.290   0.407   3.722 -0.4784  0.9272  1.9199
 7284SOL     OW23528   5.609   6.087   6.802  0.1534 -0.3594  0.2022
 7284SOL    HW123529   5.624   6.092   6.896 -0.2764  0.9663  0.2110
 7284SOL    HW223530   5.604   5.993   6.784  1.2908 -0.6498  1.3161
 7285SOL     OW23531   5.206   1.603   1.400  0.0818 -0.1517  0.7676
 7285SOL    HW123532   5.201   1.573   1.309 -0.7679 -0.6083  0.9681
 7285SOL    HW223533   5.226   1.697   1.392  1.2502 -0.4468  0.1307
 7286SOL     OW23534   8.771   4.863   9.279 -0.5556  0.3235  0.4485
 7286SOL    HW123535   8.737   4.911   9.203 -1.6950  1.8548  1.8733
 7286SOL    HW223536   8.715   4.787   9.287 -0.4951  0.2093 -0.1869
 7287SOL     OW23537   3.239   0.366   0.398 -0.1972 -0.5051  0.5488
 7287SOL    HW123538   3.252   0.427   0.470 -0.2894  0.2412 -0.0665
 7287SOL    HW223539   3.285   0.405   0.324 -0.4547 -1.0574  0.0935
 7288SOL     OW23540   5.195   1.148   6.612 -0.0902 -1.3475  0.1887
 7288SOL    HW123541   5.135   1.108   6.675  1.3391 -1.9702  1.1601
 7288SOL    HW223542   5.276   1.098   6.619  1.5415  1.2764  1.0088
 7289SOL     OW23543   7.932   2.215   8.143 -0.7192 -0.3638  0.8297
 7289SOL    HW123544   7.874   2.146   8.111  1.9662 -0.5205 -4.1331
 7289SOL    HW223545   7.908   2.292   8.093  1.2590  0.3560  0.9440
 7290SOL     OW23546   1.658   8.016   1.462  0.7769 -0.5804  0.2410
 7290SOL    HW123547   1.662   7.985   1.371  2.3981  0.4736 -0.0539
 7290SOL    HW223548   1.737   7.981   1.503  1.3275  1.0384  0.5805
 7291SOL     OW23549   2.886   5.488   4.921  0.3994 -0.1079 -0.8510
 7291SOL    HW123550   2.913   5.533   4.841  0.3412  0.5104 -0.5330
 7291SOL    HW223551   2.859   5.559   4.979  0.6014 -0.5434 -0.2226
 7292SOL     OW23552   1.951   4.402   7.536  0.4261 -0.4503  0.2933
 7292SOL    HW123553   2.017   4.336   7.516 -1.1548 -1.6681 -1.0261
 7292SOL    HW223554   1.923   4.434   7.450 -1.9997 -1.2811  0.7394
 7293SOL     OW23555   3.128   9.080   3.097 -0.5398  0.1745 -0.2314
 7293SOL    HW123556   3.086   9.123   3.022 -1.0416  0.1390  0.0234
 7293SOL    HW223557   3.065   9.091   3.168  0.0916  0.5253  0.2795
 7294SOL     OW23558   8.418   7.057   5.463  0.0664  0.6861 -0.6079
 7294SOL    HW123559   8.329   7.089   5.450 -0.1593  1.0132  1.4381
 7294SOL    HW223560   8.473   7.136   5.453 -0.2753  1.3282  2.0621
 7295SOL     OW23561   1.613   8.541   1.278  0.1430  0.3141 -0.3001
 7295SOL    HW123562   1.592   8.449   1.291  0.7806 -0.1764 -2.6801
 7295SOL    HW223563   1.528   8.586   1.285 -0.2685 -0.5195  0.1148
 7296SOL     OW23564   3.418   2.261   3.504  0.6508 -0.7109 -0.2639
 7296SOL    HW123565   3.457   2.190   3.453  2.0698 -0.8285  0.9334
 7296SOL    HW223566   3.485   2.284   3.568 -0.0950  1.1879 -0.1276
 7297SOL     OW23567   1.071   4.779   7.924  0.1579 -0.0379 -0.4554
 7297SOL    HW123568   0.985   4.758   7.959  0.3404 -1.4697 -0.8319
 7297SOL    HW223569   1.054   4.809   7.835  0.1296 -1.5133 -0.9685
 7298SOL     OW23570   0.600   1.083   3.364 -0.1661 -0.1629 -0.1381
 7298SOL    HW123571   0.521   1.089   3.419  0.4596  0.8936  0.6534
 7298SOL    HW223572   0.646   1.165   3.380  0.4732 -0.2421 -1.5690
 7299SOL     OW23573   8.781   9.071   1.236  0.7588 -0.0104 -0.0671
 7299SOL    HW123574   8.758   9.052   1.327  0.4121 -0.7810 -0.3155
 7299SOL    HW223575   8.872   9.042   1.227  1.7636  2.7602  0.8333
 7300SOL     OW23576   3.338   3.586   6.250 -0.8465  0.8753  0.1577
 7300SOL    HW123577   3.429   3.588   6.218 -0.4941 -2.1566  0.8264
 7300SOL    HW223578   3.289   3.546   6.178 -1.2419  0.3851  0.6988
 7301SOL     OW23579   5.514   5.739   4.428  0.2490  0.0942 -0.1664
 7301SOL    HW123580   5.434   5.784   4.402  0.2408 -0.5492 -1.3062
 7301SOL    HW223581   5.487   5.648   4.439  0.7683 -0.0761 -0.2992
 7302SOL     OW23582   1.317   7.485   5.730  0.8500 -0.2266 -0.4165
 7302SOL    HW123583   1.278   7.439   5.805  0.8427 -1.5275 -1.1917
 7302SOL    HW223584   1.390   7.429   5.704  0.6066  0.0025 -1.6252
 7303SOL     OW23585   1.148   3.386   8.863  0.2547 -1.0922  0.3078
 7303SOL    HW123586   1.072   3.347   8.906 -0.9057  1.0995  0.3255
 7303SOL    HW223587   1.223   3.338   8.898 -1.2080 -4.9295 -1.4704
 7304SOL     OW23588   5.646   0.664   1.755  0.3146 -0.8255  0.2002
 7304SOL    HW123589   5.559   0.664   1.795  0.0362 -0.8985 -0.4154
 7304SOL    HW223590   5.670   0.572   1.749 -0.2863 -0.9043 -1.2072
 7305SOL     OW23591   5.521   5.093   7.270 -0.2019 -0.0470  0.3107
 7305SOL    HW123592   5.505   5.014   7.321 -2.6988  1.3326  1.7865
 7305SOL    HW223593   5.526   5.063   7.180 -1.9651 -1.8221  0.7679
 7306SOL     OW23594   5.886   9.211   9.016  0.4313  0.3321 -0.1113
 7306SOL    HW123595   5.910   9.170   9.099 -0.3483  0.0274 -0.0307
 7306SOL    HW223596   5.856   9.299   9.041 -1.2019 -0.2750  0.0941
 7307SOL     OW23597   4.287   3.815   5.198 -0.4714 -0.3161 -0.0651
 7307SOL    HW123598   4.363   3.862   5.164  0.1785 -0.6914  0.8274
 7307SOL    HW223599   4.214   3.875   5.187  0.2480  0.6879  0.5612
 7308SOL     OW23600   1.453   2.192   2.406 -0.4059  0.1478  0.1379
 7308SOL    HW123601   1.476   2.125   2.471  1.8439 -0.8078 -1.6045
 7308SOL    HW223602   1.506   2.268   2.431 -1.7498  0.7821  1.1427
 7309SOL     OW23603   4.972   1.485   0.355  0.5475  0.3273  0.0625
 7309SOL    HW123604   4.920   1.561   0.328 -3.1556 -2.2930 -0.5354
 7309SOL    HW223605   5.000   1.445   0.272  1.3891  0.3206  0.3515
 7310SOL     OW23606   7.363   1.529   7.374 -0.4481  0.0418  0.7467
 7310SOL    HW123607   7.366   1.434   7.367  0.4353  0.1384 -0.2327
 7310SOL    HW223608   7.276   1.547   7.411 -1.1197 -1.0670 -0.2506
 7311SOL     OW23609   0.925   2.276   1.265  0.3378  0.0561  0.3860
 7311SOL    HW123610   0.845   2.284   1.213  0.5199 -0.0402  0.0904
 7311SOL    HW223611   0.938   2.181   1.273 -0.0356  0.0647  1.1371
 7312SOL     OW23612   2.513   6.333   0.143 -0.2988 -0.1726  0.4753
 7312SOL    HW123613   2.451   6.325   0.215  0.1932  0.0101  0.9178
 7312SOL    HW223614   2.549   6.245   0.132 -1.9755 -0.7141 -0.9924
 7313SOL     OW23615   5.276   0.855   0.542 -0.2137 -0.3074  0.1939
 7313SOL    HW123616   5.356   0.803   0.543 -0.2117 -0.3252 -0.8479
 7313SOL    HW223617   5.282   0.910   0.620  1.5333  0.7727 -0.6697
 7314SOL     OW23618   1.447   1.855   1.750  1.0801 -0.3186  0.4705
 7314SOL    HW123619   1.387   1.816   1.687  0.8818 -1.0546  1.1010
 7314SOL    HW223620   1.512   1.901   1.697 -0.4940  1.1600 -0.1920
 7315SOL     OW23621   5.704   7.093   5.321 -0.2478 -0.5492 -0.0383
 7315SOL    HW123622   5.721   7.120   5.411  0.1935 -0.5418 -0.1182
 7315SOL    HW223623   5.705   6.998   5.324  4.0673 -0.6359 -0.7574
 7316SOL     OW23624   0.722   5.246   2.444 -0.0011  0.0543 -0.0738
 7316SOL    HW123625   0.681   5.332   2.457 -0.3949 -0.0049 -0.9160
 7316SOL    HW223626   0.753   5.221   2.531 -1.9166  0.0238  0.6221
 7317SOL     OW23627   2.400   5.966   8.741 -0.1184  0.1707 -0.2681
 7317SOL    HW123628   2.348   5.993   8.665 -0.0855  0.8714 -0.0521
 7317SOL    HW223629   2.478   5.926   8.704 -0.8237 -0.9020 -0.5978
 7318SOL     OW23630   2.194   7.652   7.273  0.6171 -0.4659  0.3259
 7318SOL    HW123631   2.256   7.583   7.297  0.1364 -0.6368  1.1207
 7318SOL    HW223632   2.239   7.733   7.295  1.2005 -0.5281 -0.6506
 7319SOL     OW23633   5.999   9.261   5.012 -0.3339 -0.0562  0.0235
 7319SOL    HW123634   6.082   9.262   5.059 -0.2250 -0.8778 -0.1449
 7319SOL    HW223635   6.005   9.335   4.951  0.9974 -1.1329 -1.2139
 7320SOL     OW23636   1.162   2.155   0.350  0.3382  0.0518 -0.3708
 7320SOL    HW123637   1.101   2.111   0.291  1.2859 -0.0390 -1.3029
 7320SOL    HW223638   1.239   2.173   0.296  0.5928  1.4280  0.4163
 7321SOL     OW23639   8.529   1.490   4.454 -0.3541  0.2736 -0.0332
 7321SOL    HW123640   8.575   1.463   4.533 -0.0569  0.8581 -0.0019
 7321SOL    HW223641   8.436   1.486   4.477 -0.2687  0.4110  0.3385
 7322SOL     OW23642   3.580   4.541   6.072  0.2527  0.4869 -0.0563
 7322SOL    HW123643   3.663   4.515   6.032  0.7620  0.0919  1.2338
 7322SOL    HW223644   3.567   4.480   6.144 -0.0969  1.8536  1.0741
 7323SOL     OW23645   1.799   6.799   9.219 -0.1767 -0.0371 -0.5979
 7323SOL    HW123646   1.728   6.842   9.171 -0.2077 -0.0736 -0.5848
 7323SOL    HW223647   1.822   6.862   9.288  0.7518  0.5864 -1.4540
 7324SOL     OW23648   5.077   4.789   4.520  0.0057  0.2716 -0.2665
 7324SOL    HW123649   5.122   4.822   4.442  0.4485  1.2505  0.4033
 7324SOL    HW223650   5.045   4.702   4.494 -1.6457  1.4261 -2.2234
 7325SOL     OW23651   2.303   2.171   0.931 -0.0913  0.1102  0.3991
 7325SOL    HW123652   2.249   2.132   0.862  0.4620  0.4878 -0.2498
 7325SOL    HW223653   2.379   2.113   0.938  0.6367  0.9490 -0.4330
 7326SOL     OW23654   1.696   7.025   0.939 -0.4271 -0.5154 -0.4776
 7326SOL    HW123655   1.791   7.022   0.943 -0.3986  1.0993  0.1557
 7326SOL    HW223656   1.676   7.043   0.847 -0.1994 -3.0712 -1.0656
 7327SOL     OW23657   1.461   2.571   0.844  0.0887 -0.4611  0.1575
 7327SOL    HW123658   1.514   2.647   0.821 -1.4064  1.0195  1.4410
 7327SOL    HW223659   1.473   2.561   0.939  0.5566 -2.0472 -0.0635
 7328SOL     OW23660   9.098   8.511   4.387  0.4569  0.1299 -0.2654
 7328SOL    HW123661   9.076   8.545   4.301  0.6656  0.8855 -0.0298
 7328SOL    HW223662   9.129   8.588   4.436 -0.2669 -0.1631  0.6792
 7329SOL     OW23663   1.152   4.984   4.043 -0.2171 -1.4458 -0.2822
 7329SOL    HW123664   1.065   4.999   4.081  0.2075 -1.0764  0.5552
 7329SOL    HW223665   1.148   5.027   3.958 -0.4358 -0.2882  0.2972
 7330SOL     OW23666   1.662   7.496   0.407  0.0110  0.2011 -0.2192
 7330SOL    HW123667   1.716   7.422   0.433  0.0245  0.5722  0.8343
 7330SOL    HW223668   1.654   7.488   0.312  0.1201 -1.0710 -0.1280
 7331SOL     OW23669   1.306   9.106   8.964 -0.4855 -0.0327  0.3352
 7331SOL    HW123670   1.312   9.011   8.950  0.3907 -0.0791  0.9878
 7331SOL    HW223671   1.216   9.120   8.995  0.0977 -0.9534  2.4947
 7332SOL     OW23672   0.471   6.687   4.109  0.3974  0.2870  0.1135
 7332SOL    HW123673   0.493   6.639   4.030 -0.8402 -1.1110  0.5912
 7332SOL    HW223674   0.506   6.634   4.181  0.8272  1.1448  0.5495
 7333SOL     OW23675   7.463   4.986   4.794 -0.1595 -0.1035 -0.3139
 7333SOL    HW123676   7.448   4.912   4.853  0.1841  1.1123  1.3413
 7333SOL    HW223677   7.523   4.952   4.727  1.7587 -0.7346  1.6710
 7334SOL     OW23678   0.194   4.204   4.244  0.1090 -0.3892  0.9369
 7334SOL    HW123679   0.140   4.225   4.167  2.2999  0.5850 -0.3658
 7334SOL    HW223680   0.135   4.156   4.302 -1.7224 -0.7051 -1.1368
 7335SOL     OW23681   2.943   6.001   7.966  0.2838 -0.3562 -0.5680
 7335SOL    HW123682   3.010   6.049   8.014 -2.0168  0.6245  1.7875
 7335SOL    HW223683   2.918   6.060   7.895  1.2630 -0.3431 -0.9048
 7336SOL     OW23684   5.875   5.489   7.436  0.4358 -0.1248  0.1150
 7336SOL    HW123685   5.933   5.541   7.381  0.1184 -0.7160 -0.8125
 7336SOL    HW223686   5.787   5.514   7.408  0.2564  0.1853  0.9518
 7337SOL     OW23687   7.397   1.430   9.246 -0.1658 -0.0714  0.0599
 7337SOL    HW123688   7.381   1.400   9.157  0.6871 -0.4875  0.0505
 7337SOL    HW223689   7.332   1.499   9.259 -1.2486 -0.9949 -0.3752
 7338SOL     OW23690   5.429   4.330   3.656 -0.3100  0.0299  0.5779
 7338SOL    HW123691   5.426   4.235   3.658 -0.1726 -0.0902 -2.3979
 7338SOL    HW223692   5.519   4.352   3.678 -0.3730 -0.4913  1.3849
 7339SOL     OW23693   1.910   2.998   5.938 -0.1362  0.5187 -0.1791
 7339SOL    HW123694   1.927   3.086   5.904  3.3228 -0.3147 -0.8433
 7339SOL    HW223695   1.929   2.940   5.865 -2.3252 -0.8189  0.2796
 7340SOL     OW23696   8.959   8.329   1.905 -0.2288 -0.0175  0.0596
 7340SOL    HW123697   9.017   8.263   1.867 -0.9537 -0.3883 -0.4165
 7340SOL    HW223698   8.923   8.376   1.830 -0.9162 -0.1040  0.3274
 7341SOL     OW23699   1.947   0.099   4.994 -0.3716  0.0277 -0.2725
 7341SOL    HW123700   2.043   0.101   5.002 -0.3827 -0.1547 -0.0726
 7341SOL    HW223701   1.926   0.174   4.938 -0.0674 -0.2584 -0.7738
 7342SOL     OW23702   4.726   8.841   4.662 -0.0436 -0.0799 -0.0165
 7342SOL    HW123703   4.789   8.883   4.720 -2.1088  2.3830  0.5636
 7342SOL    HW223704   4.685   8.773   4.716  1.0220 -0.6315  0.0925
 7343SOL     OW23705   4.362   1.582   3.182 -0.1386 -0.8960 -0.0270
 7343SOL    HW123706   4.420   1.558   3.110 -0.4217  0.6035 -0.7751
 7343SOL    HW223707   4.356   1.677   3.177  0.1831 -0.7150  2.2371
 7344SOL     OW23708   4.799   5.711   0.026 -0.1086 -0.1091  0.5592
 7344SOL    HW123709   4.740   5.769   0.073  0.6990  0.6855  0.6162
 7344SOL    HW223710   4.753   5.627   0.022 -0.6862  0.1452  1.7134
 7345SOL     OW23711   4.142   6.501   4.869 -0.4217  0.0091  0.4801
 7345SOL    HW123712   4.189   6.582   4.848 -1.2315  0.0090 -1.4504
 7345SOL    HW223713   4.070   6.530   4.926 -0.8048  0.6828 -0.3294
 7346SOL     OW23714   7.724   3.588   1.225  0.3128  0.1552  0.3434
 7346SOL    HW123715   7.800   3.645   1.215  0.7739 -0.5447 -0.2787
 7346SOL    HW223716   7.697   3.569   1.135  1.5095 -2.3468  0.4681
 7347SOL     OW23717   3.076   6.565   7.161  0.5417  0.2434 -0.3603
 7347SOL    HW123718   3.087   6.660   7.155  1.1383  0.1067 -1.4088
 7347SOL    HW223719   3.124   6.530   7.087 -0.3920 -0.8320 -0.4694
 7348SOL     OW23720   1.335   3.737   3.663 -0.0919  0.4672  0.4580
 7348SOL    HW123721   1.295   3.785   3.736 -0.7518  1.5826 -0.6198
 7348SOL    HW223722   1.414   3.786   3.643  0.2690 -0.0367  0.6479
 7349SOL     OW23723   3.009   6.041   1.228 -0.0048  0.6588 -0.4300
 7349SOL    HW123724   3.091   6.013   1.189  0.3635 -1.4999  1.7559
 7349SOL    HW223725   2.956   5.962   1.234 -1.3475  1.5746  0.3122
 7350SOL     OW23726   9.094   3.511   6.419  0.2387 -0.5140 -0.3259
 7350SOL    HW123727   9.029   3.563   6.465 -0.7859 -2.1585  0.1472
 7350SOL    HW223728   9.048   3.431   6.394  1.5762 -0.9142 -1.6259
 7351SOL     OW23729   3.059   8.261   3.070  0.5269  0.0152  0.1653
 7351SOL    HW123730   3.098   8.290   2.988 -0.6628 -0.1804 -0.4860
 7351SOL    HW223731   2.966   8.283   3.061 -0.0502 -2.1618  0.4817
 7352SOL     OW23732   2.225   0.476   2.151  0.3619  0.4412 -0.3274
 7352SOL    HW123733   2.205   0.566   2.179  0.0140  0.2284  0.1244
 7352SOL    HW223734   2.269   0.486   2.067 -0.8049  0.9701 -0.8845
 7353SOL     OW23735   2.368   1.123   6.845  0.3925 -0.1423  0.2470
 7353SOL    HW123736   2.451   1.077   6.841  1.0718  1.1885 -1.8745
 7353SOL    HW223737   2.390   1.214   6.822 -1.0648  1.0613  3.2499
 7354SOL     OW23738   2.514   2.957   7.187 -0.2101  0.4290  0.6287
 7354SOL    HW123739   2.468   2.959   7.104  1.0737  0.6764 -0.1005
 7354SOL    HW223740   2.551   2.868   7.192  1.2130  0.9679  0.0706
 7355SOL     OW23741   7.906   1.336   4.068  0.7592 -0.7548 -0.4563
 7355SOL    HW123742   7.913   1.241   4.077 -0.2308 -1.0555 -2.5092
 7355SOL    HW223743   7.913   1.351   3.974  1.3439  1.2530 -0.1012
 7356SOL     OW23744   8.822   1.683   6.101  0.1477  0.5482  0.2525
 7356SOL    HW123745   8.813   1.656   6.009  2.4344 -0.2437  0.2207
 7356SOL    HW223746   8.816   1.778   6.099 -0.3561  0.5011 -0.6561
 7357SOL     OW23747   7.836   3.995   3.232  0.5952  0.2574 -0.2519
 7357SOL    HW123748   7.822   4.022   3.322 -2.2480  1.3814 -1.0026
 7357SOL    HW223749   7.862   3.903   3.238 -2.3254 -0.4698  1.5539
 7358SOL     OW23750   3.951   4.587   4.526  0.2941  0.1284 -0.4361
 7358SOL    HW123751   3.967   4.520   4.459  1.1365 -1.7052  1.5107
 7358SOL    HW223752   4.028   4.643   4.522  0.7598 -0.4987 -0.4357
 7359SOL     OW23753   2.236   8.568   3.212  0.1635  0.1300  0.3398
 7359SOL    HW123754   2.269   8.627   3.144  0.6417  0.9760  1.2841
 7359SOL    HW223755   2.257   8.481   3.181  2.6264  0.6234  0.5557
 7360SOL     OW23756   4.119   8.297   4.982  1.1451 -0.2597 -0.7608
 7360SOL    HW123757   4.067   8.371   5.014  0.5338 -0.0484 -2.2079
 7360SOL    HW223758   4.101   8.226   5.045  0.2116  0.2365 -0.4583
 7361SOL     OW23759   3.366   4.536   6.374  0.1404 -0.5010  0.2277
 7361SOL    HW123760   3.314   4.503   6.301  0.3478 -0.5097  0.0839
 7361SOL    HW223761   3.441   4.477   6.379  0.0516 -0.5875  0.5397
 7362SOL     OW23762   0.546   2.302   6.481 -0.1974 -0.0354  0.2079
 7362SOL    HW123763   0.575   2.210   6.481 -0.5883 -0.1564  0.3477
 7362SOL    HW223764   0.458   2.300   6.519 -0.3664  0.3495 -0.1661
 7363SOL     OW23765   5.509   5.091   6.329 -0.5149 -0.0482 -0.5179
 7363SOL    HW123766   5.594   5.048   6.327  1.2904  3.3633 -1.5867
 7363SOL    HW223767   5.445   5.020   6.332  2.3510 -2.6818 -0.4151
 7364SOL     OW23768   5.472   6.856   7.713  0.2450 -0.5380 -0.3560
 7364SOL    HW123769   5.450   6.775   7.668 -0.3396 -1.5728  1.7276
 7364SOL    HW223770   5.427   6.850   7.798  0.6193  1.7142  0.0462
 7365SOL     OW23771   5.051   4.848   2.700 -0.2753  0.2522  0.0759
 7365SOL    HW123772   4.978   4.827   2.758 -0.6737 -2.3395 -1.3240
 7365SOL    HW223773   5.016   4.917   2.642 -0.8038  0.7689  0.9972
 7366SOL     OW23774   4.366   8.847   9.267 -0.1648 -0.2070  0.1528
 7366SOL    HW123775   4.459   8.871   9.265  0.2076 -1.4566  1.3408
 7366SOL    HW223776   4.349   8.830   9.360 -1.6226  0.1208 -0.0458
 7367SOL     OW23777   1.154   0.239   8.425  0.4860  0.0668  0.0717
 7367SOL    HW123778   1.061   0.260   8.412  0.7451  0.8620 -0.5251
 7367SOL    HW223779   1.155   0.179   8.499 -0.3050  1.9004  1.6146
 7368SOL     OW23780   3.603   1.491   5.036  0.0056  0.2860 -0.4830
 7368SOL    HW123781   3.537   1.429   5.069  0.5450 -0.8894 -1.5490
 7368SOL    HW223782   3.553   1.568   5.011 -0.5612  0.7420  1.8728
 7369SOL     OW23783   3.959   8.515   3.751 -0.5278  0.3883 -0.0352
 7369SOL    HW123784   4.016   8.542   3.823 -0.7493  0.5415  0.0799
 7369SOL    HW223785   3.982   8.573   3.678 -0.3396  0.2652 -0.0747
 7370SOL     OW23786   3.518   1.539   5.425  0.2678 -0.2000 -0.2486
 7370SOL    HW123787   3.529   1.632   5.408 -0.0515  0.2868  2.0539
 7370SOL    HW223788   3.442   1.514   5.372 -0.8547  1.2996  0.6173
 7371SOL     OW23789   0.431   0.891   2.376  0.0819 -0.3908  0.2186
 7371SOL    HW123790   0.386   0.957   2.325 -0.2733 -0.2767  0.6709
 7371SOL    HW223791   0.408   0.808   2.334  0.9131 -0.1910 -0.6314
 7372SOL     OW23792   1.925   8.793   7.974  0.0432 -0.1684  0.4315
 7372SOL    HW123793   1.932   8.784   8.069 -1.2284 -1.9020  0.3920
 7372SOL    HW223794   2.015   8.802   7.943  0.4168  1.2006  1.8480
 7373SOL     OW23795   5.976   0.290   4.006  0.2167 -0.0570  0.0720
 7373SOL    HW123796   6.061   0.326   4.030 -0.2411 -0.1746  1.9658
 7373SOL    HW223797   5.940   0.257   4.089 -2.3900  1.5498 -0.3609
 7374SOL     OW23798   8.385   5.824   4.098  0.2861 -0.1802 -0.0294
 7374SOL    HW123799   8.430   5.899   4.136  0.7474 -1.0440  1.1857
 7374SOL    HW223800   8.406   5.826   4.005 -0.0458  1.4220 -0.0731
 7375SOL     OW23801   7.249   6.128   6.724  0.2665 -0.3519  0.2333
 7375SOL    HW123802   7.327   6.153   6.774 -0.3294 -0.9956  1.4714
 7375SOL    HW223803   7.226   6.208   6.676  1.3891 -0.0067  0.2358
 7376SOL     OW23804   5.570   7.496   5.937 -0.9575 -0.4726 -0.2407
 7376SOL    HW123805   5.640   7.434   5.919  0.1087  1.0235 -1.3780
 7376SOL    HW223806   5.505   7.480   5.868 -0.8357 -0.5557 -0.3364
 7377SOL     OW23807   9.268   4.059   2.612 -0.0340  0.3982 -0.2998
 7377SOL    HW123808   9.208   4.134   2.609 -0.2919  0.2217  0.3389
 7377SOL    HW223809   9.355   4.098   2.600 -0.1993  0.7570 -0.3564
 7378SOL     OW23810   3.448   6.012   4.047 -0.4736  0.2026  0.3123
 7378SOL    HW123811   3.537   6.026   4.078 -1.0503  1.3528  1.5217
 7378SOL    HW223812   3.405   5.965   4.119 -1.4869  1.7950  0.7742
 7379SOL     OW23813   8.463   2.721   4.699 -0.3803 -0.3491  0.0296
 7379SOL    HW123814   8.545   2.716   4.747  0.6071 -0.8732 -1.6895
 7379SOL    HW223815   8.454   2.635   4.658 -1.4308 -0.0569 -0.3842
 7380SOL     OW23816   9.242   2.196   3.157 -0.0545 -0.6848 -0.3121
 7380SOL    HW123817   9.335   2.199   3.135 -0.0703 -0.2605 -0.3159
 7380SOL    HW223818   9.217   2.287   3.167  0.1537 -0.8899  2.3428
 7381SOL     OW23819   2.106   8.494   5.953 -0.3578 -0.1131  0.0817
 7381SOL    HW123820   2.151   8.579   5.954 -1.0294  0.2425  0.0433
 7381SOL    HW223821   2.129   8.456   5.868 -1.4898  0.8068 -0.6465
 7382SOL     OW23822   7.446   4.193   5.158 -0.7823  0.3150 -0.3519
 7382SOL    HW123823   7.396   4.243   5.223  0.1450  0.2549  0.4153
 7382SOL    HW223824   7.496   4.259   5.111 -0.2051  0.2058  0.0967
 7383SOL     OW23825   5.395   6.219   8.368  0.1615 -0.0518  0.2673
 7383SOL    HW123826   5.441   6.301   8.385  1.1417 -0.3183 -0.9853
 7383SOL    HW223827   5.464   6.153   8.368 -0.5033 -0.7452  0.3835
 7384SOL     OW23828   7.755   7.459   3.775  0.6718 -0.2671 -0.0207
 7384SOL    HW123829   7.779   7.417   3.692 -0.3861 -0.8377 -0.0495
 7384SOL    HW223830   7.708   7.391   3.823  0.9410  0.1871  0.8915
 7385SOL     OW23831   2.841   5.554   5.739  0.1996  0.2009 -0.3663
 7385SOL    HW123832   2.807   5.603   5.814 -2.5613 -0.2130 -1.2637
 7385SOL    HW223833   2.910   5.608   5.703 -0.2049  1.6166  0.9544
 7386SOL     OW23834   1.947   2.513   8.533 -0.6361  0.7585 -0.0349
 7386SOL    HW123835   2.027   2.556   8.504  0.8964 -0.4556  2.2133
 7386SOL    HW223836   1.948   2.428   8.488 -1.4483  1.3290 -1.1510
 7387SOL     OW23837   5.111   3.383   8.911  0.6039 -0.2099  0.2537
 7387SOL    HW123838   5.028   3.418   8.879  0.4832 -0.6207  0.1076
 7387SOL    HW223839   5.161   3.460   8.938  0.7321  0.1336 -0.9640
 7388SOL     OW23840   3.924   5.325   5.719  0.5175  0.0723  0.2294
 7388SOL    HW123841   4.018   5.334   5.703  0.8394 -1.2805  1.2140
 7388SOL    HW223842   3.905   5.234   5.694 -0.8298  0.7705 -1.3484
 7389SOL     OW23843   7.941   6.198   0.471  0.3058 -0.6340  0.3021
 7389SOL    HW123844   8.011   6.167   0.528  0.7377  1.3566  0.8916
 7389SOL    HW223845   7.882   6.123   0.462  1.5732 -1.7653  1.2476
 7390SOL     OW23846   4.084   8.115   4.335  0.2696 -0.0183 -0.3445
 7390SOL    HW123847   4.093   8.129   4.240  1.6029 -0.4334 -0.2912
 7390SOL    HW223848   4.138   8.038   4.353  0.0999  0.1183  0.7760
 7391SOL     OW23849   7.709   6.907   4.274  0.5808 -0.3961 -0.3316
 7391SOL    HW123850   7.783   6.957   4.311  0.3976  0.3224 -0.9253
 7391SOL    HW223851   7.706   6.828   4.327  1.6734 -0.3531 -0.1785
 7392SOL     OW23852   6.554   3.522   6.011  0.2406 -0.2491  0.4572
 7392SOL    HW123853   6.617   3.551   5.944 -0.7807 -0.1699 -0.4824
 7392SOL    HW223854   6.472   3.513   5.964 -0.3747 -0.7187  1.6081
 7393SOL     OW23855   6.354   6.170   5.752 -0.8574 -0.4512  0.4439
 7393SOL    HW123856   6.283   6.163   5.817 -1.9378  3.0350 -0.2287
 7393SOL    HW223857   6.429   6.203   5.802 -0.5226 -1.5147  0.6449
 7394SOL     OW23858   1.397   8.275   4.859  0.3727 -0.9171 -0.3663
 7394SOL    HW123859   1.325   8.262   4.921  1.3893 -0.7877  0.8681
 7394SOL    HW223860   1.475   8.282   4.914  1.5515 -2.5697 -1.7534
 7395SOL     OW23861   5.184   3.740   8.358 -0.0803 -0.0477 -0.1197
 7395SOL    HW123862   5.102   3.710   8.398 -0.8706  1.0929 -0.8455
 7395SOL    HW223863   5.252   3.703   8.413 -1.0982 -0.4776  0.8794
 7396SOL     OW23864   2.457   8.288   1.606  0.1193  0.1193  0.5134
 7396SOL    HW123865   2.409   8.370   1.615  0.8543  0.6104 -0.0182
 7396SOL    HW223866   2.430   8.253   1.520  2.1475  1.3488 -0.6526
 7397SOL     OW23867   2.844   7.125   7.087  0.0045  0.4512 -0.2901
 7397SOL    HW123868   2.904   7.072   7.034  1.8850  1.9924  0.2573
 7397SOL    HW223869   2.855   7.214   7.053  0.1512  1.2094  1.7141
 7398SOL     OW23870   7.849   5.599   1.896 -0.4541  0.0446  0.4712
 7398SOL    HW123871   7.925   5.610   1.839 -0.0168  0.2994  1.1113
 7398SOL    HW223872   7.795   5.534   1.850  0.1955 -0.2250  0.0773
 7399SOL     OW23873   3.393   9.265   1.856 -0.2934 -0.3147 -0.1900
 7399SOL    HW123874   3.315   9.212   1.869  0.3623 -0.9109  1.5374
 7399SOL    HW223875   3.465   9.202   1.857  0.3572  0.4175  0.1968
 7400SOL     OW23876   5.424   1.946   8.983  0.5148  0.4342  0.2122
 7400SOL    HW123877   5.413   1.869   8.927 -1.4548  0.5092  0.4705
 7400SOL    HW223878   5.405   2.020   8.925  1.8049  0.7093  0.1243
 7401SOL     OW23879   0.014   4.415   7.543  0.7972  0.5192 -0.2994
 7401SOL    HW123880  -0.078   4.430   7.565  1.0756  0.9147  0.6231
 7401SOL    HW223881   0.032   4.326   7.573  1.0714  0.9209  0.7665
 7402SOL     OW23882   4.029   8.045   1.940 -0.1852 -0.1026  0.5995
 7402SOL    HW123883   4.050   7.968   1.888 -0.5289 -0.0167  0.3316
 7402SOL    HW223884   3.936   8.037   1.959  0.1972 -0.7871  2.2920
 7403SOL     OW23885   5.274   1.365   2.168 -0.4583 -0.0705  0.1340
 7403SOL    HW123886   5.342   1.373   2.101 -0.5429  0.4322  0.1120
 7403SOL    HW223887   5.319   1.386   2.250 -1.0909  2.4093 -0.1263
 7404SOL     OW23888   2.354   8.713   0.189 -0.0969 -0.4391 -0.4726
 7404SOL    HW123889   2.274   8.720   0.137  0.2220  0.2506 -0.8852
 7404SOL    HW223890   2.325   8.677   0.273 -0.7421 -0.7866 -0.8378
 7405SOL     OW23891   4.378   2.805   0.425 -0.1919  0.4177 -0.0091
 7405SOL    HW123892   4.357   2.877   0.484 -0.3304  0.6487 -0.3391
 7405SOL    HW223893   4.297   2.788   0.378  0.1301  0.7412 -0.6767
 7406SOL     OW23894   8.235   3.278   7.054  0.0816 -0.3662  0.1235
 7406SOL    HW123895   8.214   3.371   7.060 -0.2808 -0.5853  2.7418
 7406SOL    HW223896   8.151   3.233   7.063  0.2996 -0.9878 -0.7625
 7407SOL     OW23897   4.915   4.979   4.297 -0.2171  0.2909  0.0061
 7407SOL    HW123898   4.948   4.901   4.342 -0.2631  1.2951  1.7933
 7407SOL    HW223899   4.935   5.052   4.355 -3.2665  1.2496 -0.0290
 7408SOL     OW23900   1.445   2.134   7.774  0.1950 -0.3779 -0.3696
 7408SOL    HW123901   1.484   2.218   7.748 -0.1501  0.0420  0.4271
 7408SOL    HW223902   1.481   2.118   7.861 -1.9204  0.3671  0.6770
 7409SOL     OW23903   9.090   4.943   4.092  0.6616  0.1777 -0.3363
 7409SOL    HW123904   9.002   4.968   4.122  0.9706  0.6472  0.1982
 7409SOL    HW223905   9.126   5.024   4.055  2.3599  1.0832  3.0729
 7410SOL     OW23906   7.994   0.301   5.623 -0.5218 -0.2020  0.2665
 7410SOL    HW123907   8.069   0.301   5.682  0.1414  0.5470 -0.5539
 7410SOL    HW223908   8.025   0.256   5.544 -0.8155  0.4114 -0.2086
 7411SOL     OW23909   0.664   1.732   4.104  0.1411  0.6382  0.8897
 7411SOL    HW123910   0.643   1.774   4.187 -3.1928  2.4404 -0.7591
 7411SOL    HW223911   0.710   1.800   4.054  0.1628  0.3073  0.4600
 7412SOL     OW23912   2.702   1.598   2.452 -0.5718 -0.0354 -0.4839
 7412SOL    HW123913   2.729   1.511   2.421  1.4196  0.5003 -0.2996
 7412SOL    HW223914   2.713   1.655   2.376 -1.2754  0.1875 -0.4230
 7413SOL     OW23915   2.445   3.335   5.776  0.2438  0.3545  0.7191
 7413SOL    HW123916   2.428   3.262   5.716  1.1622  2.3145 -2.0480
 7413SOL    HW223917   2.531   3.318   5.813  0.2308 -0.2178  0.4798
 7414SOL     OW23918   3.598   6.928   7.322  0.0976 -0.1917  0.4093
 7414SOL    HW123919   3.670   6.988   7.342  0.3880 -0.8205  1.2185
 7414SOL    HW223920   3.610   6.908   7.229 -0.0098  1.0160  0.1192
 7415SOL     OW23921   4.312   6.842   7.831 -0.5918  0.5359 -0.4538
 7415SOL    HW123922   4.336   6.889   7.751  0.7188 -0.4266 -0.6494
 7415SOL    HW223923   4.217   6.835   7.827 -0.6250  1.4000 -1.4202
 7416SOL     OW23924   6.557   3.666   5.253  0.0288 -0.0681  0.2709
 7416SOL    HW123925   6.604   3.701   5.177  0.6744 -1.2434  0.1298
 7416SOL    HW223926   6.624   3.657   5.320 -0.9737  3.3816  1.8603
 7417SOL     OW23927   2.909   6.340   6.805 -0.2394 -0.5237  0.4508
 7417SOL    HW123928   2.875   6.430   6.803 -1.3453 -0.9172  0.7132
 7417SOL    HW223929   2.965   6.333   6.728  0.0684  0.4725  0.5799
 7418SOL     OW23930   9.053   0.918   7.573 -0.4112  0.0063  0.2288
 7418SOL    HW123931   9.056   1.010   7.601  0.3350  0.7086 -2.0718
 7418SOL    HW223932   9.145   0.892   7.566 -0.5833 -0.3252 -0.9499
 7419SOL     OW23933   3.919   2.904   0.812  0.2021  0.7961 -0.1630
 7419SOL    HW123934   3.838   2.855   0.794  0.1363  0.0935  1.9396
 7419SOL    HW223935   3.988   2.853   0.769 -0.3942  1.2015 -1.6537
 7420SOL     OW23936   7.268   0.861   2.257  0.1862  0.1402  0.0474
 7420SOL    HW123937   7.306   0.918   2.191  0.3264  2.1213  1.7721
 7420SOL    HW223938   7.179   0.893   2.270 -0.3746 -1.2263 -0.2796
 7421SOL     OW23939   1.083   5.069   0.803  0.0043 -0.2866  0.1181
 7421SOL    HW123940   1.061   5.146   0.856  0.5520  0.8864 -1.3084
 7421SOL    HW223941   1.076   5.100   0.713  0.8642 -1.7462 -0.4614
 7422SOL     OW23942   0.738   4.909   2.801  0.8040 -0.1920 -0.2639
 7422SOL    HW123943   0.649   4.919   2.767  0.8833 -0.8997 -0.6945
 7422SOL    HW223944   0.730   4.842   2.870  1.1298 -0.8318 -0.8389
 7423SOL     OW23945   4.489   5.420   4.932 -0.1788  0.4721 -0.1421
 7423SOL    HW123946   4.448   5.333   4.931 -0.7863  0.7663 -1.3391
 7423SOL    HW223947   4.447   5.467   4.860 -0.4552  2.0419  1.0244
 7424SOL     OW23948   6.670   0.345   7.491 -0.1489 -0.7757 -0.1316
 7424SOL    HW123949   6.763   0.349   7.468 -0.2924 -1.5062 -0.8481
 7424SOL    HW223950   6.653   0.428   7.536  0.7250 -0.4151 -0.4502
 7425SOL     OW23951   5.524   9.174   2.064 -1.1176  0.2413  0.5803
 7425SOL    HW123952   5.468   9.108   2.106  0.0122 -0.2249  1.3881
 7425SOL    HW223953   5.533   9.243   2.129 -0.2032 -0.0040  0.7200
 7426SOL     OW23954   4.480   1.047   8.738 -0.5431  0.1773 -0.4529
 7426SOL    HW123955   4.480   0.951   8.736 -1.8697  0.1644 -0.3678
 7426SOL    HW223956   4.390   1.071   8.720 -0.5159  1.3749  0.9002
 7427SOL     OW23957   6.730   0.086   2.222  0.4100 -0.9400  0.4088
 7427SOL    HW123958   6.638   0.087   2.193  0.7272  0.1790 -0.6058
 7427SOL    HW223959   6.727   0.116   2.312 -0.3557 -2.2032  0.8175
 7428SOL     OW23960   7.097   5.350   1.592 -0.4512  0.0973  0.2850
 7428SOL    HW123961   7.135   5.414   1.651  1.3473  0.0043 -0.7439
 7428SOL    HW223962   7.136   5.267   1.618 -0.7375 -0.1696 -0.1226
 7429SOL     OW23963   1.972   2.220   3.366 -0.1009 -0.6742  0.4172
 7429SOL    HW123964   2.050   2.230   3.312  0.9762 -1.7553  1.7401
 7429SOL    HW223965   1.921   2.152   3.322 -0.7603  0.6576 -0.9373
 7430SOL     OW23966   0.002   9.130   4.363 -0.2182 -0.2483 -0.4036
 7430SOL    HW123967  -0.030   9.067   4.427 -1.2754  0.3421 -0.3401
 7430SOL    HW223968  -0.009   9.215   4.406 -2.1801  0.2643 -1.8640
 7431SOL     OW23969   5.659   1.536   3.125 -0.2654  0.7795  0.1120
 7431SOL    HW123970   5.703   1.486   3.194 -1.0690  0.9305  0.7488
 7431SOL    HW223971   5.596   1.475   3.087 -1.0393  1.2162  0.6891
 7432SOL     OW23972   5.086   8.898   5.028  0.5601  0.6104  0.5046
 7432SOL    HW123973   5.161   8.954   5.008  1.2272 -0.6191 -0.4895
 7432SOL    HW223974   5.039   8.945   5.097  1.0866  2.4140 -0.3209
 7433SOL     OW23975   3.461   0.052   1.416  0.2139 -0.2391 -0.0679
 7433SOL    HW123976   3.454   0.141   1.448  2.2654  0.3578 -1.1703
 7433SOL    HW223977   3.471   0.061   1.321 -1.5095 -1.7422 -0.4167
 7434SOL     OW23978   2.879   6.268   0.214  0.2586 -0.5108  0.0376
 7434SOL    HW123979   2.905   6.201   0.277  0.3992  1.2653  1.9066
 7434SOL    HW223980   2.945   6.336   0.222  0.3106 -0.2714 -2.0963
 7435SOL     OW23981   2.520   2.675   7.608 -0.0679 -0.2894 -0.0774
 7435SOL    HW123982   2.447   2.676   7.671  1.3893 -0.6970  1.6675
 7435SOL    HW223983   2.478   2.691   7.523 -2.0590  0.5793  1.0108
 7436SOL     OW23984   0.796   1.174   7.447 -0.3640  0.1424  0.6575
 7436SOL    HW123985   0.753   1.188   7.362  0.5818 -2.5867 -0.3220
 7436SOL    HW223986   0.738   1.114   7.494 -0.9506  1.7475  2.0427
 7437SOL     OW23987   3.353   0.196   4.313  0.3716  0.1095  0.1721
 7437SOL    HW123988   3.446   0.206   4.290  0.0349  0.1374 -1.2357
 7437SOL    HW223989   3.306   0.230   4.237 -0.8102  1.9440  1.6780
 7438SOL     OW23990   6.391   0.791   8.661 -0.2337  0.1566 -0.1009
 7438SOL    HW123991   6.334   0.799   8.738  0.2160  0.4297  0.1996
 7438SOL    HW223992   6.333   0.756   8.594 -1.2163  2.1087 -0.3138
 7439SOL     OW23993   7.189   5.256   5.248  0.1067 -0.0733 -0.0748
 7439SOL    HW123994   7.159   5.297   5.167  1.5875  0.2170 -0.5003
 7439SOL    HW223995   7.256   5.194   5.219 -1.4351 -2.1026  0.6642
 7440SOL     OW23996   3.690   8.130   4.221  0.3409 -0.0161  0.4939
 7440SOL    HW123997   3.625   8.198   4.240  0.7635  0.8770 -1.1770
 7440SOL    HW223998   3.644   8.048   4.241 -1.0706  0.6425  0.0604
 7441SOL     OW23999   0.867   0.537   4.905  0.0383  0.3624  0.4355
 7441SOL    HW124000   0.944   0.509   4.855  0.9014 -0.8994  2.3902
 7441SOL    HW224001   0.793   0.514   4.849  0.8707 -3.0549  0.6063
 7442SOL     OW24002   6.622   7.375   9.087 -0.2299  0.0425 -0.5174
 7442SOL    HW124003   6.631   7.373   9.183 -2.6693  1.8354 -0.1973
 7442SOL    HW224004   6.706   7.408   9.056  0.1814  0.5966  1.1145
 7443SOL     OW24005   1.208   0.187   9.197 -0.1563 -0.1688 -0.5202
 7443SOL    HW124006   1.244   0.229   9.275 -0.9869 -1.0638  0.3618
 7443SOL    HW224007   1.265   0.216   9.125  1.5251 -0.5461  0.6430
 7444SOL     OW24008   8.439   1.551   9.249 -0.2033  0.1682  0.1940
 7444SOL    HW124009   8.348   1.579   9.238 -0.5687 -1.2722 -0.6879
 7444SOL    HW224010   8.464   1.584   9.335 -1.9091 -0.2901  0.9041
 7445SOL     OW24011   6.836   1.239   5.426  0.3730  0.3613 -0.1357
 7445SOL    HW124012   6.818   1.333   5.422  0.1464  0.2759 -1.2652
 7445SOL    HW224013   6.749   1.198   5.428  0.4691  0.1995  1.1292
 7446SOL     OW24014   1.346   2.358   5.177  0.2043 -0.1397  0.0144
 7446SOL    HW124015   1.389   2.346   5.261 -2.5774 -0.7942  1.4139
 7446SOL    HW224016   1.316   2.449   5.178  0.0045 -0.2026 -0.2004
 7447SOL     OW24017   8.345   4.608   4.934  0.4469  0.4200  0.5262
 7447SOL    HW124018   8.346   4.530   4.877 -1.2442  0.8910 -0.1795
 7447SOL    HW224019   8.436   4.618   4.961  0.4787 -2.6514  1.8081
 7448SOL     OW24020   7.146   2.547   5.603 -0.1137 -0.1777 -0.1095
 7448SOL    HW124021   7.086   2.512   5.668  0.6666 -1.4491 -0.0718
 7448SOL    HW224022   7.137   2.642   5.611 -1.7999 -0.3523  0.1825
 7449SOL     OW24023   8.260   3.554   4.325 -0.5595 -0.8423  0.6842
 7449SOL    HW124024   8.307   3.535   4.243 -0.8851  1.3625 -0.0522
 7449SOL    HW224025   8.329   3.579   4.386 -0.6379  1.2594 -0.0585
 7450SOL     OW24026   1.595   7.145   7.549  0.5122 -0.2167  0.0383
 7450SOL    HW124027   1.599   7.223   7.494  0.4707  0.0965  0.4790
 7450SOL    HW224028   1.608   7.072   7.488  0.6938  0.1396 -0.3530
 7451SOL     OW24029   4.628   3.834   5.161 -0.1109  0.3347  0.2961
 7451SOL    HW124030   4.653   3.795   5.078 -0.0905  0.6508  0.1507
 7451SOL    HW224031   4.679   3.787   5.227  0.3241  0.4945  0.0704
 7452SOL     OW24032   7.246   6.292   3.218  0.5110 -0.1058  0.2417
 7452SOL    HW124033   7.298   6.226   3.265  1.4278 -0.0355 -0.6806
 7452SOL    HW224034   7.300   6.370   3.218  0.4674 -0.0762 -0.8607
 7453SOL     OW24035   1.372   8.106   5.711  0.1999  0.0544  1.1390
 7453SOL    HW124036   1.420   8.174   5.664 -1.0418 -0.0447 -0.3415
 7453SOL    HW224037   1.287   8.102   5.667  0.2675 -2.4834  1.1382
 7454SOL     OW24038   8.175   5.876   8.655 -0.3136  0.1427 -0.5332
 7454SOL    HW124039   8.224   5.931   8.715 -2.8105  0.9731  0.7890
 7454SOL    HW224040   8.188   5.917   8.569  2.2062 -0.3261 -0.4393
 7455SOL     OW24041   5.267   3.509   7.673  0.0770  0.1404  0.1337
 7455SOL    HW124042   5.294   3.421   7.700  0.0682  0.1635  0.2192
 7455SOL    HW224043   5.339   3.541   7.620  0.5410  0.4818  0.9647
 7456SOL     OW24044   6.038   4.525   3.273  0.0550 -0.3775  0.7170
 7456SOL    HW124045   6.013   4.556   3.186 -2.0309 -0.9622  1.0765
 7456SOL    HW224046   5.976   4.454   3.292  0.7017 -0.4888  2.5357
 7457SOL     OW24047   4.229   7.233   7.654  0.2086  0.5102 -0.3215
 7457SOL    HW124048   4.322   7.227   7.634  0.4779  0.4080  0.9233
 7457SOL    HW224049   4.186   7.224   7.569  1.1446 -4.3852 -0.4395
 7458SOL     OW24050   6.515   8.755   3.856  0.1879  0.2272  0.5644
 7458SOL    HW124051   6.575   8.689   3.821 -2.0297 -2.0238  0.8857
 7458SOL    HW224052   6.572   8.815   3.905  2.1901 -1.8487  0.8807
 7459SOL     OW24053   2.359   6.384   5.204  0.7237 -0.5697 -0.3436
 7459SOL    HW124054   2.390   6.456   5.258 -2.4997  0.6785 -0.0473
 7459SOL    HW224055   2.420   6.381   5.130  2.4690  0.6728  1.0092
 7460SOL     OW24056   0.335   1.891   5.029  0.2820 -0.0791 -0.0888
 7460SOL    HW124057   0.260   1.890   5.089 -0.7716 -0.0369 -1.3764
 7460SOL    HW224058   0.296   1.898   4.942  1.8401  1.1506 -0.7170
 7461SOL     OW24059   8.268   1.011   5.246  0.2183  0.1470  0.1038
 7461SOL    HW124060   8.305   1.075   5.185  0.7600 -0.6414 -0.4007
 7461SOL    HW224061   8.280   0.927   5.203 -0.2470 -0.3273  0.8859
 7462SOL     OW24062   2.987   2.850   2.349 -0.9054  0.2696 -0.3938
 7462SOL    HW124063   3.015   2.898   2.427  2.3972 -1.8397 -0.1548
 7462SOL    HW224064   3.051   2.874   2.282 -1.4687 -0.8464 -1.3500
 7463SOL     OW24065   8.294   5.359   8.697 -0.1437 -0.0840 -0.0320
 7463SOL    HW124066   8.342   5.414   8.758  0.1048 -0.3899  0.0441
 7463SOL    HW224067   8.283   5.275   8.742 -1.4592  0.2381  0.2829
 7464SOL     OW24068   9.270   7.759   7.095  0.1685  0.1736 -0.6623
 7464SOL    HW124069   9.184   7.719   7.090 -0.2251  1.0350 -0.9987
 7464SOL    HW224070   9.305   7.753   7.006  0.5824 -0.4483 -0.4583
 7465SOL     OW24071   8.803   5.478   7.284  1.3280 -0.6035 -0.4678
 7465SOL    HW124072   8.869   5.440   7.225  0.8915 -0.3366 -1.1303
 7465SOL    HW224073   8.828   5.570   7.292  1.8342 -0.8091  0.3808
 7466SOL     OW24074   7.013   3.294   5.187 -0.3641  0.3642  0.2401
 7466SOL    HW124075   6.925   3.270   5.157  0.5000 -1.8673 -0.6281
 7466SOL    HW224076   7.038   3.223   5.246  1.0588  0.7063  0.0637
 7467SOL     OW24077   6.941   3.740   7.764 -0.3712  0.1795  0.2620
 7467SOL    HW124078   6.995   3.663   7.782 -1.2174 -0.0681  1.7800
 7467SOL    HW224079   6.897   3.718   7.682 -1.0697 -1.2218  0.9868
 7468SOL     OW24080   5.803   7.170   8.609 -0.2239 -0.2817 -0.3271
 7468SOL    HW124081   5.724   7.127   8.642 -0.1428 -0.7197 -0.6913
 7468SOL    HW224082   5.819   7.241   8.671  0.2066 -1.3841  0.8749
 7469SOL     OW24083   7.083   8.724   5.078  0.9138 -0.5585  0.3112
 7469SOL    HW124084   7.040   8.786   5.019  1.3554 -0.1978  0.3638
 7469SOL    HW224085   7.159   8.693   5.029  0.4675 -1.3725  0.1277
 7470SOL     OW24086   7.269   4.340   2.744  0.0400  0.5810 -0.3709
 7470SOL    HW124087   7.308   4.355   2.830 -0.5708 -0.3067  0.0679
 7470SOL    HW224088   7.288   4.248   2.725 -0.1458  0.6763 -1.0235
 7471SOL     OW24089   4.387   6.501   0.646 -0.4282 -0.4673  0.1742
 7471SOL    HW124090   4.394   6.458   0.561 -0.7500  0.9806 -0.6036
 7471SOL    HW224091   4.373   6.593   0.625 -1.3661 -0.2192  1.7975
 7472SOL     OW24092   4.570   4.264   4.692  0.0827 -0.1517 -1.0177
 7472SOL    HW124093   4.529   4.178   4.683  0.0299 -0.2163 -0.2209
 7472SOL    HW224094   4.520   4.306   4.762  1.7947 -0.4926  0.4541
 7473SOL     OW24095   0.707   6.734   9.091 -0.3482 -0.5475 -0.8799
 7473SOL    HW124096   0.662   6.696   9.015 -0.0535 -0.8368 -0.9080
 7473SOL    HW224097   0.675   6.682   9.165 -2.8171  1.5205 -0.4114
 7474SOL     OW24098   6.997   4.242   3.816  0.3390 -0.4130 -0.0067
 7474SOL    HW124099   6.964   4.182   3.749  0.3085  1.3702 -1.6340
 7474SOL    HW224100   6.990   4.329   3.776 -0.0744  0.7454  2.4840
 7475SOL     OW24101   0.743   7.986   8.776 -0.4549  0.2438  0.3944
 7475SOL    HW124102   0.780   8.022   8.696  2.2557 -2.7177  0.2022
 7475SOL    HW224103   0.649   7.985   8.761 -0.2090  2.2737 -1.6136
 7476SOL     OW24104   1.024   2.105   4.727 -0.1159 -0.2081  0.6938
 7476SOL    HW124105   0.978   2.176   4.772  0.6824  0.1221  1.0103
 7476SOL    HW224106   0.988   2.025   4.765  0.3728  0.0656  1.7590
 7477SOL     OW24107   0.930   2.509   8.589 -0.3599  0.4718 -0.7425
 7477SOL    HW124108   0.845   2.525   8.547 -1.1122 -2.5289 -0.4502
 7477SOL    HW224109   0.912   2.441   8.653  2.5430 -1.0660 -1.5163
 7478SOL     OW24110   2.485   1.447   7.747 -0.3116  0.4472 -0.5016
 7478SOL    HW124111   2.482   1.537   7.780  0.6896  0.4396 -0.3907
 7478SOL    HW224112   2.406   1.407   7.784  0.1816  0.7688  0.9513
 7479SOL     OW24113   8.092   3.988   8.160  0.0704  0.2656 -0.2700
 7479SOL    HW124114   8.078   3.996   8.065 -0.5464 -2.1155 -0.4283
 7479SOL    HW224115   8.048   3.906   8.183  0.2009  0.8447  2.0918
 7480SOL     OW24116   8.449   8.212   6.394  0.0953 -0.1386 -0.5356
 7480SOL    HW124117   8.382   8.264   6.349  0.3504  0.6063 -0.0626
 7480SOL    HW224118   8.457   8.252   6.481 -0.3065 -1.5020  0.1343
 7481SOL     OW24119   8.637   5.757   3.640  0.6424  0.1457  0.3354
 7481SOL    HW124120   8.714   5.764   3.696  1.5093  1.9922 -1.0549
 7481SOL    HW224121   8.636   5.666   3.611  2.2084  0.0678  0.4926
 7482SOL     OW24122   7.389   5.233   1.278 -0.7674  0.1904 -0.0774
 7482SOL    HW124123   7.436   5.187   1.208 -0.9773 -1.0668  0.5873
 7482SOL    HW224124   7.305   5.189   1.284 -1.5179  1.5581 -0.3351
 7483SOL     OW24125   7.390   1.353   7.718  0.6542 -0.1827 -0.3224
 7483SOL    HW124126   7.444   1.301   7.778 -0.7424 -1.1854  0.0803
 7483SOL    HW224127   7.305   1.311   7.719 -0.2571  1.5912 -0.6941
 7484SOL     OW24128   4.425   5.653   1.824 -0.3507  0.2736  0.3040
 7484SOL    HW124129   4.437   5.627   1.916  0.8820 -1.3878 -0.2909
 7484SOL    HW224130   4.511   5.686   1.797 -0.4937  0.0398 -0.4571
 7485SOL     OW24131   3.632   9.081   6.388  0.6001 -0.1488 -0.8761
 7485SOL    HW124132   3.556   9.130   6.358  0.8477 -1.6996 -4.2605
 7485SOL    HW224133   3.700   9.148   6.401 -0.2895  0.8433 -1.2573
 7486SOL     OW24134   3.069   8.416   6.968  0.2512  0.1451  0.7140
 7486SOL    HW124135   3.079   8.415   6.873 -0.1448 -0.0652  0.6714
 7486SOL    HW224136   3.146   8.463   7.000  1.1275 -1.0173  0.3801
 7487SOL     OW24137   3.636   9.132   5.331  0.1475  0.5762  0.7870
 7487SOL    HW124138   3.597   9.218   5.320  0.4599  0.4911 -1.2916
 7487SOL    HW224139   3.583   9.075   5.275  0.6530 -0.3431  1.2383
 7488SOL     OW24140   0.198   2.429   2.661 -0.4249  0.0357 -0.6961
 7488SOL    HW124141   0.125   2.487   2.681 -0.5709 -0.1500 -0.6914
 7488SOL    HW224142   0.181   2.350   2.712  2.1312  1.7070  3.0013
 7489SOL     OW24143   1.192   7.005   2.675 -0.0417 -0.2703  0.4213
 7489SOL    HW124144   1.245   6.942   2.724 -1.4069 -0.8265  1.2264
 7489SOL    HW224145   1.139   7.049   2.742 -0.6651  0.2010 -0.3678
 7490SOL     OW24146   7.377   0.486   0.120 -0.0103 -0.4298 -0.2015
 7490SOL    HW124147   7.467   0.505   0.093  1.2728 -1.8687  2.8531
 7490SOL    HW224148   7.336   0.452   0.041  2.2757 -0.2573 -1.5216
 7491SOL     OW24149   8.722   5.511   2.099  0.1739  0.3783 -0.4745
 7491SOL    HW124150   8.638   5.554   2.114  0.2679  0.5057 -0.3099
 7491SOL    HW224151   8.711   5.424   2.137  0.8387  1.1370  1.5151
 7492SOL     OW24152   0.021   2.218   7.664 -0.0951  0.2769 -0.2799
 7492SOL    HW124153   0.024   2.212   7.759 -2.3414  1.3312 -0.1172
 7492SOL    HW224154   0.097   2.270   7.640  0.2208  0.3929  0.9686
 7493SOL     OW24155   7.830   2.850   0.873  0.1161  0.2090  0.2841
 7493SOL    HW124156   7.861   2.922   0.928 -0.3457 -0.1661  1.0439
 7493SOL    HW224157   7.735   2.850   0.886 -0.2394  1.3354 -2.0040
 7494SOL     OW24158   0.026   8.290   8.291  0.1031 -0.5132 -0.7951
 7494SOL    HW124159   0.015   8.365   8.233  1.9979  0.3668 -0.0591
 7494SOL    HW224160  -0.055   8.286   8.341  1.4435  3.4204  1.8794
 7495SOL     OW24161   7.999   8.671   2.015 -0.2012 -0.3763 -0.5046
 7495SOL    HW124162   7.975   8.685   1.924  2.8221 -1.2109 -1.4663
 7495SOL    HW224163   7.939   8.602   2.045 -1.0762 -0.2372 -1.9069
 7496SOL     OW24164   5.869   7.225   3.194 -0.6596  0.0851  0.5407
 7496SOL    HW124165   5.899   7.134   3.193  0.1589  0.3281  1.6954
 7496SOL    HW224166   5.834   7.240   3.106 -0.1582 -1.1345  0.1252
 7497SOL     OW24167   7.818   4.074   2.144 -0.1707  0.6117  0.2394
 7497SOL    HW124168   7.856   4.059   2.231 -2.1484  1.1575  1.2103
 7497SOL    HW224169   7.726   4.053   2.154 -0.4130  0.6656 -1.7513
 7498SOL     OW24170   6.473   8.059   9.035 -0.3606 -0.1972 -0.2709
 7498SOL    HW124171   6.459   8.149   9.064 -0.6420 -0.4617  0.4372
 7498SOL    HW224172   6.441   8.006   9.108 -1.1658 -0.8815 -1.1165
 7499SOL     OW24173   1.036   7.954   0.568  0.3478 -0.0277 -0.0860
 7499SOL    HW124174   1.003   7.906   0.491  0.5390 -0.9368  0.3968
 7499SOL    HW224175   1.003   7.904   0.643  0.4093  0.6962  0.4276
 7500SOL     OW24176   3.921   0.026   7.970 -0.1087  0.4925 -0.1463
 7500SOL    HW124177   3.829  -0.001   7.960 -0.1457  0.4363  0.3318
 7500SOL    HW224178   3.969  -0.056   7.979 -0.2700  0.5627  1.7336
 7501SOL     OW24179   6.689   7.849   2.554  0.3565 -0.1086  0.1587
 7501SOL    HW124180   6.658   7.821   2.640  0.1143  1.7421  0.6882
 7501SOL    HW224181   6.624   7.813   2.493 -1.6692  1.8868  1.0878
 7502SOL     OW24182   2.278   2.331   6.981 -0.4568  0.3251  0.1374
 7502SOL    HW124183   2.242   2.355   7.066  0.2855 -0.1725  0.5940
 7502SOL    HW224184   2.277   2.235   6.979  1.2615  0.2766  0.3590
 7503SOL     OW24185   6.380   3.813   3.275  0.1478 -0.5310  1.0013
 7503SOL    HW124186   6.447   3.825   3.342 -0.2448 -0.4582  1.3832
 7503SOL    HW224187   6.428   3.780   3.199  0.4244 -1.7829  1.6969
 7504SOL     OW24188   5.754   5.299   3.168  0.1468 -0.7218 -0.2680
 7504SOL    HW124189   5.735   5.282   3.076 -1.9697 -0.8747  0.1830
 7504SOL    HW224190   5.700   5.374   3.191  0.8349 -0.5407  0.8128
 7505SOL     OW24191   2.833   2.376   5.258  0.6339  0.4572  0.5356
 7505SOL    HW124192   2.825   2.370   5.353  0.2923 -1.4171  0.4113
 7505SOL    HW224193   2.752   2.339   5.224  0.6065  1.4183 -0.4968
 7506SOL     OW24194   3.220   0.751   6.568 -0.4608 -0.0034  0.3994
 7506SOL    HW124195   3.177   0.771   6.485  1.6253  0.3982 -0.6183
 7506SOL    HW224196   3.151   0.762   6.634 -2.3087 -0.9508 -1.3194
 7507SOL     OW24197   2.894   5.778   1.652 -0.0070 -0.0870  0.3212
 7507SOL    HW124198   2.823   5.738   1.702  0.3942 -2.1909 -0.7515
 7507SOL    HW224199   2.861   5.782   1.562  1.2072 -1.0510 -0.1809
 7508SOL     OW24200   4.100   5.377   0.633  0.0214 -0.1467 -0.1660
 7508SOL    HW124201   4.061   5.291   0.651 -0.8907  0.5201  1.1493
 7508SOL    HW224202   4.026   5.438   0.639  1.1637  1.0837  1.8208
 7509SOL     OW24203   4.683   6.248   6.629 -0.2514 -0.2768 -0.6598
 7509SOL    HW124204   4.612   6.253   6.565 -2.1191  0.6464  1.4186
 7509SOL    HW224205   4.758   6.289   6.585 -1.5915  0.6507 -2.1264
 7510SOL     OW24206   7.831   4.015   8.586 -0.0947  0.3395 -0.0371
 7510SOL    HW124207   7.751   4.009   8.534 -0.8278 -0.5366  1.1648
 7510SOL    HW224208   7.866   4.102   8.566 -2.4945  1.6168  1.0798
 7511SOL     OW24209   6.096   3.942   4.630  0.0698  0.0845  0.0111
 7511SOL    HW124210   6.038   3.918   4.703  2.3190  0.2396  1.8977
 7511SOL    HW224211   6.139   3.860   4.607 -0.6954  0.0184 -1.2517
 7512SOL     OW24212   7.208   6.596   4.178 -0.0492 -0.8687 -0.1922
 7512SOL    HW124213   7.221   6.627   4.267  1.0345 -1.9541  0.0424
 7512SOL    HW224214   7.284   6.541   4.160 -1.8121 -3.2605 -0.6212
 7513SOL     OW24215   0.589   4.341   7.853 -0.9971  0.5404 -0.5063
 7513SOL    HW124216   0.529   4.390   7.796 -0.3015  0.9485 -0.8941
 7513SOL    HW224217   0.610   4.263   7.802  0.1324  1.2135 -1.0944
 7514SOL     OW24218   3.678   2.190   8.435  0.4326  0.0602 -0.5692
 7514SOL    HW124219   3.751   2.244   8.464  1.6364 -1.9328  0.1792
 7514SOL    HW224220   3.711   2.145   8.357 -1.1427  1.6746 -2.2204
 7515SOL     OW24221   6.569   4.179   8.649  0.2120 -0.0813  0.0351
 7515SOL    HW124222   6.493   4.197   8.594  0.3402  1.9461  0.4843
 7515SOL    HW224223   6.535   4.130   8.723 -0.2101 -1.4914 -1.0608
 7516SOL     OW24224   7.675   0.414   0.933  0.5489 -0.1582 -0.4485
 7516SOL    HW124225   7.658   0.503   0.964 -0.3411 -0.5437  0.1996
 7516SOL    HW224226   7.690   0.364   1.014 -1.9130 -1.2081 -0.5987
 7517SOL     OW24227   3.284   1.412   3.836 -0.6465 -0.2730  0.1321
 7517SOL    HW124228   3.245   1.331   3.805  0.5737 -0.8189  0.0146
 7517SOL    HW224229   3.377   1.405   3.813 -0.2430  0.4931  1.4666
 7518SOL     OW24230   2.440   5.126   6.801  0.1365 -0.2339  0.0435
 7518SOL    HW124231   2.457   5.041   6.761  3.0873 -0.5720  1.8554
 7518SOL    HW224232   2.436   5.108   6.895 -0.4970  1.4228  0.3490
 7519SOL     OW24233   3.295   8.318   1.942  0.2320 -0.0591 -0.1653
 7519SOL    HW124234   3.255   8.292   1.859 -0.3640 -0.3791  0.2196
 7519SOL    HW224235   3.305   8.413   1.935 -0.7527  0.0537 -0.2089
 7520SOL     OW24236   6.379   5.365   0.643  0.0530  0.5494  0.3985
 7520SOL    HW124237   6.449   5.345   0.581 -0.4034  3.6166 -1.1695
 7520SOL    HW224238   6.424   5.395   0.721  0.5384  1.0857 -0.0807
 7521SOL     OW24239   7.214   4.246   1.276 -0.0252 -0.0403 -0.4721
 7521SOL    HW124240   7.228   4.293   1.193 -0.4621 -1.1189 -1.1737
 7521SOL    HW224241   7.210   4.153   1.250 -0.8446 -0.3306  0.6745
 7522SOL     OW24242   6.279   4.994   4.009 -0.3757  0.0741  0.3609
 7522SOL    HW124243   6.217   5.060   4.040  0.9211  1.3301  0.3400
 7522SOL    HW224244   6.327   4.968   4.088  0.9909  1.1945 -0.0784
 7523SOL     OW24245   0.503   4.036   0.093  0.1942 -0.2388 -0.2063
 7523SOL    HW124246   0.471   3.947   0.084 -1.6325  0.3891 -0.0347
 7523SOL    HW224247   0.483   4.078   0.009  4.2686 -0.9513 -1.6409
 7524SOL     OW24248   6.490   2.054   4.693  0.1168 -0.0828 -0.5610
 7524SOL    HW124249   6.458   2.008   4.771 -1.1656  2.5879  0.5568
 7524SOL    HW224250   6.558   1.997   4.657 -0.2072 -1.9884  1.7473
 7525SOL     OW24251   8.026   5.991   4.149 -0.3029 -0.2980  0.2204
 7525SOL    HW124252   8.108   6.023   4.187 -0.8539  2.0065 -0.4495
 7525SOL    HW224253   8.046   5.976   4.057 -0.3607 -0.7337  0.2794
 7526SOL     OW24254   1.508   2.182   5.063 -0.0925 -0.4225 -0.0389
 7526SOL    HW124255   1.590   2.227   5.044 -0.1758 -0.2248  0.0631
 7526SOL    HW224256   1.446   2.252   5.081 -0.8346 -0.4701 -2.2615
 7527SOL     OW24257   9.258   7.796   3.000 -0.0434 -0.2735  0.1540
 7527SOL    HW124258   9.291   7.795   2.910 -0.0200  1.2815  0.1369
 7527SOL    HW224259   9.281   7.883   3.034 -0.3886 -0.6993  1.5411
 7528SOL     OW24260   8.153   6.300   2.366 -0.1442  0.0528 -0.5718
 7528SOL    HW124261   8.165   6.217   2.320  3.5783 -0.2993  0.8775
 7528SOL    HW224262   8.186   6.367   2.306  1.2852 -0.0278  0.1138
 7529SOL     OW24263   4.225   6.633   0.061  0.3941  0.3598  0.0350
 7529SOL    HW124264   4.157   6.638  -0.006 -0.7940  2.5955  1.3398
 7529SOL    HW224265   4.305   6.610   0.013 -0.9953 -1.0299 -1.6959
 7530SOL     OW24266   6.057   2.867   0.588 -0.4034  0.4585 -0.0400
 7530SOL    HW124267   6.070   2.772   0.595 -0.4332  0.4438 -0.1875
 7530SOL    HW224268   6.025   2.893   0.675 -1.5906  0.1442 -0.3816
 7531SOL     OW24269   9.027   7.977   2.782  0.0711  0.0540  0.4965
 7531SOL    HW124270   9.096   8.036   2.812  1.2215 -0.8993 -0.2319
 7531SOL    HW224271   9.056   7.948   2.696 -1.9489  0.7532 -0.4340
 7532SOL     OW24272   2.255   5.181   8.929  0.0584 -0.1354  0.2637
 7532SOL    HW124273   2.231   5.093   8.957  0.8333 -0.2908  0.4451
 7532SOL    HW224274   2.175   5.233   8.942 -0.1337 -0.6115  1.0161
 7533SOL     OW24275   8.282   8.355   5.248 -0.3477 -0.0113  0.2895
 7533SOL    HW124276   8.194   8.382   5.274 -0.3658  1.8410 -1.5327
 7533SOL    HW224277   8.272   8.322   5.159  0.5715 -1.2258  0.6126
 7534SOL     OW24278   0.083   0.394   7.912 -0.0653  0.2003 -0.1824
 7534SOL    HW124279   0.027   0.441   7.850 -0.1357  0.1570 -0.1518
 7534SOL    HW224280   0.038   0.312   7.927  0.6049 -0.3471 -1.0811
 7535SOL     OW24281   8.028   6.151   2.864  1.0629  0.0659  0.1923
 7535SOL    HW124282   7.933   6.145   2.848  0.8028 -0.8381  1.9572
 7535SOL    HW224283   8.066   6.163   2.777 -0.6683  0.3678 -0.5486
 7536SOL     OW24284   3.203   0.737   8.127 -0.0606  0.8532  0.0647
 7536SOL    HW124285   3.293   0.721   8.156 -0.1769 -1.1928 -0.5777
 7536SOL    HW224286   3.150   0.716   8.203 -0.0741  0.5027 -0.0398
 7537SOL     OW24287   4.024   8.865   3.248 -0.0556  0.3786  0.6930
 7537SOL    HW124288   4.034   8.903   3.160  0.1504 -0.2283  0.4538
 7537SOL    HW224289   4.113   8.862   3.283  0.4684 -3.2955 -0.7203
 7538SOL     OW24290   3.889   0.995   7.949  0.2914 -0.4103  0.1889
 7538SOL    HW124291   3.977   0.981   7.983  0.6606 -0.0428 -0.6151
 7538SOL    HW224292   3.868   1.085   7.974  1.6876  0.8836 -2.9852
 7539SOL     OW24293   7.082   8.254   0.245  0.3560 -0.4226 -0.0801
 7539SOL    HW124294   6.994   8.222   0.268  0.8037 -2.8953 -1.5683
 7539SOL    HW224295   7.124   8.272   0.329 -0.6100 -1.9839  0.7613
 7540SOL     OW24296   3.943   4.642   5.771 -0.6365  0.0988  0.5286
 7540SOL    HW124297   4.029   4.676   5.747  0.0669 -0.6990  1.8621
 7540SOL    HW224298   3.917   4.692   5.848 -0.9964 -0.2307  0.6292
 7541SOL     OW24299   1.191   2.693   1.384 -0.0045  0.7156  0.0102
 7541SOL    HW124300   1.224   2.625   1.444 -1.9670 -0.3678 -0.1113
 7541SOL    HW224301   1.259   2.699   1.316  0.9997  0.1041  0.9318
 7542SOL     OW24302   5.690   9.108   1.554 -0.1830  0.6970  0.0174
 7542SOL    HW124303   5.714   9.123   1.646  1.1542  0.3009 -0.2474
 7542SOL    HW224304   5.639   9.027   1.556  0.7227  0.1166  0.3084
 7543SOL     OW24305   3.412   0.683   6.273 -0.5366 -0.0991  0.1345
 7543SOL    HW124306   3.348   0.730   6.219 -0.1020 -1.2944 -1.4695
 7543SOL    HW224307   3.408   0.593   6.242 -0.4991 -0.8862  2.3665
 7544SOL     OW24308   1.145   0.219   3.910  0.0032  0.2476  0.0166
 7544SOL    HW124309   1.168   0.131   3.940  0.2771  0.2564 -0.1647
 7544SOL    HW224310   1.061   0.208   3.865  0.6344 -0.1401 -1.0972
 7545SOL     OW24311   0.138   6.280   9.142 -0.0121  0.2149 -0.1095
 7545SOL    HW124312   0.198   6.220   9.098  0.6649  1.2496 -0.6082
 7545SOL    HW224313   0.054   6.267   9.096 -0.0905 -0.9431  0.3381
 7546SOL     OW24314   3.637   6.032   6.671  0.0871  0.0811  0.2430
 7546SOL    HW124315   3.654   5.947   6.711 -0.7030 -0.4698 -0.5878
 7546SOL    HW224316   3.709   6.044   6.609 -0.0669 -0.2009  0.0089
 7547SOL     OW24317   1.774   8.521   8.176 -0.2429  0.0661  0.0257
 7547SOL    HW124318   1.772   8.610   8.211  1.7557  0.2872 -0.3921
 7547SOL    HW224319   1.858   8.514   8.132 -0.2473 -2.1348  0.3126
 7548SOL     OW24320   4.576   5.019   3.790  0.0729  0.4536 -0.2268
 7548SOL    HW124321   4.636   4.958   3.833 -0.4868 -2.0263 -2.8486
 7548SOL    HW224322   4.632   5.068   3.730 -0.2147 -0.7016 -1.4577
 7549SOL     OW24323   2.853   2.492   3.281 -0.1016  0.5431  0.2980
 7549SOL    HW124324   2.904   2.570   3.302 -1.1004  0.8981  1.5101
 7549SOL    HW224325   2.770   2.526   3.247 -0.9037  0.0519  1.7125
 7550SOL     OW24326   2.228   2.896   9.268 -0.3214 -0.4925  0.0190
 7550SOL    HW124327   2.186   2.963   9.321  1.0339  0.0844  0.4027
 7550SOL    HW224328   2.287   2.851   9.329 -0.4789 -1.3671 -0.4683
 7551SOL     OW24329   4.835   6.726   3.355  0.1095  0.0106 -0.8288
 7551SOL    HW124330   4.770   6.766   3.297 -0.1681 -1.0453 -1.2476
 7551SOL    HW224331   4.791   6.720   3.439  0.1879  0.6802 -0.7363
 7552SOL     OW24332   7.048   6.547   8.971 -0.2912  0.2480  0.3189
 7552SOL    HW124333   7.134   6.504   8.965 -1.0002 -1.1646 -0.0181
 7552SOL    HW224334   7.012   6.539   8.882 -1.2389 -0.1986  0.7356
 7553SOL     OW24335   6.672   2.647   3.896  0.2713  0.5133 -0.3659
 7553SOL    HW124336   6.749   2.695   3.863  0.7086  0.1071  0.0491
 7553SOL    HW224337   6.634   2.606   3.819  1.4469 -0.6615 -0.3386
 7554SOL     OW24338   4.956   7.622   5.280 -0.0741  0.2610 -0.1576
 7554SOL    HW124339   4.963   7.535   5.240  2.5631  0.0291  0.7098
 7554SOL    HW224340   4.908   7.607   5.361 -0.5829 -0.1960 -0.5339
 7555SOL     OW24341   5.798   6.990   4.233  0.3429 -0.1021 -0.6875
 7555SOL    HW124342   5.710   6.958   4.217  0.3025  0.1281 -0.9301
 7555SOL    HW224343   5.788   7.053   4.304  0.4258 -0.6385 -0.1985
 7556SOL     OW24344   5.836   3.676   7.355 -0.4864  0.2489 -0.7889
 7556SOL    HW124345   5.931   3.690   7.363 -0.7979  1.0505  2.2030
 7556SOL    HW224346   5.807   3.658   7.444 -3.3270  1.0160 -1.5041
 7557SOL     OW24347   9.077   5.797   4.991  0.7183 -0.1750 -0.4462
 7557SOL    HW124348   9.098   5.727   5.053 -3.0234 -1.3261 -0.3588
 7557SOL    HW224349   9.058   5.751   4.909 -3.8884  0.4252  0.1581
 7558SOL     OW24350   2.557   8.696   2.691  0.5245  0.9027  0.6015
 7558SOL    HW124351   2.489   8.711   2.625  0.7876  2.3980  0.6548
 7558SOL    HW224352   2.634   8.671   2.641  0.3155  0.5548  0.4483
 7559SOL     OW24353   2.071   1.670   4.421 -0.2326  0.1109  0.0378
 7559SOL    HW124354   1.990   1.619   4.419  1.0659 -1.9869 -1.8566
 7559SOL    HW224355   2.128   1.622   4.482 -0.3542  1.4858  1.2484
 7560SOL     OW24356   4.195   6.570   5.400  0.0637 -0.1745 -0.2715
 7560SOL    HW124357   4.244   6.646   5.431 -0.2056 -0.4467  0.8388
 7560SOL    HW224358   4.180   6.517   5.478 -3.0794  0.5049 -0.3482
 7561SOL     OW24359   7.941   4.437   4.773  0.0307 -0.2433 -0.0085
 7561SOL    HW124360   8.031   4.426   4.743  0.0821  1.2705 -0.4245
 7561SOL    HW224361   7.911   4.348   4.791  0.8336 -0.9624 -2.1105
 7562SOL     OW24362   5.229   2.965   1.824  0.2783  0.5388  0.4414
 7562SOL    HW124363   5.246   2.920   1.741 -0.4543 -0.3248  0.7546
 7562SOL    HW224364   5.148   3.013   1.809  0.3521  0.6928  0.5348
 7563SOL     OW24365   3.449   5.749   1.710  0.2658 -1.0414 -0.0404
 7563SOL    HW124366   3.354   5.758   1.709  0.3280 -0.3602 -0.6675
 7563SOL    HW224367   3.476   5.766   1.620  0.9609 -1.4728  0.0797
 7564SOL     OW24368   3.847   0.579   5.769 -0.6160  0.4395  0.4867
 7564SOL    HW124369   3.807   0.666   5.775 -1.2049  0.2087 -0.1064
 7564SOL    HW224370   3.877   0.572   5.679  0.5666  0.5167  0.8653
 7565SOL     OW24371   4.567   4.039   5.465 -0.0101  0.0151 -0.3833
 7565SOL    HW124372   4.605   4.031   5.553  0.6603 -0.1666 -0.6869
 7565SOL    HW224373   4.530   4.127   5.462 -0.9450 -0.3402  0.4411
 7566SOL     OW24374   2.609   0.916   0.018 -0.2695 -0.2645 -0.5897
 7566SOL    HW124375   2.606   0.895  -0.075  0.9334 -1.0723 -0.4512
 7566SOL    HW224376   2.681   0.864   0.052 -1.5811 -1.0453  1.0692
 7567SOL     OW24377   5.935   7.736   6.348 -0.2291  0.2588 -0.0425
 7567SOL    HW124378   6.001   7.758   6.283 -0.8113 -0.2918 -0.8194
 7567SOL    HW224379   5.894   7.656   6.315 -0.3303 -0.1883  1.1394
 7568SOL     OW24380   6.871   8.909   0.776 -0.2333  0.2540 -0.1243
 7568SOL    HW124381   6.852   8.817   0.759  2.6403 -0.6453  1.2503
 7568SOL    HW224382   6.815   8.957   0.715 -1.3274 -2.4032 -1.2711
 7569SOL     OW24383   2.604   7.477   8.340  0.0405  0.4743 -0.7818
 7569SOL    HW124384   2.518   7.441   8.361 -0.1912 -0.4205 -3.0987
 7569SOL    HW224385   2.587   7.570   8.324  0.1291  1.0487  2.2038
 7570SOL     OW24386   4.070   1.469   7.396  0.2208  0.6625 -0.1225
 7570SOL    HW124387   4.034   1.472   7.485  0.8647  3.0446  0.0734
 7570SOL    HW224388   4.037   1.548   7.354  0.8445  0.1211 -1.6664
 7571SOL     OW24389   4.423   6.049   0.550 -0.3888  0.1604 -0.0919
 7571SOL    HW124390   4.424   5.954   0.534 -1.2999  0.2456 -0.7075
 7571SOL    HW224391   4.466   6.087   0.473 -0.4799  0.2734 -0.0874
 7572SOL     OW24392   2.528   8.962   0.785  0.2212 -0.2544 -0.3281
 7572SOL    HW124393   2.452   8.904   0.782 -0.9946  1.2769  0.5398
 7572SOL    HW224394   2.502   9.035   0.841  3.2409 -0.9698  2.1691
 7573SOL     OW24395   1.492   8.842   2.966 -0.5703 -0.4787  0.3508
 7573SOL    HW124396   1.453   8.797   3.041 -0.8809 -0.1742  0.3758
 7573SOL    HW224397   1.466   8.933   2.976 -1.0709 -0.5268 -0.4087
 7574SOL     OW24398   3.561   7.560   3.298  0.1019  0.1574  0.1404
 7574SOL    HW124399   3.536   7.595   3.213  1.2933  0.7674  0.0361
 7574SOL    HW224400   3.533   7.627   3.361  0.0760  0.1350  0.1526
 7575SOL     OW24401   8.746   4.255   0.215  0.5477  0.2610 -0.1042
 7575SOL    HW124402   8.690   4.300   0.151  0.5337  0.0343 -0.2519
 7575SOL    HW224403   8.739   4.163   0.192 -1.7188 -0.1563  1.9744
 7576SOL     OW24404   2.806   8.831   3.957  0.7706  0.1423 -0.2529
 7576SOL    HW124405   2.758   8.754   3.988  0.4173  0.7017  0.5965
 7576SOL    HW224406   2.860   8.857   4.031  2.1160 -0.2533 -1.0777
 7577SOL     OW24407   4.473   0.355   6.504 -0.3250 -0.0784  0.4405
 7577SOL    HW124408   4.382   0.350   6.476 -0.1192  0.5381 -0.3550
 7577SOL    HW224409   4.510   0.269   6.484 -1.0562 -0.7713  1.9654
 7578SOL     OW24410   5.546   2.831   7.671  0.0602  0.1431  0.0828
 7578SOL    HW124411   5.591   2.915   7.673 -0.3309  0.4086 -1.2134
 7578SOL    HW224412   5.512   2.825   7.581  0.6135 -1.6677 -0.0262
 7579SOL     OW24413   9.061   6.583   8.426  0.1637  0.5736 -0.8204
 7579SOL    HW124414   9.118   6.537   8.364  0.0883  2.0703 -2.0122
 7579SOL    HW224415   9.111   6.660   8.452 -0.8117  1.2373 -0.9072
 7580SOL     OW24416   8.959   6.109   6.622  0.3974  0.5529  0.4673
 7580SOL    HW124417   8.871   6.071   6.612  1.7516 -2.0565 -2.3881
 7580SOL    HW224418   8.985   6.088   6.711 -0.8520 -0.9448  0.4826
 7581SOL     OW24419   8.208   0.127   4.074 -0.5688  0.3859 -0.5401
 7581SOL    HW124420   8.285   0.135   4.129 -1.7668 -0.8931  1.3755
 7581SOL    HW224421   8.196   0.214   4.036  1.9213  0.5470 -1.0535
 7582SOL     OW24422   1.489   2.219   8.072 -0.4768 -0.2386  0.1316
 7582SOL    HW124423   1.576   2.258   8.074 -0.1869 -0.8607 -0.2976
 7582SOL    HW224424   1.429   2.294   8.069  0.0476  0.1842  0.1613
 7583SOL     OW24425   3.430   7.380   8.823 -0.4011 -0.3340  0.5235
 7583SOL    HW124426   3.374   7.411   8.752  0.5144 -1.5884 -0.7790
 7583SOL    HW224427   3.482   7.456   8.847  0.3882 -0.2741 -1.2494
 7584SOL     OW24428   2.153   1.971   2.213  0.5640 -0.0545 -0.0631
 7584SOL    HW124429   2.091   1.942   2.281 -0.2194 -0.4658 -0.9488
 7584SOL    HW224430   2.157   1.899   2.151  2.4777 -0.3137  0.3273
 7585SOL     OW24431   5.877   4.198   6.696  0.1556 -0.1096 -0.2685
 7585SOL    HW124432   5.783   4.203   6.716 -0.1562  0.9827 -1.9346
 7585SOL    HW224433   5.901   4.108   6.720 -1.8542 -1.1896 -2.0094
 7586SOL     OW24434   6.009   1.595   0.939 -0.4739 -0.3484 -0.4779
 7586SOL    HW124435   5.964   1.673   0.907 -0.6452  0.9559  2.7428
 7586SOL    HW224436   6.102   1.612   0.923 -0.4302  0.9879  1.1104
 7587SOL     OW24437   4.046   4.632   4.927 -0.4395 -0.0253  0.6250
 7587SOL    HW124438   4.026   4.567   4.860 -0.2426  0.2837  0.2673
 7587SOL    HW224439   3.995   4.709   4.901  1.0792  0.7212 -0.2032
 7588SOL     OW24440   1.602   8.272   2.938  0.3098 -0.4830 -1.2370
 7588SOL    HW124441   1.617   8.182   2.967  1.4428  0.1953  0.3394
 7588SOL    HW224442   1.516   8.294   2.973  0.4523 -0.6138 -0.8039
 7589SOL     OW24443   6.923   2.969   1.262  0.5452 -0.4931  0.3571
 7589SOL    HW124444   7.001   2.973   1.208 -0.3283 -2.3843 -1.1024
 7589SOL    HW224445   6.856   3.014   1.211  0.1329 -0.7651  0.6522
 7590SOL     OW24446   7.530   8.689   1.258 -0.0180  0.4435 -0.2717
 7590SOL    HW124447   7.554   8.600   1.231  1.6353  0.9168 -0.3920
 7590SOL    HW224448   7.463   8.676   1.325  0.1474 -0.8842 -0.3455
 7591SOL     OW24449   1.126   1.751   2.643 -0.7355  0.1100 -0.0092
 7591SOL    HW124450   1.177   1.765   2.722  1.6909  0.0113 -1.5166
 7591SOL    HW224451   1.129   1.656   2.629 -0.8705  0.1625 -0.4104
 7592SOL     OW24452   6.670   3.093   7.625 -0.2144 -0.5192 -0.0730
 7592SOL    HW124453   6.621   3.065   7.703  0.3376 -0.1039  0.4280
 7592SOL    HW224454   6.682   3.187   7.637 -0.2617 -0.4313 -0.7388
 7593SOL     OW24455   5.244   6.244   0.494 -0.5683  0.0508  0.7192
 7593SOL    HW124456   5.325   6.270   0.539 -0.6624 -0.8652  1.4341
 7593SOL    HW224457   5.255   6.275   0.404 -0.0954  1.3335  1.1995
 7594SOL     OW24458   2.811   0.024   1.291  0.1932  0.3348 -0.8534
 7594SOL    HW124459   2.823   0.107   1.338 -1.1814  0.8698 -1.4390
 7594SOL    HW224460   2.876   0.027   1.220  1.4869  0.0261  0.2784
 7595SOL     OW24461   3.685   3.355   2.207 -0.1355  0.0039  0.1857
 7595SOL    HW124462   3.708   3.272   2.250 -0.0945  0.2330  0.6042
 7595SOL    HW224463   3.700   3.422   2.274 -2.1995  0.1476  0.5493
 7596SOL     OW24464   7.674   6.397   1.956 -0.1564  0.1666  0.6330
 7596SOL    HW124465   7.620   6.412   1.878 -0.8470  0.7098  1.2083
 7596SOL    HW224466   7.611   6.371   2.023  0.6737 -2.4183  0.4538
 7597SOL     OW24467   5.576   0.901   8.120 -0.2543 -0.1695 -0.0865
 7597SOL    HW124468   5.520   0.948   8.058  0.5488  0.3978 -0.3927
 7597SOL    HW224469   5.649   0.961   8.137 -0.1763 -0.5477  0.9768
 7598SOL     OW24470   1.520   3.612   8.122  0.2621 -0.0840  0.3431
 7598SOL    HW124471   1.555   3.579   8.205 -2.1129  1.1706  1.8968
 7598SOL    HW224472   1.454   3.677   8.148 -1.5357 -0.6867 -2.4873
 7599SOL     OW24473   0.257   3.884   0.180 -0.2022 -0.4158 -0.4598
 7599SOL    HW124474   0.188   3.950   0.169  0.2890  0.5281  1.9072
 7599SOL    HW224475   0.210   3.801   0.185 -0.8918 -0.1740 -2.4915
 7600SOL     OW24476   1.881   1.409   6.028  0.0525  0.2073 -0.1792
 7600SOL    HW124477   1.816   1.466   6.068  0.0918 -0.0425  0.2498
 7600SOL    HW224478   1.947   1.397   6.096  0.6159  0.5736 -0.6614
 7601SOL     OW24479   7.864   0.830   6.060  0.0963 -0.6875 -0.4824
 7601SOL    HW124480   7.841   0.906   6.006 -1.1302 -0.0620  0.8628
 7601SOL    HW224481   7.926   0.864   6.124  0.2140 -1.0150 -0.4238
 7602SOL     OW24482   8.683   7.586   2.791 -0.2827  0.2456 -0.4707
 7602SOL    HW124483   8.719   7.592   2.880 -0.7819  0.7787 -0.3023
 7602SOL    HW224484   8.752   7.621   2.735  0.7515 -1.7163 -0.4931
 7603SOL     OW24485   8.326   7.788   3.665  0.2814 -0.2512  0.1802
 7603SOL    HW124486   8.376   7.799   3.746  1.0703 -0.9473 -0.2042
 7603SOL    HW224487   8.311   7.693   3.659  0.2973 -0.2090 -0.5298
 7604SOL     OW24488   2.477   0.970   1.005  0.3236 -0.0047 -0.4698
 7604SOL    HW124489   2.528   0.980   0.925  0.8416 -1.5569 -0.3509
 7604SOL    HW224490   2.459   0.876   1.011  0.8884 -0.0262  1.5626
 7605SOL     OW24491   7.024   7.950   5.702  0.3369 -0.2247 -0.0624
 7605SOL    HW124492   7.098   7.996   5.742  0.1730  0.7009 -0.8151
 7605SOL    HW224493   6.961   8.019   5.681 -0.8216 -1.0211  0.7149
 7606SOL     OW24494   1.469   7.341   4.719 -0.0921 -0.1462  0.3352
 7606SOL    HW124495   1.423   7.326   4.637 -0.8614 -0.4080  0.8161
 7606SOL    HW224496   1.559   7.364   4.692  0.4316 -3.0041 -0.4875
 7607SOL     OW24497   5.403   6.146   3.643 -0.1191 -0.3047 -0.1453
 7607SOL    HW124498   5.370   6.217   3.698  0.2910 -0.1295 -0.1205
 7607SOL    HW224499   5.472   6.105   3.696  0.1091 -0.2895 -0.4302
 7608SOL     OW24500   4.772   5.129   5.823 -0.2470  0.9053 -0.2133
 7608SOL    HW124501   4.854   5.170   5.849  1.8937 -2.2815 -1.6842
 7608SOL    HW224502   4.787   5.099   5.734 -2.9074 -0.0691 -0.3891
 7609SOL     OW24503   0.746   8.819   9.244  0.7147  0.3236 -0.0787
 7609SOL    HW124504   0.808   8.812   9.171  0.8136 -0.0771  0.0433
 7609SOL    HW224505   0.787   8.882   9.304  1.1256 -0.1259  0.1205
 7610SOL     OW24506   2.085   0.040   6.465 -0.3341 -0.2467 -0.1771
 7610SOL    HW124507   2.074  -0.054   6.480 -0.3914 -0.4442 -1.4238
 7610SOL    HW224508   2.090   0.049   6.370  2.1219  0.7536  0.0140
 7611SOL     OW24509   1.357   3.818   2.304 -0.6873 -0.2192 -0.8018
 7611SOL    HW124510   1.344   3.913   2.303 -0.4301 -0.1845 -0.7106
 7611SOL    HW224511   1.290   3.786   2.364 -0.2134 -0.0130 -0.1573
 7612SOL     OW24512   1.161   5.727   0.803  0.3574 -0.5279  0.4087
 7612SOL    HW124513   1.231   5.721   0.738  0.5464  0.7265  0.4708
 7612SOL    HW224514   1.081   5.706   0.755  0.3211  1.7391 -0.6022
 7613SOL     OW24515   3.998   8.466   7.550  0.0057  0.3139  0.3217
 7613SOL    HW124516   3.913   8.423   7.555  0.0541  0.3009  1.2695
 7613SOL    HW224517   4.052   8.407   7.498  0.1793 -0.9899  1.9173
 7614SOL     OW24518   5.115   8.965   3.154  0.5598 -0.5298  0.1718
 7614SOL    HW124519   5.156   9.037   3.201  0.9965 -0.6461 -0.0290
 7614SOL    HW224520   5.174   8.947   3.081  0.3414 -0.9469  0.0949
 7615SOL     OW24521   2.382   3.559   8.542 -0.2422 -0.4591  0.4248
 7615SOL    HW124522   2.407   3.649   8.559 -1.5425 -0.2280  1.2358
 7615SOL    HW224523   2.349   3.527   8.626 -2.0097 -0.9235 -0.4226
 7616SOL     OW24524   3.486   7.817   8.690  0.6784 -0.2406  0.0645
 7616SOL    HW124525   3.462   7.748   8.753 -0.2851 -0.1453 -0.1854
 7616SOL    HW224526   3.506   7.893   8.745  0.7452 -0.4245  0.2987
 7617SOL     OW24527   9.038   2.402   0.481 -0.5850  0.0891  0.1247
 7617SOL    HW124528   9.130   2.405   0.508 -1.1073 -0.5354  2.0317
 7617SOL    HW224529   9.013   2.494   0.471  0.7833  0.2377 -2.4133
 7618SOL     OW24530   1.025   8.112   1.437 -0.3342  0.0575  0.4291
 7618SOL    HW124531   0.959   8.126   1.505  0.6237 -0.6306  1.5169
 7618SOL    HW224532   1.108   8.112   1.484  0.4156  0.4454 -0.8687
 7619SOL     OW24533   9.265   7.304   2.607  0.1871  0.1561 -0.0625
 7619SOL    HW124534   9.327   7.236   2.635  3.0380  1.6616 -2.4366
 7619SOL    HW224535   9.279   7.376   2.668 -0.5351 -0.1440  0.4730
 7620SOL     OW24536   8.613   1.881   1.218 -0.5708  0.7774  0.3835
 7620SOL    HW124537   8.538   1.836   1.257  0.8093  0.2921  2.5759
 7620SOL    HW224538   8.661   1.813   1.171 -2.5738  1.4781 -2.8583
 7621SOL     OW24539   7.138   6.105   4.369  0.1126 -0.0855  0.3649
 7621SOL    HW124540   7.213   6.107   4.309  0.2634 -1.0894  0.5106
 7621SOL    HW224541   7.176   6.085   4.455 -0.1502  0.9468  0.7222
 7622SOL     OW24542   3.665   9.263   5.004 -0.3253 -0.3812 -0.3433
 7622SOL    HW124543   3.668   9.175   5.041 -0.9390 -0.1924  0.1588
 7622SOL    HW224544   3.756   9.293   5.007  0.0159 -1.3027 -1.2639
 7623SOL     OW24545   7.600   4.474   1.947 -0.0548  0.4596 -0.0939
 7623SOL    HW124546   7.696   4.477   1.952 -0.1118  0.5073  1.2252
 7623SOL    HW224547   7.581   4.389   1.910  0.4775 -0.1909  1.0819
 7624SOL     OW24548   2.524   3.490   4.221 -0.5250  0.8354  0.1021
 7624SOL    HW124549   2.615   3.520   4.233 -0.2683  0.3978 -0.7811
 7624SOL    HW224550   2.478   3.526   4.297  0.9457 -1.2668  2.0566
 7625SOL     OW24551   1.331   6.477   7.599  0.0835  0.5226  0.2991
 7625SOL    HW124552   1.423   6.480   7.576  0.4960  0.4017  1.8772
 7625SOL    HW224553   1.326   6.516   7.686 -1.0121 -1.5121  1.1863
 7626SOL     OW24554   0.327   6.359   0.698  0.2222 -0.3648  0.2675
 7626SOL    HW124555   0.260   6.293   0.679 -0.7465  0.2107  1.6240
 7626SOL    HW224556   0.405   6.328   0.652  0.4444 -3.6950  2.7016
 7627SOL     OW24557   6.157   2.804   3.034  0.3411 -0.0641  0.1168
 7627SOL    HW124558   6.142   2.779   3.125  1.6916  1.4855  0.7853
 7627SOL    HW224559   6.176   2.898   3.037  0.5309 -0.0165 -1.7437
 7628SOL     OW24560   2.500   8.752   3.346 -0.0631 -0.4769  0.2530
 7628SOL    HW124561   2.489   8.831   3.400  0.9568  0.4463 -0.8694
 7628SOL    HW224562   2.588   8.721   3.367  0.5741  0.2305 -1.2968
 7629SOL     OW24563   4.843   4.327   4.746  0.0907 -0.2020  0.4600
 7629SOL    HW124564   4.747   4.325   4.740  0.0376  0.9246  0.7716
 7629SOL    HW224565   4.871   4.245   4.705 -0.9803 -0.2509 -0.2121
 7630SOL     OW24566   4.537   5.867   1.129 -0.3326  0.0412  0.4182
 7630SOL    HW124567   4.491   5.859   1.046  0.7052 -0.9099 -0.0826
 7630SOL    HW224568   4.547   5.777   1.160 -2.2588  0.4811  2.4481
 7631SOL     OW24569   6.678   6.536   7.204  0.1685  0.3825 -0.2484
 7631SOL    HW124570   6.661   6.455   7.155 -0.7491  0.8974 -0.8056
 7631SOL    HW224571   6.773   6.538   7.215  0.4100  0.2747 -2.0799
 7632SOL     OW24572   7.409   4.469   9.104 -0.3131 -0.3228 -0.4007
 7632SOL    HW124573   7.349   4.455   9.031 -0.8940 -0.6389  0.1365
 7632SOL    HW224574   7.440   4.381   9.127 -0.7244 -0.3089  0.2293
 7633SOL     OW24575   1.212   4.363   5.105  0.1084 -0.3292 -0.0005
 7633SOL    HW124576   1.183   4.272   5.104  2.3959 -1.1024  0.4707
 7633SOL    HW224577   1.296   4.362   5.058  1.0140  1.2094  1.5067
 7634SOL     OW24578   7.898   5.074   7.466 -0.5200  0.4211  0.1826
 7634SOL    HW124579   7.856   5.151   7.428 -0.4391  0.4766  0.2063
 7634SOL    HW224580   7.974   5.058   7.411 -0.0918  0.8322  0.6474
 7635SOL     OW24581   4.821   4.792   8.319 -0.9901 -0.0636 -0.0587
 7635SOL    HW124582   4.782   4.784   8.406 -3.4224  2.0038 -0.9351
 7635SOL    HW224583   4.836   4.701   8.292 -0.0268 -0.7412  2.5361
 7636SOL     OW24584   6.501   6.043   5.973  0.4178 -0.2794 -0.1708
 7636SOL    HW124585   6.558   6.051   5.897 -0.6223  0.0552 -0.9186
 7636SOL    HW224586   6.535   6.107   6.036  2.4679 -1.9115  0.4159
 7637SOL     OW24587   8.749   1.009   4.683 -0.7735 -0.3157  0.3712
 7637SOL    HW124588   8.735   0.996   4.589  0.6107  0.9567 -0.0234
 7637SOL    HW224589   8.775   0.922   4.715 -0.5075 -0.5911 -0.5635
 7638SOL     OW24590   3.291   9.208   6.534  0.5318 -0.2847  0.3027
 7638SOL    HW124591   3.266   9.295   6.503  0.5697 -0.6258 -0.7070
 7638SOL    HW224592   3.217   9.180   6.588  0.5533  0.4029  0.6925
 7639SOL     OW24593   1.331   6.499   6.900  0.1526  0.2317  0.0058
 7639SOL    HW124594   1.342   6.544   6.817  0.1647 -1.9518 -1.2018
 7639SOL    HW224595   1.270   6.427   6.881  1.0073 -0.9638  1.6238
 7640SOL     OW24596   8.376   0.722   6.749 -0.2020 -0.2481  0.0574
 7640SOL    HW124597   8.398   0.788   6.684  1.1361 -0.2023  0.5484
 7640SOL    HW224598   8.455   0.669   6.758 -0.9000 -1.2351  0.4823
 7641SOL     OW24599   5.263   6.407   4.369 -0.0427 -0.0727  0.6381
 7641SOL    HW124600   5.248   6.426   4.276 -1.1147  1.3888  1.0786
 7641SOL    HW224601   5.300   6.488   4.404 -2.6988  0.5315  2.1487
 7642SOL     OW24602   6.864   5.873   2.805  0.5160  0.1016  0.4272
 7642SOL    HW124603   6.948   5.828   2.803  1.1418  1.2618  0.2949
 7642SOL    HW224604   6.827   5.859   2.718  0.6504 -0.2632  0.4291
 7643SOL     OW24605   8.808   3.891   7.785  0.1733 -0.4618  0.2441
 7643SOL    HW124606   8.798   3.979   7.747 -1.1418 -0.0703  1.4141
 7643SOL    HW224607   8.855   3.906   7.867 -0.3704 -0.7871  0.6209
 7644SOL     OW24608   7.306   7.095   0.193  0.7631  0.1119 -0.3986
 7644SOL    HW124609   7.272   7.134   0.273 -0.4106 -0.6556 -0.4943
 7644SOL    HW224610   7.395   7.068   0.214  0.5712  0.2134  0.5484
 7645SOL     OW24611   7.933   1.367   3.798 -0.0884 -0.5687 -0.1161
 7645SOL    HW124612   7.976   1.451   3.783 -1.6944  0.1121 -0.9443
 7645SOL    HW224613   7.981   1.305   3.743  0.0518  0.1190 -0.7703
 7646SOL     OW24614   2.159   1.067   2.388  0.5154  0.6114 -1.1586
 7646SOL    HW124615   2.122   1.091   2.303  1.0788 -0.5058 -1.7307
 7646SOL    HW224616   2.109   0.990   2.415 -0.0101  1.2708 -0.2260
 7647SOL     OW24617   4.179   5.544   4.248  0.4089 -0.1381 -0.3414
 7647SOL    HW124618   4.262   5.588   4.268  1.1372 -1.4572 -0.3453
 7647SOL    HW224619   4.132   5.542   4.331  0.1322  1.1005 -0.4556
 7648SOL     OW24620   6.915   3.484   6.137  0.3995 -0.4034  0.0019
 7648SOL    HW124621   6.888   3.576   6.136  2.9744  0.3958  1.1155
 7648SOL    HW224622   6.959   3.471   6.053 -0.6618 -0.8732 -0.4997
 7649SOL     OW24623   2.980   1.629   6.257  0.0654  0.1707 -0.1504
 7649SOL    HW124624   2.963   1.665   6.344 -2.0113 -0.4612 -0.2631
 7649SOL    HW224625   2.952   1.698   6.197  0.0379  0.0041 -0.3289
 7650SOL     OW24626   7.750   7.120   4.867  0.2658 -0.1167  0.0009
 7650SOL    HW124627   7.736   7.194   4.926  2.7865 -0.0766  0.6199
 7650SOL    HW224628   7.688   7.134   4.796 -0.2261  1.8606  0.7780
 7651SOL     OW24629   5.056   4.669   6.679  0.2504  0.8838 -0.4738
 7651SOL    HW124630   4.976   4.681   6.626 -0.2420  2.8071  0.6576
 7651SOL    HW224631   5.120   4.727   6.637  0.8109 -0.0033 -0.8554
 7652SOL     OW24632   1.931   9.279   8.815  0.2782  0.2704 -0.8905
 7652SOL    HW124633   1.918   9.296   8.721 -1.2822  1.5284 -0.4626
 7652SOL    HW224634   1.885   9.351   8.859 -0.2586 -1.1117  0.8562
 7653SOL     OW24635   5.346   0.372   8.957 -0.3673  0.1733 -0.0466
 7653SOL    HW124636   5.281   0.368   8.887 -0.1990 -1.8124 -0.1110
 7653SOL    HW224637   5.423   0.410   8.916 -0.3089 -0.8700 -0.9158
 7654SOL     OW24638   7.904   3.626   3.693 -0.0623  0.1887  0.3131
 7654SOL    HW124639   7.908   3.535   3.663 -1.4652  0.4948 -0.8689
 7654SOL    HW224640   7.918   3.622   3.787  2.0670 -1.0432 -0.0397
 7655SOL     OW24641   9.102   3.970   5.144 -0.2656  0.3096  0.3248
 7655SOL    HW124642   9.129   3.890   5.189  0.1938 -1.1593 -2.4565
 7655SOL    HW224643   9.031   3.942   5.086 -0.0436  1.8908 -0.7403
 7656SOL     OW24644   4.848   5.710   3.267  0.1039  0.4431  0.5060
 7656SOL    HW124645   4.807   5.767   3.332  0.7408  0.4904  0.8722
 7656SOL    HW224646   4.823   5.621   3.294 -1.7125  0.5803 -0.6342
 7657SOL     OW24647   0.081   2.445   1.531  0.6659  0.4938 -0.3621
 7657SOL    HW124648   0.172   2.474   1.535  0.8539  0.1274 -1.7324
 7657SOL    HW224649   0.085   2.350   1.520  0.0973  0.3404  0.6768
 7658SOL     OW24650   5.372   4.942   2.155 -0.0371  0.3919 -0.3492
 7658SOL    HW124651   5.411   4.867   2.201 -0.9380 -0.0831 -0.3602
 7658SOL    HW224652   5.441   4.972   2.096  0.2233 -0.6235 -0.5682
 7659SOL     OW24653   0.340   2.099   6.623  0.1763 -0.1244 -0.4422
 7659SOL    HW124654   0.266   2.068   6.571 -0.9710  0.6823  0.6992
 7659SOL    HW224655   0.385   2.019   6.652 -0.4020 -0.6167 -0.9035
 7660SOL     OW24656   7.982   5.751   2.423  0.0089  0.3410  0.0701
 7660SOL    HW124657   7.955   5.738   2.332 -0.1861 -1.0933  0.3191
 7660SOL    HW224658   8.065   5.705   2.430 -1.0596 -1.4804  1.1735
 7661SOL     OW24659   6.900   7.167   4.650 -0.8249 -0.3120  0.0391
 7661SOL    HW124660   6.805   7.151   4.649 -0.2911 -3.8760 -0.0802
 7661SOL    HW224661   6.924   7.172   4.558 -0.4431 -2.6207 -0.0044
 7662SOL     OW24662   3.858   9.015   1.908 -0.4167  0.7324 -0.1196
 7662SOL    HW124663   3.851   9.082   1.840 -0.4313  1.0214  0.1644
 7662SOL    HW224664   3.951   9.008   1.927 -0.3461  0.1172 -0.6978
 7663SOL     OW24665   5.776   0.753   4.663 -0.3929 -0.2411  0.3768
 7663SOL    HW124666   5.741   0.832   4.704 -2.1250 -1.6383  1.6468
 7663SOL    HW224667   5.711   0.730   4.597 -0.5822 -1.3660  0.9435
 7664SOL     OW24668   3.511   2.360   0.059  0.0598  0.2016 -0.0564
 7664SOL    HW124669   3.469   2.300  -0.003 -2.0696 -1.7953  3.1592
 7664SOL    HW224670   3.439   2.411   0.097  1.3172  1.4628  0.7098
 7665SOL     OW24671   1.141   2.279   2.455  0.0140  0.2832 -0.1330
 7665SOL    HW124672   1.088   2.248   2.382  0.4881 -1.3009  0.1783
 7665SOL    HW224673   1.231   2.271   2.424  0.1894  0.2587  0.3812
 7666SOL     OW24674   0.138   5.004   0.562 -0.8347  0.1023  0.8574
 7666SOL    HW124675   0.063   4.971   0.513 -0.6018 -0.1380  0.6622
 7666SOL    HW224676   0.152   4.939   0.631 -0.4459 -0.1511  0.5404
 7667SOL     OW24677   5.098   8.062   3.323 -0.5827  0.9264 -0.0259
 7667SOL    HW124678   5.150   8.094   3.398  2.1593 -0.0648 -1.4223
 7667SOL    HW224679   5.119   7.969   3.318 -0.9784  0.9262 -1.8326
 7668SOL     OW24680   3.256   8.092   2.453  0.0471 -0.2107  0.4923
 7668SOL    HW124681   3.350   8.094   2.435  0.0681  0.4992  0.6504
 7668SOL    HW224682   3.216   8.078   2.367  0.1321  3.6190 -0.2987
 7669SOL     OW24683   6.459   2.775   7.355 -0.1117 -0.1977 -0.1485
 7669SOL    HW124684   6.508   2.780   7.273 -0.9242 -1.8010 -0.7349
 7669SOL    HW224685   6.369   2.755   7.329 -0.5230 -0.0397  1.0993
 7670SOL     OW24686   3.605   6.062   5.989 -0.2835  0.1466  0.0126
 7670SOL    HW124687   3.535   6.011   6.030 -0.2649 -0.3722 -0.5886
 7670SOL    HW224688   3.631   6.009   5.913  1.2805 -0.0528  0.6650
 7671SOL     OW24689   2.498   4.448   3.303 -0.1605  0.2387  0.0554
 7671SOL    HW124690   2.466   4.358   3.303  0.8047 -0.1080  0.5467
 7671SOL    HW224691   2.457   4.488   3.380 -0.8162  0.3062 -0.3260
 7672SOL     OW24692   9.005   2.104   0.971  0.3605 -0.1199 -0.3046
 7672SOL    HW124693   9.026   2.048   1.046  1.0110  0.2671 -0.1917
 7672SOL    HW224694   9.019   2.047   0.895  0.4713 -0.2798 -0.1677
 7673SOL     OW24695   4.949   0.393   5.799  0.0022  0.2804 -0.1697
 7673SOL    HW124696   5.001   0.455   5.748  1.5059  0.4715  1.5339
 7673SOL    HW224697   4.968   0.307   5.760  0.7326  0.4873 -0.2759
 7674SOL     OW24698   7.346   2.435   7.104  0.0636 -0.0177  0.3860
 7674SOL    HW124699   7.325   2.391   7.022  0.6882  0.0447  0.1902
 7674SOL    HW224700   7.442   2.434   7.108  0.0359  0.0439  1.0778
 7675SOL     OW24701   7.518   3.341   4.305  0.1780 -0.2107  0.0691
 7675SOL    HW124702   7.491   3.257   4.342 -0.9580  0.3535  0.5535
 7675SOL    HW224703   7.451   3.361   4.239 -0.1400  0.8091  0.6907
 7676SOL     OW24704   0.799   5.313   0.729  0.2048 -0.7787  0.0183
 7676SOL    HW124705   0.760   5.235   0.768 -0.9965 -0.2308 -0.0468
 7676SOL    HW224706   0.826   5.286   0.642 -1.5837 -0.7609 -0.5736
 7677SOL     OW24707   7.604   0.165   3.252 -0.6528 -0.3298  0.1161
 7677SOL    HW124708   7.636   0.107   3.182 -0.8589  2.9241 -2.7862
 7677SOL    HW224709   7.643   0.129   3.331  1.1284 -3.0516 -1.8805
 7678SOL     OW24710   7.055   7.061   2.107  0.5860 -0.6314 -0.6374
 7678SOL    HW124711   7.125   7.121   2.083 -0.2574 -0.3352 -2.3652
 7678SOL    HW224712   7.027   7.091   2.194  0.5713  1.0956 -1.2282
 7679SOL     OW24713   3.180   8.742   0.777  0.0423 -0.0378 -0.2562
 7679SOL    HW124714   3.234   8.728   0.699  0.6660  0.5773  0.0562
 7679SOL    HW224715   3.224   8.691   0.846  0.3945  0.6921  0.0652
 7680SOL     OW24716   6.775   4.961   6.382  0.4988 -0.2419  0.0941
 7680SOL    HW124717   6.863   4.924   6.386  0.1787 -0.9194  0.9464
 7680SOL    HW224718   6.719   4.888   6.358 -0.0855 -0.2210  1.3854
 7681SOL     OW24719   5.410   5.305   0.095 -0.5019 -0.7152 -0.2378
 7681SOL    HW124720   5.478   5.372   0.100 -0.3879 -0.9407  1.3898
 7681SOL    HW224721   5.328   5.355   0.086 -0.3924 -0.3587  0.7145
 7682SOL     OW24722   2.256   6.545   0.886 -0.1555  0.2508 -0.2404
 7682SOL    HW124723   2.305   6.627   0.877  0.7254 -0.5050 -2.8190
 7682SOL    HW224724   2.324   6.479   0.903 -0.3026 -0.6619 -2.9398
 7683SOL     OW24725   0.798   3.731   7.269 -0.3043  0.2478 -0.3577
 7683SOL    HW124726   0.881   3.731   7.318 -1.4349 -0.3510  1.6025
 7683SOL    HW224727   0.794   3.643   7.230  0.9319  0.9566 -2.1802
 7684SOL     OW24728   1.483   2.047   3.854  0.1828 -0.6016 -0.1453
 7684SOL    HW124729   1.525   2.110   3.913 -0.1074  0.2543 -0.8404
 7684SOL    HW224730   1.460   2.098   3.776 -1.5530 -1.1976 -0.0501
 7685SOL     OW24731   1.725   2.805   3.692 -0.0772 -0.0536  0.3362
 7685SOL    HW124732   1.809   2.849   3.701 -0.0310 -0.1143  0.1920
 7685SOL    HW224733   1.663   2.863   3.737 -0.3222  1.0174 -1.3559
 7686SOL     OW24734   0.283   2.798   8.769 -0.1575 -0.0408 -0.0763
 7686SOL    HW124735   0.263   2.748   8.689 -0.4983  1.1357 -0.7353
 7686SOL    HW224736   0.272   2.735   8.839  0.9848 -1.3263 -1.0192
 7687SOL     OW24737   2.897   4.862   5.903 -0.0256  0.4041 -1.0436
 7687SOL    HW124738   2.888   4.951   5.937  1.1546 -0.4177  1.4989
 7687SOL    HW224739   2.990   4.853   5.882 -0.3413  0.1319 -2.4005
 7688SOL     OW24740   6.751   2.259   5.281 -0.1975  0.1769 -0.5829
 7688SOL    HW124741   6.839   2.275   5.317 -0.9154 -1.3676  1.9315
 7688SOL    HW224742   6.758   2.174   5.238 -0.3155  0.3408 -0.9276
 7689SOL     OW24743   9.029   3.754   1.546  0.3867  0.5894 -0.3222
 7689SOL    HW124744   9.023   3.842   1.509  0.9637  0.8126  0.1036
 7689SOL    HW224745   9.090   3.763   1.619 -0.8671  0.1767  0.7799
 7690SOL     OW24746   5.688   8.058   3.381 -0.2575 -0.2142 -0.1234
 7690SOL    HW124747   5.729   7.977   3.413  1.8052 -0.1459 -2.4049
 7690SOL    HW224748   5.610   8.030   3.335  0.1309 -0.8749 -0.3820
 7691SOL     OW24749   0.539   7.172   4.448  0.3764  0.3532 -0.3465
 7691SOL    HW124750   0.485   7.193   4.524 -0.4992  1.4767 -1.2577
 7691SOL    HW224751   0.603   7.109   4.480 -0.3736  0.3534  1.1693
 7692SOL     OW24752   3.625   2.445   3.179  0.0878 -0.4196 -0.1561
 7692SOL    HW124753   3.679   2.484   3.249 -0.6967  1.8723 -0.7748
 7692SOL    HW224754   3.661   2.358   3.167  3.4819  0.9334 -0.3418
 7693SOL     OW24755   9.217   0.097   8.375 -0.3858 -0.0262 -0.2770
 7693SOL    HW124756   9.155   0.090   8.448  0.3047 -0.1575  0.2946
 7693SOL    HW224757   9.178   0.044   8.305 -0.9646 -0.0285  0.0458
 7694SOL     OW24758   8.151   8.450   8.104  0.4886 -0.7608 -0.2470
 7694SOL    HW124759   8.056   8.441   8.098  0.5352 -1.2056 -0.3373
 7694SOL    HW224760   8.168   8.543   8.090 -0.0213 -0.4771  0.9532
 7695SOL     OW24761   7.489   4.575   6.822 -0.0311 -0.2242  0.5058
 7695SOL    HW124762   7.440   4.508   6.774 -1.1946  0.8012  0.2149
 7695SOL    HW224763   7.556   4.527   6.870 -0.7020 -1.5628  0.1196
 7696SOL     OW24764   9.261   7.581   3.760 -0.3308  0.0687  0.4089
 7696SOL    HW124765   9.272   7.582   3.665  1.5821 -0.0094  0.6083
 7696SOL    HW224766   9.282   7.670   3.788 -3.4296  0.8113  0.5310
 7697SOL     OW24767   6.626   4.714   4.894 -0.2898 -1.1485 -0.0521
 7697SOL    HW124768   6.646   4.677   4.980 -0.0392 -2.0148 -0.4831
 7697SOL    HW224769   6.576   4.646   4.849 -0.2784 -0.7633 -0.6534
 7698SOL     OW24770   4.754   0.346   5.315  0.0590  0.1460 -0.5034
 7698SOL    HW124771   4.834   0.352   5.263 -0.3903 -0.3991 -1.2762
 7698SOL    HW224772   4.765   0.266   5.366 -0.2121 -0.2184 -1.0053
 7699SOL     OW24773   3.534   2.980   0.811  0.0741  0.3006  0.3855
 7699SOL    HW124774   3.583   2.899   0.824  1.0038  1.0019  1.3704
 7699SOL    HW224775   3.461   2.974   0.873 -1.2704 -0.8807 -1.2973
 7700SOL     OW24776   3.822   4.428   5.982 -0.0240  0.4975  0.4536
 7700SOL    HW124777   3.897   4.436   6.040 -1.0137  1.3965  1.6285
 7700SOL    HW224778   3.850   4.470   5.901  1.5333 -1.2004  0.0739
 7701SOL     OW24779   3.708   0.654   0.422 -0.1636 -0.4134  0.6084
 7701SOL    HW124780   3.731   0.728   0.479 -0.8647 -0.4216  0.9086
 7701SOL    HW224781   3.635   0.686   0.369  0.1852 -0.5612  0.0339
 7702SOL     OW24782   2.174   8.794   2.951  0.0325  0.8041 -0.4247
 7702SOL    HW124783   2.132   8.858   3.009  0.5580  1.1052 -0.3768
 7702SOL    HW224784   2.268   8.812   2.959  0.1366  0.5036 -0.9673
 7703SOL     OW24785   3.881   4.344   7.420  0.6281 -0.2962  0.0823
 7703SOL    HW124786   3.859   4.251   7.431  1.0864 -0.7289 -2.4490
 7703SOL    HW224787   3.970   4.352   7.455  1.6914 -1.4417 -2.2265
 7704SOL     OW24788   3.043   6.612   1.531 -0.0847 -0.1209  0.0011
 7704SOL    HW124789   2.965   6.607   1.586 -0.0806  0.5793  0.0724
 7704SOL    HW224790   3.010   6.596   1.442 -0.2819 -0.0005  0.0511
 7705SOL     OW24791   6.444   7.189   2.913  0.1659  0.2412  0.1338
 7705SOL    HW124792   6.374   7.207   2.976  1.3491  1.0849  1.2380
 7705SOL    HW224793   6.440   7.094   2.899 -0.1538  0.0479  1.4393
 7706SOL     OW24794   2.202   8.724   5.676 -0.2288 -0.3395 -0.3295
 7706SOL    HW124795   2.211   8.807   5.629  1.3879 -1.0126 -1.2307
 7706SOL    HW224796   2.221   8.746   5.767 -1.1865  0.5421 -0.3353
 7707SOL     OW24797   1.998   4.321   8.289 -0.5340 -0.1208  0.6461
 7707SOL    HW124798   1.997   4.288   8.379 -1.0590 -3.0133 -0.3713
 7707SOL    HW224799   2.074   4.279   8.249  0.7526  2.5338  0.1938
 7708SOL     OW24800   5.589   0.093   0.078 -0.0542 -0.2965 -0.0372
 7708SOL    HW124801   5.602   0.130  -0.010  0.5053 -1.7696 -0.5885
 7708SOL    HW224802   5.495   0.104   0.094 -0.2700 -0.5364 -1.0632
 7709SOL     OW24803   7.190   0.207   3.033  0.1428 -0.3836 -0.2238
 7709SOL    HW124804   7.192   0.123   3.079  0.5137 -0.5801 -0.5931
 7709SOL    HW224805   7.234   0.189   2.950 -0.6637 -0.0714 -0.7181
 7710SOL     OW24806   6.980   6.104   1.836 -0.1950 -0.6841 -0.3589
 7710SOL    HW124807   7.010   6.015   1.855 -1.7490 -0.8960  1.0885
 7710SOL    HW224808   7.035   6.160   1.891 -0.7364 -0.8931  0.3880
 7711SOL     OW24809   7.883   2.892   5.771 -0.3543 -0.4197 -0.2819
 7711SOL    HW124810   7.870   2.828   5.701  1.3930 -0.2010 -0.8464
 7711SOL    HW224811   7.937   2.846   5.835 -0.4937 -0.0519  0.0987
 7712SOL     OW24812   3.893   5.044   1.321  0.3277 -0.4874  0.2772
 7712SOL    HW124813   3.966   5.074   1.266  0.5682  0.9617  1.3642
 7712SOL    HW224814   3.824   5.023   1.258  1.2820 -0.7649 -0.6998
 7713SOL     OW24815   5.491   8.258   1.827  0.3684  0.1635 -0.0913
 7713SOL    HW124816   5.538   8.320   1.771 -0.4377 -0.0999 -1.0692
 7713SOL    HW224817   5.423   8.311   1.869  0.1594  0.0938 -0.3446
 7714SOL     OW24818   1.295   7.523   6.932 -0.1632 -0.1800 -0.8247
 7714SOL    HW124819   1.213   7.514   6.981  2.1725 -0.2916  3.2939
 7714SOL    HW224820   1.311   7.617   6.931  1.1628 -0.3525  1.1393
 7715SOL     OW24821   8.963   4.725   0.438  0.1239  0.2562 -0.2324
 7715SOL    HW124822   9.053   4.719   0.406 -0.7026 -3.1860 -2.1561
 7715SOL    HW224823   8.920   4.785   0.377  0.4342 -0.3138 -1.0214
 7716SOL     OW24824   9.084   7.855   7.415  0.2437 -0.0623 -0.2117
 7716SOL    HW124825   9.027   7.844   7.338 -0.5391 -0.9612  0.4816
 7716SOL    HW224826   9.112   7.946   7.412 -1.0443  0.3212 -0.6992
 7717SOL     OW24827   6.901   6.183   4.246 -0.7285 -0.0313  0.5022
 7717SOL    HW124828   6.919   6.268   4.208  2.7034 -1.8453 -2.2068
 7717SOL    HW224829   6.981   6.159   4.293 -1.1958 -2.2130  0.2682
 7718SOL     OW24830   9.002   3.100   3.119  0.0299 -0.1237 -0.0898
 7718SOL    HW124831   8.944   3.162   3.077 -0.1668  0.0731  0.4637
 7718SOL    HW224832   8.993   3.020   3.067 -1.7405 -0.5061  0.7506
 7719SOL     OW24833   1.655   4.138   6.039  0.0809 -0.6333  0.1889
 7719SOL    HW124834   1.574   4.088   6.047 -0.8610  0.6588 -1.0801
 7719SOL    HW224835   1.646   4.209   6.102  0.1022 -0.3254 -0.1525
 7720SOL     OW24836   4.935   6.968   5.969  0.2438 -0.1463 -0.6676
 7720SOL    HW124837   4.940   6.875   5.988 -0.6351 -0.8085 -3.5216
 7720SOL    HW224838   4.842   6.990   5.980  0.2017  0.0655 -1.4365
 7721SOL     OW24839   1.103   3.738   9.243  0.3697  0.0891 -0.5573
 7721SOL    HW124840   1.092   3.832   9.253 -1.0473  0.0233 -1.3612
 7721SOL    HW224841   1.197   3.723   9.253  0.2565  1.1850  2.8526
 7722SOL     OW24842   4.859   4.698   7.353 -0.8457  0.2006 -0.3376
 7722SOL    HW124843   4.780   4.751   7.362 -2.1857 -2.0616  1.6325
 7722SOL    HW224844   4.906   4.711   7.435  0.0857  0.3078 -0.8748
 7723SOL     OW24845   3.410   9.172   6.287 -0.5801  0.5695  0.5722
 7723SOL    HW124846   3.364   9.171   6.371 -0.1277  0.7624  0.8258
 7723SOL    HW224847   3.388   9.257   6.249 -2.0858 -0.1648 -0.2426
 7724SOL     OW24848   5.955   3.375   5.538  0.0940  0.0133 -0.4009
 7724SOL    HW124849   5.958   3.470   5.525  1.7700 -0.0217 -0.4854
 7724SOL    HW224850   5.928   3.340   5.454  1.7180  0.3142 -1.0806
 7725SOL     OW24851   4.610   0.892   7.210 -0.1137  0.1009 -0.3742
 7725SOL    HW124852   4.702   0.899   7.183 -0.0241 -0.7049 -0.2984
 7725SOL    HW224853   4.592   0.974   7.255  1.3002 -0.7553  1.8254
 7726SOL     OW24854   7.753   7.070   5.432  0.2694 -0.3950 -0.2240
 7726SOL    HW124855   7.815   7.047   5.501  0.1187  3.7556  1.4441
 7726SOL    HW224856   7.809   7.097   5.359  0.4546  0.6906  0.3084
 7727SOL     OW24857   0.609   1.853   4.617  0.5751 -0.1002  0.4044
 7727SOL    HW124858   0.579   1.924   4.674  0.9795 -1.3572  2.2278
 7727SOL    HW224859   0.698   1.879   4.592  0.4839  0.3574  0.5431
 7728SOL     OW24860   8.421   7.727   2.813 -0.1141 -0.1095 -0.0067
 7728SOL    HW124861   8.487   7.754   2.876  1.0704  0.5803 -1.5051
 7728SOL    HW224862   8.441   7.635   2.794  1.0257  0.3612 -1.1637
 7729SOL     OW24863   4.502   1.405   6.474 -0.2586 -0.5006  0.0632
 7729SOL    HW124864   4.435   1.337   6.486 -0.8930  0.2128  0.5386
 7729SOL    HW224865   4.584   1.357   6.478 -0.6762 -1.1538  1.0986
 7730SOL     OW24866   8.542   2.951   2.145  0.0689 -0.6618 -0.0528
 7730SOL    HW124867   8.537   3.044   2.122 -1.1821 -0.6977  0.0661
 7730SOL    HW224868   8.490   2.906   2.079  0.0989 -1.2108  0.2890
 7731SOL     OW24869   2.020   0.444   6.937 -0.7988 -0.1740  0.3222
 7731SOL    HW124870   2.079   0.435   7.012 -0.1330 -0.7972 -0.2719
 7731SOL    HW224871   2.070   0.495   6.874 -0.5597 -1.4337 -0.5228
 7732SOL     OW24872   5.572   1.297   2.298  0.1826 -0.6902  0.3746
 7732SOL    HW124873   5.515   1.221   2.310 -0.4168 -0.3647 -0.3697
 7732SOL    HW224874   5.642   1.266   2.241  0.7768 -1.1024  1.3225
 7733SOL     OW24875   2.502   7.551   8.883  0.2020  0.2255  0.0256
 7733SOL    HW124876   2.575   7.613   8.885 -0.0803  0.5870 -0.6374
 7733SOL    HW224877   2.479   7.543   8.791 -0.9224  0.5200  0.2598
 7734SOL     OW24878   2.963   4.461   4.996  0.2161  0.1202  0.1448
 7734SOL    HW124879   2.899   4.532   4.996 -0.0412 -0.1137  0.0036
 7734SOL    HW224880   2.921   4.390   5.044  0.8485  0.3991  1.1428
 7735SOL     OW24881   6.595   8.678   3.529  0.4128  0.0059  0.0722
 7735SOL    HW124882   6.617   8.661   3.621 -1.5891  0.8953  0.7496
 7735SOL    HW224883   6.551   8.599   3.500 -0.4148  0.3360  0.3925
 7736SOL     OW24884   7.626   5.883   7.064 -0.1680 -0.3577 -0.1462
 7736SOL    HW124885   7.547   5.854   7.017 -0.2328 -0.3986 -0.0118
 7736SOL    HW224886   7.648   5.810   7.121  0.4141 -0.6505 -0.7412
 7737SOL     OW24887   7.177   4.213   5.260 -0.1974 -0.4154  0.2835
 7737SOL    HW124888   7.128   4.132   5.273 -0.9093  0.0714  0.6398
 7737SOL    HW224889   7.123   4.265   5.201  0.6555 -0.5363 -0.6267
 7738SOL     OW24890   0.469   1.656   2.373 -0.0915 -0.3220 -0.1336
 7738SOL    HW124891   0.555   1.618   2.387 -0.1755 -0.5636 -0.2743
 7738SOL    HW224892   0.471   1.740   2.420  0.0696 -0.5294  0.2248
 7739SOL     OW24893   6.492   2.510   2.465  0.2633 -0.1345  0.3069
 7739SOL    HW124894   6.424   2.448   2.439 -0.0693  0.0812  0.6514
 7739SOL    HW224895   6.572   2.458   2.470  0.3735 -0.1317 -1.3338
 7740SOL     OW24896   8.655   0.205   4.729  0.3183 -0.1825  0.5465
 7740SOL    HW124897   8.570   0.241   4.754 -0.2939  0.4888 -2.3186
 7740SOL    HW224898   8.647   0.111   4.744 -1.7702 -0.4228 -1.8376
 7741SOL     OW24899   8.937   2.024   0.086  0.4866  0.3015 -0.0318
 7741SOL    HW124900   8.860   2.082   0.087  0.0656 -0.1613 -2.0761
 7741SOL    HW224901   8.942   1.990   0.175 -1.5135  0.5941  0.2357
 7742SOL     OW24902   8.525   7.315   5.004 -0.6159 -0.4661  0.0761
 7742SOL    HW124903   8.518   7.307   4.909 -0.5150  0.7900 -0.0503
 7742SOL    HW224904   8.496   7.405   5.022 -0.0993 -0.5146  1.1709
 7743SOL     OW24905   0.930   3.376   6.813 -0.6476 -0.2901  0.6082
 7743SOL    HW124906   0.943   3.327   6.893 -1.0113 -1.2671  0.0715
 7743SOL    HW224907   0.866   3.444   6.837 -1.2936 -1.0166  0.9744
 7744SOL     OW24908   8.223   7.260   1.928  0.5646  0.2187  0.1735
 7744SOL    HW124909   8.166   7.302   1.992  1.1608 -0.0344  0.8766
 7744SOL    HW224910   8.287   7.211   1.981  0.1553 -1.2005 -0.6120
 7745SOL     OW24911   2.410   1.960   7.279 -0.2169  0.1652  0.6987
 7745SOL    HW124912   2.460   2.014   7.340 -2.1426 -0.8536  3.2522
 7745SOL    HW224913   2.342   2.018   7.245 -0.1995  0.2545  0.8169
 7746SOL     OW24914   9.209   8.828   7.475  0.3060 -0.9065  0.4400
 7746SOL    HW124915   9.232   8.808   7.384 -0.8621  0.0678 -0.0776
 7746SOL    HW224916   9.146   8.760   7.500  1.3515 -1.7433  0.8494
 7747SOL     OW24917   7.399   3.819   4.638  0.1133 -0.2077 -0.1828
 7747SOL    HW124918   7.308   3.850   4.638  0.5511  1.1453 -1.9444
 7747SOL    HW224919   7.401   3.754   4.567  0.1821 -1.2988  0.8112
 7748SOL     OW24920   8.614   3.464   4.705 -0.1249 -0.0728  0.0299
 7748SOL    HW124921   8.634   3.371   4.716  0.2640  0.0694  0.5365
 7748SOL    HW224922   8.612   3.499   4.794 -1.1194  0.2299 -0.0983
 7749SOL     OW24923   1.687   4.321   4.105  0.2708 -0.6045 -0.2516
 7749SOL    HW124924   1.697   4.231   4.137 -0.1510  0.1209  1.9726
 7749SOL    HW224925   1.617   4.358   4.159  0.0551  0.9065 -1.5255
 7750SOL     OW24926   5.664   6.590   3.132  0.5238  0.6113 -0.2900
 7750SOL    HW124927   5.622   6.626   3.054  0.3375  0.8861 -0.0640
 7750SOL    HW224928   5.601   6.606   3.203  0.9512  0.9037  0.0240
 7751SOL     OW24929   2.100   3.319   6.407  0.3005  0.3705 -0.0319
 7751SOL    HW124930   2.081   3.412   6.393  0.6800  0.3479 -0.6840
 7751SOL    HW224931   2.088   3.279   6.320  0.4517 -0.1375  0.1826
 7752SOL     OW24932   5.565   6.492   9.023  0.1857 -0.0409  0.3456
 7752SOL    HW124933   5.566   6.574   9.073 -0.3360 -0.0905  0.4394
 7752SOL    HW224934   5.629   6.436   9.067 -0.0941  0.0063  0.8103
 7753SOL     OW24935   4.765   8.157   8.550 -0.2225  0.3630  0.0523
 7753SOL    HW124936   4.736   8.066   8.550  0.2751  0.1780 -1.9365
 7753SOL    HW224937   4.814   8.167   8.632 -0.5740 -1.0699  0.4404
 7754SOL     OW24938   5.471   4.321   8.359 -0.0574  0.1185  0.0251
 7754SOL    HW124939   5.534   4.264   8.404 -1.6306 -0.5753  1.4327
 7754SOL    HW224940   5.439   4.379   8.428  0.5009  1.7835 -1.1142
 7755SOL     OW24941   1.752   2.177   0.800 -0.7586 -0.2310  0.1685
 7755SOL    HW124942   1.680   2.228   0.838  0.3517 -0.7605  3.1509
 7755SOL    HW224943   1.821   2.241   0.786 -0.4449 -0.3593  1.0525
 7756SOL     OW24944   1.710   2.995   4.164 -0.0133  0.1459 -0.0142
 7756SOL    HW124945   1.770   3.069   4.173  0.7868 -0.4076 -0.6977
 7756SOL    HW224946   1.672   3.005   4.077  0.2273 -0.3393 -0.1774
 7757SOL     OW24947   7.732   1.898   2.699 -0.0741 -0.6240 -0.2380
 7757SOL    HW124948   7.790   1.974   2.699 -3.3579  2.1039 -3.3092
 7757SOL    HW224949   7.771   1.838   2.635  0.3485  0.3389 -0.8946
 7758SOL     OW24950   8.858   2.588   3.178 -0.6616  0.0639  0.0167
 7758SOL    HW124951   8.828   2.631   3.098 -0.3701 -0.4061 -0.3445
 7758SOL    HW224952   8.783   2.535   3.206 -0.9099  0.5454  0.2868
 7759SOL     OW24953   6.577   3.109   6.272  0.2149  0.4398  0.0309
 7759SOL    HW124954   6.614   3.197   6.259  1.8835 -0.1720  0.5805
 7759SOL    HW224955   6.502   3.107   6.213 -0.8777  2.8506  1.2427
 7760SOL     OW24956   2.156   1.345   6.505 -0.2639  0.1292  0.7092
 7760SOL    HW124957   2.094   1.330   6.434 -1.0427  1.1944  1.1658
 7760SOL    HW224958   2.177   1.257   6.537 -2.8623 -0.1752  1.6960
 7761SOL     OW24959   2.479   9.092   6.685  0.4041 -0.1869 -0.2139
 7761SOL    HW124960   2.449   9.043   6.609  0.7529  1.8660 -1.7238
 7761SOL    HW224961   2.399   9.116   6.732  0.2795 -3.2035  1.2571
 7762SOL     OW24962   4.111   5.932   2.847  0.4213  0.0198  0.0144
 7762SOL    HW124963   4.145   5.965   2.763  1.3142 -1.4817 -0.2366
 7762SOL    HW224964   4.026   5.894   2.824  0.1798  0.5622 -0.0086
 7763SOL     OW24965   6.019   8.312   6.002  0.6177  0.1911 -0.0930
 7763SOL    HW124966   6.109   8.337   5.982  0.7636 -1.0027 -0.9664
 7763SOL    HW224967   6.026   8.221   6.033 -0.3236 -0.0072 -0.4670
 7764SOL     OW24968   1.216   2.688   0.813  0.5153  0.1469 -0.6615
 7764SOL    HW124969   1.297   2.640   0.832  1.5124  1.7901 -0.6697
 7764SOL    HW224970   1.172   2.635   0.747  2.6284  0.3306 -2.2591
 7765SOL     OW24971   0.894   0.092   2.028 -0.5559 -0.4017 -0.1799
 7765SOL    HW124972   0.851   0.087   1.943 -0.6886 -1.2573 -0.0663
 7765SOL    HW224973   0.826   0.122   2.088 -0.6610 -0.5392 -0.2323
 7766SOL     OW24974   8.773   8.495   6.093  0.4996 -0.1605 -0.3662
 7766SOL    HW124975   8.821   8.576   6.072  1.0595 -0.6746 -1.0743
 7766SOL    HW224976   8.683   8.513   6.064  0.3678  0.5987  0.4625
 7767SOL     OW24977   9.042   2.350   8.521 -0.1547 -0.1739  0.3889
 7767SOL    HW124978   9.061   2.344   8.615  0.5649  0.0543  0.2658
 7767SOL    HW224979   9.062   2.263   8.486  0.0731 -0.1084  0.3587
 7768SOL     OW24980   3.484   0.578   4.861  0.1174 -0.3701 -0.0950
 7768SOL    HW124981   3.430   0.648   4.826  1.0076  0.4196  0.1109
 7768SOL    HW224982   3.434   0.498   4.843 -0.9580  0.3220 -0.2028
 7769SOL     OW24983   0.117   1.365   6.783  0.5305  0.1908 -0.7673
 7769SOL    HW124984   0.177   1.326   6.847 -0.4556  0.0183  0.0681
 7769SOL    HW224985   0.046   1.301   6.775 -0.5719  1.3182 -0.1814
 7770SOL     OW24986   5.866   1.002   6.112  0.4718  0.2408 -0.3988
 7770SOL    HW124987   5.850   0.938   6.182  0.0178 -0.3689 -1.0529
 7770SOL    HW224988   5.891   0.949   6.036 -2.6511  0.5978 -1.7697
 7771SOL     OW24989   6.706   6.171   2.399  0.4530  0.5453  0.0852
 7771SOL    HW124990   6.793   6.152   2.434  0.1604 -0.1783  0.4245
 7771SOL    HW224991   6.646   6.142   2.467 -0.1559 -1.6763 -1.3572
 7772SOL     OW24992   8.863   5.760   0.101 -0.1425  0.1228 -0.3648
 7772SOL    HW124993   8.899   5.692   0.044  1.3325 -0.4214  1.1511
 7772SOL    HW224994   8.854   5.837   0.045 -1.5922 -1.2500 -2.0506
 7773SOL     OW24995   3.924   5.793   8.762 -0.1347  0.8816  0.0423
 7773SOL    HW124996   3.962   5.735   8.828  0.0403  2.4264  1.3300
 7773SOL    HW224997   3.839   5.753   8.741  0.5208 -0.5027 -0.0105
 7774SOL     OW24998   0.086   5.317   5.069 -0.6803  0.1383  0.5493
 7774SOL    HW124999   0.136   5.393   5.040 -0.8731 -0.3017 -0.9631
 7774SOL    HW225000   0.132   5.242   5.032 -0.4201 -0.4998  2.1366
 7775SOL     OW25001   4.934   1.979   0.851 -0.6891  0.0596  0.1556
 7775SOL    HW125002   5.024   2.010   0.865 -0.1213 -0.7244 -1.6395
 7775SOL    HW225003   4.891   1.992   0.936  0.3243  3.0644  0.2711
 7776SOL     OW25004   1.983   2.986   1.409 -0.2165 -0.2920  0.1324
 7776SOL    HW125005   2.078   2.975   1.395 -0.1971 -1.0249  0.7891
 7776SOL    HW225006   1.943   2.920   1.351 -0.4816  2.0896 -2.5316
 7777SOL     OW25007   3.841   5.304   7.493 -0.0582 -0.2290 -0.6736
 7777SOL    HW125008   3.763   5.360   7.496 -0.6984 -1.1339  0.1696
 7777SOL    HW225009   3.808   5.219   7.464  0.1477 -1.3064  2.0344
 7778SOL     OW25010   1.405   4.720   9.060 -0.2259 -0.6917  0.1427
 7778SOL    HW125011   1.336   4.730   8.995  1.7729  0.8528 -1.8643
 7778SOL    HW225012   1.453   4.641   9.032 -0.7754 -1.3874  1.1413
 7779SOL     OW25013   2.551   2.905   2.627 -0.2033 -0.0930 -0.2991
 7779SOL    HW125014   2.589   2.966   2.690  1.3331  0.2714 -1.5703
 7779SOL    HW225015   2.535   2.958   2.549 -0.6249 -0.8942 -0.7624
 7780SOL     OW25016   6.295   3.486   5.878  0.1201  0.4530  0.5583
 7780SOL    HW125017   6.268   3.535   5.800  0.4253 -0.0117  0.1569
 7780SOL    HW225018   6.314   3.398   5.845  0.4983  0.3270  1.1182
 7781SOL     OW25019   7.679   5.251   2.639  0.5284 -0.0776 -0.6149
 7781SOL    HW125020   7.681   5.344   2.614 -1.9366 -0.0191 -0.7611
 7781SOL    HW225021   7.721   5.249   2.725  0.3400  1.2383 -0.4717
 7782SOL     OW25022   0.254   1.564   4.745  0.1459  0.6775 -0.0105
 7782SOL    HW125023   0.182   1.569   4.808 -1.0016 -1.6292 -1.0582
 7782SOL    HW225024   0.213   1.528   4.666  2.3932 -0.3853 -0.7273
 7783SOL     OW25025   8.711   4.120   8.665  0.0046 -0.0268  0.7156
 7783SOL    HW125026   8.617   4.133   8.656  0.2058 -0.7490 -2.8514
 7783SOL    HW225027   8.748   4.209   8.663 -0.3654  0.0933 -1.0632
 7784SOL     OW25028   2.624   1.722   3.671 -0.1251  0.1209 -0.1285
 7784SOL    HW125029   2.588   1.693   3.755  0.1930  2.1218  0.7268
 7784SOL    HW225030   2.711   1.680   3.667 -0.4751 -0.6376  0.1483
 7785SOL     OW25031   3.722   7.150   7.431  0.2334  0.1685  0.0305
 7785SOL    HW125032   3.720   7.192   7.345 -3.0102  2.9286  1.3308
 7785SOL    HW225033   3.726   7.223   7.493  1.0213 -1.7156  2.2822
 7786SOL     OW25034   7.575   0.354   2.392 -0.0748  0.0980  0.3768
 7786SOL    HW125035   7.547   0.288   2.456  0.9406 -1.3720 -0.6637
 7786SOL    HW225036   7.649   0.399   2.434 -0.0444 -0.1927  0.6363
 7787SOL     OW25037   0.652   8.541   3.434 -0.2602  0.6492 -0.2761
 7787SOL    HW125038   0.637   8.475   3.366 -1.6153 -0.9564  1.5340
 7787SOL    HW225039   0.568   8.584   3.446  0.0108  1.0433  0.2661
 7788SOL     OW25040   5.774   8.743   2.937  0.0264  0.0956  0.5312
 7788SOL    HW125041   5.788   8.838   2.937 -1.1763  0.2936  1.1354
 7788SOL    HW225042   5.711   8.729   2.866  0.6812 -0.3323  0.0335
 7789SOL     OW25043   6.073   8.880   1.187  0.4798  0.2452 -0.8676
 7789SOL    HW125044   5.980   8.866   1.204  0.7677 -1.1394 -0.3896
 7789SOL    HW225045   6.089   8.970   1.215 -0.8959  0.7849 -1.7371
 7790SOL     OW25046   1.847   5.206   2.327  0.3947  0.3239  0.0842
 7790SOL    HW125047   1.921   5.185   2.384 -0.2821  1.2639  1.3460
 7790SOL    HW225048   1.778   5.147   2.355  0.7123 -0.7193 -1.2558
 7791SOL     OW25049   7.981   0.551   4.758  0.4975 -0.2829  0.2838
 7791SOL    HW125050   8.006   0.633   4.716  1.9882 -1.0908 -0.4446
 7791SOL    HW225051   7.894   0.569   4.795  1.1324  1.8658  0.8328
 7792SOL     OW25052   6.212   8.289   2.115  0.2681 -0.0086  0.1910
 7792SOL    HW125053   6.201   8.301   2.020 -1.3279 -0.3966  0.3044
 7792SOL    HW225054   6.175   8.203   2.132 -1.0812  0.7862  1.4109
 7793SOL     OW25055   2.144   1.910   8.094  0.5897 -0.0067 -0.3267
 7793SOL    HW125056   2.120   1.999   8.122 -1.4447 -0.9693  1.0763
 7793SOL    HW225057   2.153   1.861   8.176 -0.2668 -1.5911 -1.1820
 7794SOL     OW25058   1.156   1.661   4.693 -0.0205 -0.5739  0.4896
 7794SOL    HW125059   1.159   1.756   4.684  1.6713 -0.7085 -0.6707
 7794SOL    HW225060   1.130   1.628   4.607  1.5293 -1.2363  0.2522
 7795SOL     OW25061   1.352   5.684   0.620 -0.2551  0.5241 -0.1612
 7795SOL    HW125062   1.407   5.740   0.565 -1.4045  1.7640 -0.0541
 7795SOL    HW225063   1.365   5.596   0.584  0.4907  1.0400 -1.1998
 7796SOL     OW25064   7.433   7.563   5.042  0.3931 -0.0212  0.3771
 7796SOL    HW125065   7.397   7.607   4.965  1.2112  1.7970  1.0079
 7796SOL    HW225066   7.522   7.540   5.017  1.0659  1.6301  1.1404
 7797SOL     OW25067   5.357   5.570   5.519  0.1900 -0.5815 -0.4231
 7797SOL    HW125068   5.276   5.530   5.549  0.5902 -0.6881  0.5142
 7797SOL    HW225069   5.387   5.513   5.448 -0.2507 -0.8598 -0.3859
 7798SOL     OW25070   2.665   5.675   1.785 -0.5009 -0.2688  0.2594
 7798SOL    HW125071   2.612   5.742   1.742  0.3803  0.2137 -0.0878
 7798SOL    HW225072   2.640   5.593   1.740 -2.1644 -0.3216  1.2232
 7799SOL     OW25073   7.487   5.792   7.692  0.5892 -0.5338  0.2620
 7799SOL    HW125074   7.549   5.722   7.670  2.3738  0.8669  0.7251
 7799SOL    HW225075   7.524   5.833   7.770 -0.2049  1.2374 -0.2646
 7800SOL     OW25076   6.813   6.898   4.422  0.2109 -0.1086 -0.2518
 7800SOL    HW125077   6.760   6.968   4.460  1.6060 -0.5436  2.6440
 7800SOL    HW225078   6.757   6.820   4.427 -0.5022  0.3090 -1.3952
 7801SOL     OW25079   2.849   6.450   1.342  0.0728  0.0007  0.0324
 7801SOL    HW125080   2.856   6.404   1.258  0.8370 -1.5532  0.9281
 7801SOL    HW225081   2.870   6.384   1.408 -0.1744  1.2903  1.4409
 7802SOL     OW25082   6.066   8.333   3.240 -0.1825  0.3061 -0.4210
 7802SOL    HW125083   6.073   8.257   3.182 -1.6875  1.5883 -2.3600
 7802SOL    HW225084   5.975   8.362   3.230  0.4155  2.4492  0.1590
 7803SOL     OW25085   6.641   2.516   3.611  0.0058 -0.2894  0.4729
 7803SOL    HW125086   6.570   2.480   3.557  0.8941  0.2198 -1.0651
 7803SOL    HW225087   6.718   2.466   3.587  0.4029 -0.0946  1.3197
 7804SOL     OW25088   6.493   0.889   1.537 -0.3171  0.2324  0.1805
 7804SOL    HW125089   6.418   0.893   1.477 -0.8156 -0.2131  0.7677
 7804SOL    HW225090   6.555   0.831   1.493 -0.7036 -0.1348  0.1149
 7805SOL     OW25091   5.296   9.029   1.832 -0.0525  0.6439 -0.4950
 7805SOL    HW125092   5.323   8.984   1.912 -0.1961  0.5111 -0.5225
 7805SOL    HW225093   5.277   9.119   1.860 -2.1037  0.0735 -0.0166
 7806SOL     OW25094   6.263   1.013   7.119  1.1920  0.0162 -0.1607
 7806SOL    HW125095   6.181   0.989   7.076  0.7470  0.8284  0.2194
 7806SOL    HW225096   6.332   0.975   7.064  0.5653 -0.6320 -0.5071
 7807SOL     OW25097   3.607   0.370   5.192 -0.4251 -0.5258  0.4025
 7807SOL    HW125098   3.621   0.427   5.268 -0.5772  0.6585 -0.4399
 7807SOL    HW225099   3.579   0.286   5.230 -1.3794  0.3107  1.6221
 7808SOL     OW25100   4.006   1.070   5.141 -0.3303 -0.0229 -0.8564
 7808SOL    HW125101   4.022   0.983   5.103  1.1869  0.7294 -2.0048
 7808SOL    HW225102   4.047   1.131   5.079  2.1125  1.2604  1.8775
 7809SOL     OW25103   5.147   3.900   7.347 -0.2342 -0.0025 -0.0112
 7809SOL    HW125104   5.071   3.842   7.343 -1.1832  1.2106  0.0700
 7809SOL    HW225105   5.121   3.977   7.298  0.9865  0.3959 -0.0520
 7810SOL     OW25106   2.511   4.109   5.951  0.6026 -0.0100 -0.4689
 7810SOL    HW125107   2.569   4.179   5.921 -1.0335  0.1183 -3.5837
 7810SOL    HW225108   2.431   4.154   5.977 -0.0681 -0.5834 -1.4706
 7811SOL     OW25109   1.490   4.381   8.184  0.0946  0.6117 -0.3635
 7811SOL    HW125110   1.400   4.353   8.197  0.4000 -1.0126 -1.5790
 7811SOL    HW225111   1.542   4.323   8.239  0.5261  0.4099 -0.9737
 7812SOL     OW25112   4.015   2.533   8.162 -0.3114 -0.3758  0.1388
 7812SOL    HW125113   3.958   2.459   8.142 -1.0477  0.0006  0.7982
 7812SOL    HW225114   3.996   2.597   8.094  3.2625 -2.2890 -2.9053
 7813SOL     OW25115   0.249   1.695   7.866 -0.1127 -0.2074 -0.4421
 7813SOL    HW125116   0.203   1.617   7.836 -0.0413  0.1629 -1.5521
 7813SOL    HW225117   0.300   1.723   7.789  0.0044  0.8150  0.0072
 7814SOL     OW25118   5.520   3.850   1.508  0.0473  0.1942  0.3370
 7814SOL    HW125119   5.435   3.850   1.465 -0.2683 -0.5675  0.9479
 7814SOL    HW225120   5.501   3.864   1.601  0.5744 -0.0596  0.4889
 7815SOL     OW25121   7.412   5.282   1.545 -0.1913  0.3581  0.0999
 7815SOL    HW125122   7.396   5.266   1.451 -0.4841  0.1815  0.1757
 7815SOL    HW225123   7.507   5.292   1.552 -0.1411  0.1135 -0.1807
 7816SOL     OW25124   7.198   6.038   0.402 -0.0665 -0.2971  0.1566
 7816SOL    HW125125   7.280   6.041   0.452 -1.0111  0.4775  1.7000
 7816SOL    HW225126   7.151   6.118   0.428 -0.5910  0.1187 -1.9732
 7817SOL     OW25127   7.020   5.592   0.056  0.1299 -0.4543  0.2622
 7817SOL    HW125128   7.067   5.649  -0.006  1.0110  1.4308  2.5900
 7817SOL    HW225129   6.930   5.625   0.054 -0.1433 -1.2271 -0.9262
 7818SOL     OW25130   4.014   1.606   9.049 -0.7204  0.2577  0.1654
 7818SOL    HW125131   4.053   1.596   9.137 -1.6624 -0.9666  0.4487
 7818SOL    HW225132   3.921   1.589   9.062 -0.5890 -1.8242 -1.3977
 7819SOL     OW25133   5.486   0.820   3.518  0.5386  0.2291 -0.1056
 7819SOL    HW125134   5.504   0.831   3.425  1.9465 -1.1831 -0.0169
 7819SOL    HW225135   5.510   0.729   3.537 -0.6440  0.2073  1.4279
 7820SOL     OW25136   2.381   3.421   5.123 -0.2437 -0.0849 -0.2084
 7820SOL    HW125137   2.467   3.445   5.158  0.3463 -0.1327 -1.6117
 7820SOL    HW225138   2.382   3.325   5.120 -0.8234 -0.1394  0.9318
 7821SOL     OW25139   2.934   7.169   6.754 -0.2786 -0.3102  0.1154
 7821SOL    HW125140   3.016   7.179   6.803  0.7898 -1.5512 -1.3676
 7821SOL    HW225141   2.880   7.243   6.783  0.6090 -0.5596  2.5561
 7822SOL     OW25142   4.072   4.064   1.087 -0.0831 -0.5287 -0.0534
 7822SOL    HW125143   4.127   3.986   1.088 -1.1783 -1.3134 -0.0094
 7822SOL    HW225144   3.982   4.030   1.089 -0.5727  0.7225 -0.3229
 7823SOL     OW25145   0.691   1.699   0.531 -0.3703 -0.3410  0.3492
 7823SOL    HW125146   0.652   1.627   0.582 -0.3867  0.5577  1.6093
 7823SOL    HW225147   0.686   1.668   0.440 -2.2844 -1.0700  0.6628
 7824SOL     OW25148   1.101   4.898   6.960 -0.0617  0.4266  0.0166
 7824SOL    HW125149   1.186   4.935   6.937 -0.0406  0.2650 -0.1639
 7824SOL    HW225150   1.096   4.816   6.910 -0.7280  0.9057 -0.7006
 7825SOL     OW25151   0.069   0.593   8.325 -0.6781 -0.0473 -0.4541
 7825SOL    HW125152   0.045   0.593   8.417  0.4198  0.0490 -0.1555
 7825SOL    HW225153   0.080   0.501   8.302  1.3102  0.0130  0.1423
 7826SOL     OW25154   0.124   1.281   8.601 -0.1503  0.1044 -0.2213
 7826SOL    HW125155   0.152   1.360   8.649 -0.7476 -0.1162  0.5103
 7826SOL    HW225156   0.122   1.308   8.510 -1.0922  1.1738  0.1033
 7827SOL     OW25157   7.653   5.516   7.144  0.0704  0.4261 -0.4227
 7827SOL    HW125158   7.578   5.565   7.177  0.0573  0.4971 -0.5553
 7827SOL    HW225159   7.729   5.568   7.172  0.1357 -0.3480  0.8735
 7828SOL     OW25160   4.772   4.122   8.800  0.1692  0.9348 -0.2064
 7828SOL    HW125161   4.734   4.034   8.798 -1.1012  1.4837 -1.0258
 7828SOL    HW225162   4.866   4.108   8.795  0.0661 -0.4502  1.4219
 7829SOL     OW25163   2.520   3.393   1.620  0.0157 -0.0450 -0.8710
 7829SOL    HW125164   2.584   3.463   1.604  0.2069 -0.0705 -0.2212
 7829SOL    HW225165   2.561   3.314   1.584  1.5690 -0.6102  1.9655
 7830SOL     OW25166   8.078   4.463   8.648 -0.0731  0.1625 -1.4080
 7830SOL    HW125167   8.116   4.523   8.584  0.9577 -0.8696 -1.7917
 7830SOL    HW225168   8.039   4.520   8.714  1.9673  1.2784 -1.1119
 7831SOL     OW25169   9.215   6.035   5.703 -0.1774 -0.0134 -0.2459
 7831SOL    HW125170   9.225   5.960   5.644 -0.1184  0.5170 -0.9149
 7831SOL    HW225171   9.137   6.080   5.671  0.2252  0.6380 -0.3292
 7832SOL     OW25172   8.729   1.680   0.453 -0.4076  0.2285 -0.3364
 7832SOL    HW125173   8.756   1.590   0.467  1.3205  0.7406 -0.3430
 7832SOL    HW225174   8.809   1.731   0.457 -1.1569  1.5946 -1.9105
 7833SOL     OW25175   1.981   2.651   0.058  0.0851  0.9559 -0.1226
 7833SOL    HW125176   2.057   2.708   0.074 -0.4138  1.4015  0.6842
 7833SOL    HW225177   2.015   2.562   0.066  0.8482  1.1280 -1.2809
 7834SOL     OW25178   5.147   7.731   5.067  0.4954  0.0268  0.0595
 7834SOL    HW125179   5.072   7.781   5.100  0.6296  0.1844  0.1262
 7834SOL    HW225180   5.221   7.762   5.119  1.2166  2.2993 -2.2385
 7835SOL     OW25181   7.821   3.224   6.075 -0.6968  0.5197 -0.3096
 7835SOL    HW125182   7.727   3.226   6.056 -0.6648 -1.5155 -0.8199
 7835SOL    HW225183   7.826   3.219   6.171 -1.1345 -0.4040 -0.3337
 7836SOL     OW25184   6.367   3.882   3.635  0.0322 -0.5584  0.4891
 7836SOL    HW125185   6.276   3.895   3.608  0.3524  0.0463 -0.2999
 7836SOL    HW225186   6.391   3.796   3.600 -0.8056 -1.5755  2.2841
 7837SOL     OW25187   0.645   0.041   0.439  0.2227  0.0578  0.1589
 7837SOL    HW125188   0.731  -0.001   0.448  1.1707  1.1646 -2.7969
 7837SOL    HW225189   0.657   0.127   0.479 -0.0294 -0.4093  1.2490
 7838SOL     OW25190   8.665   9.203   0.269 -0.1933 -0.0435  0.4054
 7838SOL    HW125191   8.750   9.234   0.298 -0.8328  0.7792  1.4154
 7838SOL    HW225192   8.656   9.116   0.309  1.1558 -1.1499 -1.6019
 7839SOL     OW25193   7.891   8.440   0.594  0.0851  0.0815 -0.0200
 7839SOL    HW125194   7.965   8.501   0.592 -0.3611  0.6066 -1.7451
 7839SOL    HW225195   7.909   8.378   0.523 -0.7243 -0.2755  0.0766
 7840SOL     OW25196   0.240   0.780   1.773  0.3097 -0.1388 -0.7541
 7840SOL    HW125197   0.183   0.725   1.827 -0.1827  1.2899  0.2442
 7840SOL    HW225198   0.196   0.783   1.688 -0.3662 -0.2089 -0.4180
 7841SOL     OW25199   4.919   5.595   3.741 -0.0952  0.1224 -0.1173
 7841SOL    HW125200   4.950   5.682   3.715 -0.2849  0.5418  1.0532
 7841SOL    HW225201   4.998   5.540   3.740  0.7978  1.2779  3.2629
 7842SOL     OW25202   0.293   4.480   4.723  0.1763 -0.4324 -0.7710
 7842SOL    HW125203   0.260   4.570   4.732  2.5538  0.3904  0.2642
 7842SOL    HW225204   0.215   4.426   4.720 -1.2655  1.4002  1.8457
 7843SOL     OW25205   8.881   6.149   8.285 -0.0208 -0.2754 -0.3703
 7843SOL    HW125206   8.916   6.182   8.367 -0.9835  0.7674 -0.3712
 7843SOL    HW225207   8.958   6.117   8.237  0.7202  0.4671  0.3189
 7844SOL     OW25208   4.979   8.673   4.947 -0.0044  0.4346 -0.4064
 7844SOL    HW125209   4.994   8.616   5.022 -1.2747  1.2202  0.4756
 7844SOL    HW225210   5.017   8.757   4.972  1.1051  0.2214 -1.3528
 7845SOL     OW25211   0.062   5.577   3.109 -0.1608 -0.1508  0.0974
 7845SOL    HW125212   0.148   5.618   3.100 -0.2890  0.2805  0.8342
 7845SOL    HW225213   0.001   5.650   3.119 -0.6108 -0.4577 -0.4081
 7846SOL     OW25214   1.946   3.770   9.269 -0.0141  0.7295 -0.2751
 7846SOL    HW125215   2.038   3.793   9.256  0.6088 -0.9109  1.0288
 7846SOL    HW225216   1.935   3.766   9.364 -1.2050  0.0722 -0.4267
 7847SOL     OW25217   4.117   0.006   5.875 -0.3399 -0.4766  0.3068
 7847SOL    HW125218   4.109  -0.077   5.923 -1.9599  0.5791  1.9405
 7847SOL    HW225219   4.182   0.055   5.925 -1.3849  0.2842  0.9365
 7848SOL     OW25220   1.268   4.318   1.653 -0.6213  0.1281  0.5556
 7848SOL    HW125221   1.337   4.351   1.710 -0.6256  0.0884  0.5840
 7848SOL    HW225222   1.249   4.231   1.686 -1.3371  0.5019  1.1387
 7849SOL     OW25223   3.072   6.747   2.551 -0.5097 -0.1731 -0.0934
 7849SOL    HW125224   3.015   6.771   2.478  0.0315  0.7095 -0.2329
 7849SOL    HW225225   3.096   6.656   2.533 -1.7618 -0.5129 -0.1002
 7850SOL     OW25226   5.850   3.129   4.037  0.8284  0.6658  0.9213
 7850SOL    HW125227   5.811   3.042   4.027  0.3043  1.0705 -0.6672
 7850SOL    HW225228   5.942   3.116   4.015  0.6010  0.6564 -0.0302
 7851SOL     OW25229   7.283   3.554   6.642 -0.5460 -0.3378 -0.0764
 7851SOL    HW125230   7.191   3.569   6.622 -0.4046  0.1110 -0.4022
 7851SOL    HW225231   7.318   3.512   6.563 -0.0139  1.3159 -0.7476
 7852SOL     OW25232   1.486   0.698   3.764 -0.6129 -0.1567  0.2309
 7852SOL    HW125233   1.505   0.780   3.810  0.0812  0.0491 -0.4214
 7852SOL    HW225234   1.422   0.723   3.697 -0.7488 -0.2435  0.3260
 7853SOL     OW25235   7.686   4.655   2.676  0.1367 -0.2555  0.3221
 7853SOL    HW125236   7.733   4.615   2.750  1.7346  0.6806 -0.1684
 7853SOL    HW225237   7.681   4.586   2.611  1.5945 -0.1156  0.0511
 7854SOL     OW25238   1.439   6.798   7.141  0.2378  0.5843  0.3155
 7854SOL    HW125239   1.415   6.846   7.062  0.0360  0.4430  0.2914
 7854SOL    HW225240   1.356   6.770   7.178  0.4117 -1.2636 -0.6088
 7855SOL     OW25241   3.935   4.853   8.475  0.6170 -0.1584  0.1009
 7855SOL    HW125242   4.020   4.896   8.460  0.7748 -0.8048 -0.8653
 7855SOL    HW225243   3.880   4.922   8.513  1.1233  0.6776 -0.6564
 7856SOL     OW25244   0.258   4.758   3.230  0.7259 -0.3192  0.1631
 7856SOL    HW125245   0.265   4.853   3.219 -1.1358 -0.1691  0.1302
 7856SOL    HW225246   0.344   4.724   3.206  1.3084  1.3385 -0.1073
 7857SOL     OW25247   5.570   7.341   2.943 -0.3448  0.0993 -0.0041
 7857SOL    HW125248   5.552   7.307   3.031 -0.2359  0.6074  0.2193
 7857SOL    HW225249   5.483   7.349   2.902 -0.3747 -0.3909 -0.0393
 7858SOL     OW25250   7.018   1.232   3.152 -0.0244  0.6015  0.5055
 7858SOL    HW125251   6.998   1.145   3.185  1.2368  0.9303  2.2016
 7858SOL    HW225252   7.002   1.227   3.058  0.0442 -1.4508  0.5979
 7859SOL     OW25253   4.693   0.349   3.454  0.3163  0.1064 -0.1734
 7859SOL    HW125254   4.666   0.313   3.370 -1.3810 -0.5508  0.6503
 7859SOL    HW225255   4.687   0.444   3.442 -0.4592  0.0030 -0.6145
 7860SOL     OW25256   2.272   6.352   7.563  0.3967  0.9557 -0.2494
 7860SOL    HW125257   2.363   6.325   7.555 -0.0864 -0.6721 -0.4486
 7860SOL    HW225258   2.243   6.318   7.647 -0.3376  0.4943 -0.6767
 7861SOL     OW25259   8.585   6.297   4.401 -0.0419  0.1474  0.0901
 7861SOL    HW125260   8.556   6.207   4.415  3.8143 -1.0017  1.6359
 7861SOL    HW225261   8.651   6.290   4.331 -1.1063  2.1059 -1.1567
 7862SOL     OW25262   8.823   0.323   2.359 -0.2259  0.2962  0.0732
 7862SOL    HW125263   8.728   0.315   2.366 -0.0852 -0.9801  0.8662
 7862SOL    HW225264   8.847   0.260   2.291  0.0519  0.5680 -0.0785
 7863SOL     OW25265   7.742   7.475   3.339  0.2108  0.4281  0.4849
 7863SOL    HW125266   7.743   7.559   3.385 -0.6067  1.2557 -0.9487
 7863SOL    HW225267   7.649   7.449   3.338  0.3788 -0.1832  0.3831
 7864SOL     OW25268   2.826   1.891   1.370  0.1585  0.6097  0.4482
 7864SOL    HW125269   2.860   1.801   1.368  0.1228  0.5964  0.4330
 7864SOL    HW225270   2.866   1.929   1.448  0.4579  0.6943  0.2559
 7865SOL     OW25271   2.431   0.528   3.375  0.4497 -0.0703  0.0639
 7865SOL    HW125272   2.455   0.620   3.386  0.8002  0.1198 -2.2363
 7865SOL    HW225273   2.336   0.529   3.366  0.5258  0.1378 -0.7162
 7866SOL     OW25274   2.392   1.534   4.344 -0.2369 -0.1086  0.2553
 7866SOL    HW125275   2.441   1.452   4.335 -2.3233 -1.3338 -0.1629
 7866SOL    HW225276   2.352   1.529   4.431 -2.6162 -0.8330 -0.8281
 7867SOL     OW25277   3.827   6.123   8.362 -0.0836 -0.2706 -0.5389
 7867SOL    HW125278   3.880   6.048   8.337 -0.6572 -0.6351 -0.6621
 7867SOL    HW225279   3.826   6.178   8.283 -1.5945 -1.2498 -1.2359
 7868SOL     OW25280   1.880   3.981   6.240  0.6853 -0.2745 -0.5428
 7868SOL    HW125281   1.838   4.035   6.307  1.8907 -0.8599  0.7138
 7868SOL    HW225282   1.832   3.899   6.241  0.7933 -0.3338 -0.2946
 7869SOL     OW25283   4.754   7.396   5.389  0.0850 -0.4268  0.0849
 7869SOL    HW125284   4.819   7.339   5.347  0.5606  0.7722 -0.8247
 7869SOL    HW225285   4.670   7.364   5.358  0.2987 -1.2089  0.3035
 7870SOL     OW25286   2.210   1.326   5.942 -0.2092 -0.5653  0.2008
 7870SOL    HW125287   2.291   1.282   5.968 -1.2067 -1.1680  2.3997
 7870SOL    HW225288   2.177   1.274   5.869 -0.1453 -2.0780  1.2331
 7871SOL     OW25289   2.759   4.281   1.181  0.4597  0.3906 -0.4113
 7871SOL    HW125290   2.733   4.192   1.160 -1.6293  1.1894 -1.3294
 7871SOL    HW225291   2.826   4.303   1.117 -1.7686  0.7978 -2.6841
 7872SOL     OW25292   0.757   5.065   0.085  0.3570 -0.0960  0.1375
 7872SOL    HW125293   0.663   5.054   0.067  0.6694  0.6202 -2.0760
 7872SOL    HW225294   0.783   4.983   0.127 -1.2035 -0.3912  0.5607
 7873SOL     OW25295   6.903   4.226   8.166 -0.3124  0.2263  0.0652
 7873SOL    HW125296   6.846   4.221   8.090  1.1026  1.0738 -1.0749
 7873SOL    HW225297   6.915   4.135   8.194  0.9451 -0.2901 -2.0717
 7874SOL     OW25298   0.178   2.879   1.283 -0.3120 -0.2018  0.0056
 7874SOL    HW125299   0.130   2.808   1.325 -1.4410  0.9867  0.7493
 7874SOL    HW225300   0.164   2.955   1.339 -0.4808  1.0147 -1.6272
 7875SOL     OW25301   8.727   8.036   8.539  0.5574  0.5332 -0.5220
 7875SOL    HW125302   8.729   7.941   8.529 -0.2156  0.2946  1.3709
 7875SOL    HW225303   8.664   8.066   8.473 -1.9837 -0.6370  1.2955
 7876SOL     OW25304   0.462   1.002   7.052  0.0353  0.2202  0.1225
 7876SOL    HW125305   0.401   0.933   7.028 -1.3792  1.2995  0.5754
 7876SOL    HW225306   0.423   1.082   7.018  2.4422  0.6457 -1.8214
 7877SOL     OW25307   8.412   8.969   3.579  0.5664  0.4272 -0.6039
 7877SOL    HW125308   8.408   9.049   3.527 -0.0274 -0.0884 -1.3658
 7877SOL    HW225309   8.473   8.913   3.532 -1.2317 -0.6853 -1.6767
 7878SOL     OW25310   0.123   9.009   7.112  0.7639 -0.3341  0.8038
 7878SOL    HW125311   0.196   9.031   7.170 -0.2350  1.4947  1.4407
 7878SOL    HW225312   0.046   9.043   7.158 -0.3173 -0.9919 -0.4974
 7879SOL     OW25313   7.101   2.820   5.660 -0.1955  0.7268  0.0230
 7879SOL    HW125314   7.020   2.823   5.711  0.2207 -0.8223  0.8066
 7879SOL    HW225315   7.138   2.907   5.669 -1.0159  0.9969  0.9211
 7880SOL     OW25316   8.762   8.473   7.740  0.2702  0.2671  0.8377
 7880SOL    HW125317   8.850   8.436   7.747  0.4893  0.5884 -0.1318
 7880SOL    HW225318   8.721   8.455   7.825  0.4068 -2.1101  0.4422
 7881SOL     OW25319   3.797   2.200   3.158  0.2854  0.0894  0.5086
 7881SOL    HW125320   3.796   2.105   3.165 -0.3354  0.1258  0.9421
 7881SOL    HW225321   3.886   2.221   3.128  0.5689 -0.5909  0.8643
 7882SOL     OW25322   5.299   0.440   7.606 -0.0557  0.1574  0.1495
 7882SOL    HW125323   5.271   0.353   7.635  1.5085 -0.3872  0.0933
 7882SOL    HW225324   5.293   0.437   7.510 -3.0560  1.2044  0.2473
 7883SOL     OW25325   2.832   1.796   6.686 -0.4227 -0.0449 -0.2636
 7883SOL    HW125326   2.885   1.776   6.764  0.8045  2.2580 -0.4509
 7883SOL    HW225327   2.789   1.713   6.664  2.2578 -1.7230  0.5666
 7884SOL     OW25328   3.080   8.472   5.714  0.4020 -0.0834  0.2561
 7884SOL    HW125329   2.995   8.466   5.756 -0.5213  3.5441 -0.9437
 7884SOL    HW225330   3.079   8.403   5.647 -1.4803 -0.1744  0.3595
 7885SOL     OW25331   3.554   7.285   2.279 -0.0701 -0.3862 -0.1149
 7885SOL    HW125332   3.483   7.221   2.286  0.4577 -1.2264 -1.9455
 7885SOL    HW225333   3.620   7.241   2.225  0.8112  1.2746 -0.4253
 7886SOL     OW25334   7.699   0.478   1.368  0.0274 -0.2398  0.1340
 7886SOL    HW125335   7.780   0.485   1.418  0.3827 -0.9082 -0.3497
 7886SOL    HW225336   7.638   0.537   1.413  0.2435 -1.0745  1.5515
 7887SOL     OW25337   0.545   4.622   7.469  0.5929  0.2420 -0.1732
 7887SOL    HW125338   0.484   4.567   7.518 -0.2978  1.2674 -0.1006
 7887SOL    HW225339   0.528   4.711   7.501  1.5160  0.6477 -0.7871
 7888SOL     OW25340   1.102   3.015   1.053  0.3546  0.4935 -0.1608
 7888SOL    HW125341   1.111   2.920   1.062 -0.3628 -0.1018 -4.6599
 7888SOL    HW225342   1.044   3.040   1.125  0.6716 -2.4313  1.1791
 7889SOL     OW25343   7.919   3.073   6.526  0.4744 -0.5919  0.3903
 7889SOL    HW125344   7.985   3.004   6.537  0.3820 -1.2213 -2.6146
 7889SOL    HW225345   7.835   3.027   6.534  0.4003 -0.3480  1.0388
 7890SOL     OW25346   4.128   2.819   2.681  0.0021  0.2726 -0.0077
 7890SOL    HW125347   4.187   2.895   2.677 -0.6290  0.7207 -1.5588
 7890SOL    HW225348   4.169   2.759   2.742 -0.4211  2.6530  2.7316
 7891SOL     OW25349   5.545   8.283   4.037 -0.6026 -0.5857 -0.1883
 7891SOL    HW125350   5.533   8.279   4.132  0.8185 -0.4530  0.0202
 7891SOL    HW225351   5.512   8.200   4.004 -2.1138 -0.1903  0.2994
 7892SOL     OW25352   6.513   1.548   0.005  0.1660 -0.3507  0.2614
 7892SOL    HW125353   6.594   1.571   0.050  0.5780  0.4804 -0.8885
 7892SOL    HW225354   6.495   1.623  -0.053 -1.1971 -0.7017  0.2082
 7893SOL     OW25355   8.769   8.814   8.884 -1.1234  0.3353  0.4994
 7893SOL    HW125356   8.847   8.791   8.936 -0.4610 -0.1888 -0.6964
 7893SOL    HW225357   8.737   8.895   8.923  0.0497  0.5723  0.9977
 7894SOL     OW25358   6.642   7.706   8.918 -0.2713 -0.7243  0.5504
 7894SOL    HW125359   6.552   7.673   8.919 -0.7911  0.6322  1.8208
 7894SOL    HW225360   6.636   7.790   8.873  0.6920 -1.4457 -0.9488
 7895SOL     OW25361   0.736   8.453   8.286  0.3267  0.1505  0.3478
 7895SOL    HW125362   0.669   8.469   8.219  0.5200  0.1207  0.1473
 7895SOL    HW225363   0.691   8.402   8.353 -0.5676  2.3281  1.4450
 7896SOL     OW25364   6.117   6.852   4.003  0.7317 -0.1750  0.3848
 7896SOL    HW125365   6.097   6.898   3.922 -1.3978 -2.1314 -0.2724
 7896SOL    HW225366   6.209   6.871   4.019  0.6255  1.9937 -1.3305
 7897SOL     OW25367   0.115   2.193   2.755  0.0002 -0.3957 -0.2958
 7897SOL    HW125368   0.142   2.124   2.816  0.3655  0.1249  0.1369
 7897SOL    HW225369   0.020   2.199   2.767 -0.0492 -0.9032 -0.4212
 7898SOL     OW25370   3.051   1.831   5.104 -0.0588  0.5321  0.5032
 7898SOL    HW125371   2.994   1.901   5.137  2.0613  1.7751  1.6512
 7898SOL    HW225372   3.109   1.810   5.177  0.6121 -1.0763 -0.4656
 7899SOL     OW25373   7.888   7.134   5.160  0.4538 -0.0737  0.1044
 7899SOL    HW125374   7.981   7.121   5.141  0.8851 -0.1905  2.2092
 7899SOL    HW225375   7.871   7.225   5.135  1.2602  0.1119  0.2252
 7900SOL     OW25376   7.422   7.331   0.972 -0.2094  0.2530 -0.0633
 7900SOL    HW125377   7.377   7.394   1.029 -1.5882 -0.8055  0.0493
 7900SOL    HW225378   7.449   7.261   1.031 -0.7439 -0.3610 -0.5439
 7901SOL     OW25379   4.372   8.700   2.136  0.0357 -0.7548  0.0997
 7901SOL    HW125380   4.298   8.754   2.163  0.9036  1.5561 -1.9359
 7901SOL    HW225381   4.334   8.616   2.113 -1.6668 -0.2647  1.0410
 7902SOL     OW25382   2.852   7.918   9.224  0.3992  0.1054 -0.0098
 7902SOL    HW125383   2.842   7.954   9.136  0.8708 -4.4611 -2.0610
 7902SOL    HW225384   2.944   7.930   9.244  0.2680  1.2715 -0.0820
 7903SOL     OW25385   3.826   2.817   6.406 -0.2445  0.6442 -0.2497
 7903SOL    HW125386   3.834   2.721   6.406  1.6022  0.7768  0.5304
 7903SOL    HW225387   3.916   2.848   6.414 -0.9072  2.4370  0.3908
 7904SOL     OW25388   8.130   8.454   0.235  0.0913 -0.2720 -0.0183
 7904SOL    HW125389   8.097   8.366   0.248  0.1034 -0.4536 -1.2548
 7904SOL    HW225390   8.184   8.449   0.157  1.4227  0.4706  0.8288
 7905SOL     OW25391   0.170   0.323   3.401  0.3376  0.3883  0.1390
 7905SOL    HW125392   0.232   0.303   3.471  1.8960  1.1043 -1.0107
 7905SOL    HW225393   0.096   0.265   3.417  1.0229 -0.0389  1.8972
 7906SOL     OW25394   3.951   0.056   8.283  0.0839 -0.3226 -0.3949
 7906SOL    HW125395   3.881   0.100   8.235  1.5421  0.9631 -1.3822
 7906SOL    HW225396   3.947  -0.035   8.253  0.7753  0.3874 -2.8203
 7907SOL     OW25397   1.515   3.564   0.217  0.0131  0.0858 -0.2518
 7907SOL    HW125398   1.537   3.524   0.301  1.2429  2.4346  0.5621
 7907SOL    HW225399   1.477   3.649   0.239  0.5052  0.8077 -2.0697
 7908SOL     OW25400   9.008   6.657   8.993  0.1750 -0.4671  0.1566
 7908SOL    HW125401   9.073   6.725   9.011 -0.5504 -0.2290  2.0050
 7908SOL    HW225402   9.053   6.575   9.013  0.3617 -0.3841  0.0805
 7909SOL     OW25403   3.925   7.001   8.830 -0.6869  0.0623  0.5580
 7909SOL    HW125404   3.932   6.928   8.768  1.4576 -0.3758  1.2721
 7909SOL    HW225405   3.922   7.079   8.775  0.2615 -0.3793 -0.1292
 7910SOL     OW25406   2.880   1.247   2.007  0.3322 -0.0233 -0.0488
 7910SOL    HW125407   2.965   1.280   2.038  0.8183  0.2737 -1.6681
 7910SOL    HW225408   2.867   1.289   1.922 -0.4021 -1.7764 -0.8227
 7911SOL     OW25409   5.394   5.096   9.228 -0.1426  0.4809 -0.3032
 7911SOL    HW125410   5.335   5.040   9.279  1.3485 -0.2507  0.6260
 7911SOL    HW225411   5.403   5.175   9.281  0.5480  0.1635  0.0503
 7912SOL     OW25412   7.204   3.784   2.743 -0.6191 -0.4639 -0.5632
 7912SOL    HW125413   7.211   3.717   2.675 -2.8913  0.4212 -1.7271
 7912SOL    HW225414   7.184   3.735   2.823  2.6934 -1.5659 -0.3543
 7913SOL     OW25415   1.195   1.666   5.478 -0.0107  0.2855 -0.0291
 7913SOL    HW125416   1.204   1.722   5.554  2.1216  0.7579 -0.6050
 7913SOL    HW225417   1.224   1.580   5.508 -0.1061  0.2451 -0.0512
 7914SOL     OW25418   6.104   5.383   3.467  0.5171  0.5922  0.1655
 7914SOL    HW125419   6.153   5.304   3.444  0.3515  0.7101 -0.6090
 7914SOL    HW225420   6.172   5.447   3.489  0.7165  0.7010 -0.7348
 7915SOL     OW25421   4.141   3.208   1.993  0.2200  0.2099  1.0564
 7915SOL    HW125422   4.233   3.191   2.012  0.8006  1.8733 -0.1044
 7915SOL    HW225423   4.094   3.167   2.066  1.9977  1.2239  2.8486
 7916SOL     OW25424   4.723   3.978   1.391  0.5530  0.4270  0.1152
 7916SOL    HW125425   4.693   3.908   1.333  0.9131 -0.9780  1.5756
 7916SOL    HW225426   4.817   3.987   1.372  0.2310  1.4547 -1.0199
 7917SOL     OW25427   2.208   6.848   8.937  0.5069 -0.2270 -0.3047
 7917SOL    HW125428   2.116   6.863   8.955  0.7582 -0.1852  0.9826
 7917SOL    HW225429   2.227   6.903   8.860 -0.5826 -0.4147 -0.7056
 7918SOL     OW25430   0.971   7.449   0.437  0.6081  0.3406  0.1254
 7918SOL    HW125431   0.903   7.426   0.374  0.8596  2.2375 -0.8679
 7918SOL    HW225432   0.973   7.375   0.498  0.9740 -1.9822 -2.5816
 7919SOL     OW25433   4.395   7.804   2.153 -0.0077 -0.2011  0.4084
 7919SOL    HW125434   4.346   7.732   2.192  0.6466 -0.6451  0.4271
 7919SOL    HW225435   4.481   7.766   2.133  0.2667  0.5135  0.2169
 7920SOL     OW25436   8.982   3.549   0.963  0.1933  0.2171 -0.6493
 7920SOL    HW125437   9.052   3.492   0.997 -0.3493 -0.5345 -0.7904
 7920SOL    HW225438   8.994   3.632   1.010  0.5127 -0.2614  0.1229
 7921SOL     OW25439   0.149   2.999   5.594 -0.1946  0.6529 -0.3558
 7921SOL    HW125440   0.124   3.090   5.611 -2.5916  0.3531 -1.9254
 7921SOL    HW225441   0.220   2.982   5.655  0.7818  3.7921 -0.5125
 7922SOL     OW25442   1.107   2.148   1.503 -0.3069 -0.3633 -0.5657
 7922SOL    HW125443   1.024   2.183   1.536  0.8406  0.9722  0.9802
 7922SOL    HW225444   1.174   2.189   1.558  1.4167 -1.0731 -2.0942
 7923SOL     OW25445   8.386   7.582   1.548  0.3105 -0.3682  0.0495
 7923SOL    HW125446   8.418   7.607   1.461 -0.4709 -1.2064 -0.4891
 7923SOL    HW225447   8.442   7.509   1.574 -0.8571 -1.5543 -0.7080
 7924SOL     OW25448   6.989   1.929   5.795  0.4830 -0.0468  0.5151
 7924SOL    HW125449   6.985   1.954   5.702  3.0207 -1.8161 -0.1250
 7924SOL    HW225450   7.015   2.010   5.840 -0.3055  0.7175 -0.3666
 7925SOL     OW25451   7.131   3.797   4.751 -0.3590 -0.4707  0.2747
 7925SOL    HW125452   7.054   3.854   4.745 -0.8508 -1.3210 -2.4233
 7925SOL    HW225453   7.101   3.722   4.802 -0.3908  0.5976  1.8566
 7926SOL     OW25454   9.181   8.328   5.513  0.3090 -0.2805  0.1813
 7926SOL    HW125455   9.232   8.408   5.501  0.0900 -0.2495 -0.5876
 7926SOL    HW225456   9.158   8.301   5.424 -0.9707 -0.3199  0.5173
 7927SOL     OW25457   8.631   0.018   2.393 -0.0509  0.2584 -0.4268
 7927SOL    HW125458   8.618  -0.065   2.348 -1.3230 -0.3355  1.0075
 7927SOL    HW225459   8.597   0.084   2.333  0.6324 -0.2833 -1.4179
 7928SOL     OW25460   7.254   5.861   1.270 -0.1591 -0.2546  0.3743
 7928SOL    HW125461   7.304   5.912   1.335  0.5376 -1.0749  0.4887
 7928SOL    HW225462   7.190   5.813   1.322  0.8183 -1.4047  0.5318
 7929SOL     OW25463   4.550   0.869   1.612  0.6250 -0.4076 -0.6915
 7929SOL    HW125464   4.596   0.922   1.676  1.8538 -2.0395 -0.1955
 7929SOL    HW225465   4.458   0.874   1.639  0.9556  0.0461  0.3715
 7930SOL     OW25466   6.582   3.731   3.107 -0.0241  0.3474 -0.2162
 7930SOL    HW125467   6.606   3.720   3.015 -1.2317 -1.0532 -0.3878
 7930SOL    HW225468   6.664   3.716   3.154  0.3732 -0.0446 -1.0099
 7931SOL     OW25469   2.546   4.510   4.862 -0.0100 -0.0603  0.1338
 7931SOL    HW125470   2.635   4.519   4.828 -0.2546  1.2522 -0.1696
 7931SOL    HW225471   2.532   4.415   4.865  1.3954 -0.2791  0.1957
 7932SOL     OW25472   6.915   4.261   8.432  0.6306 -0.0686  0.0189
 7932SOL    HW125473   7.010   4.253   8.444  0.6511 -0.1529 -0.1864
 7932SOL    HW225474   6.903   4.256   8.337  0.3675 -0.6634  0.0793
 7933SOL     OW25475   0.325   2.668   3.464  0.4622  0.2070  0.6246
 7933SOL    HW125476   0.295   2.682   3.374 -0.2195  0.4679  0.8894
 7933SOL    HW225477   0.396   2.604   3.456 -0.3335 -0.6039  0.0252
 7934SOL     OW25478   9.195   9.063   1.920  0.6453 -0.1549  0.1916
 7934SOL    HW125479   9.168   8.971   1.911 -2.2146  0.6675  0.0367
 7934SOL    HW225480   9.289   9.061   1.903  0.2972 -2.7756 -1.9051
 7935SOL     OW25481   8.873   2.652   2.445 -0.1594 -0.1553  0.3925
 7935SOL    HW125482   8.837   2.727   2.398  2.8588  1.7145  0.9002
 7935SOL    HW225483   8.938   2.615   2.385  0.9866 -0.0886  1.5690
 7936SOL     OW25484   4.188   7.639   3.925 -0.6423  0.7362 -0.0685
 7936SOL    HW125485   4.100   7.665   3.896  0.1056  2.4229 -0.8810
 7936SOL    HW225486   4.247   7.686   3.867  0.8594  1.6525  2.1326
 7937SOL     OW25487   6.620   8.916   0.906 -0.1842 -0.0154  0.4325
 7937SOL    HW125488   6.613   8.918   1.001  0.3842 -2.3839  0.5514
 7937SOL    HW225489   6.714   8.906   0.889 -0.5132 -1.9962 -0.2977
 7938SOL     OW25490   5.366   0.824   6.378  0.4275  0.3057 -0.2709
 7938SOL    HW125491   5.287   0.794   6.425 -0.1269  0.3434 -1.1691
 7938SOL    HW225492   5.366   0.773   6.297  0.8913  0.8868 -0.6346
 7939SOL     OW25493   5.129   2.858   4.188 -0.1113  0.3219 -0.2307
 7939SOL    HW125494   5.211   2.812   4.205 -0.3775  0.0804  0.3998
 7939SOL    HW225495   5.151   2.950   4.199  0.7022  0.4463 -2.6364
 7940SOL     OW25496   8.915   1.881   5.550 -0.5986 -0.7272  0.1104
 7940SOL    HW125497   8.918   1.975   5.569  1.7346 -0.8911  0.6874
 7940SOL    HW225498   8.824   1.856   5.566 -1.3898  1.5598 -0.7027
 7941SOL     OW25499   2.435   3.872   6.521 -0.4122 -0.4529  0.0382
 7941SOL    HW125500   2.430   3.790   6.473  1.9571 -1.5103  1.5430
 7941SOL    HW225501   2.515   3.914   6.488 -0.8513  0.5838  0.2831
 7942SOL     OW25502   1.387   4.067   4.354  0.4592  0.0558  1.0012
 7942SOL    HW125503   1.386   4.004   4.425  0.8553  1.4375  2.2547
 7942SOL    HW225504   1.295   4.088   4.338  0.1382 -2.7389 -1.1848
 7943SOL     OW25505   2.705   8.004   3.668 -0.1406  0.0941 -0.3119
 7943SOL    HW125506   2.692   8.079   3.610 -0.1314  2.0840  2.1533
 7943SOL    HW225507   2.616   7.971   3.684 -0.2475  0.2980 -0.4799
 7944SOL     OW25508   5.113   2.533   1.847  0.2462  0.3285 -0.7401
 7944SOL    HW125509   5.068   2.592   1.786  1.1901 -0.0466 -1.8162
 7944SOL    HW225510   5.181   2.587   1.887 -1.3321  0.9753  1.1083
 7945SOL     OW25511   1.049   0.258   4.956  0.1374 -0.6944 -0.6194
 7945SOL    HW125512   1.112   0.186   4.953 -1.1145 -1.7833 -2.2219
 7945SOL    HW225513   1.033   0.279   4.864 -1.2890  0.0262 -0.2267
 7946SOL     OW25514   8.742   9.080   5.029  0.1101  0.6652 -0.9742
 7946SOL    HW125515   8.748   9.118   5.117  2.7511  0.1818 -0.9158
 7946SOL    HW225516   8.674   9.013   5.036  1.2792 -0.3533  1.0849
 7947SOL     OW25517   5.870   6.732   4.447 -0.2023  0.0465 -0.0091
 7947SOL    HW125518   5.775   6.727   4.439 -0.1293 -0.3810 -0.6343
 7947SOL    HW225519   5.901   6.755   4.360  0.4189 -2.0259 -0.3508
 7948SOL     OW25520   4.173   5.901   4.553  0.2484  0.2896  0.2804
 7948SOL    HW125521   4.263   5.912   4.585  0.0213  4.4141 -0.1413
 7948SOL    HW225522   4.177   5.923   4.460 -1.5329  2.9754  0.7748
 7949SOL     OW25523   0.334   0.371   7.082 -0.2081  0.1427  0.1200
 7949SOL    HW125524   0.344   0.445   7.142  0.3223 -1.5898  2.2342
 7949SOL    HW225525   0.424   0.349   7.055 -0.3548  0.1611 -0.4007
 7950SOL     OW25526   0.580   4.365   3.423 -0.0556  0.4050  0.2916
 7950SOL    HW125527   0.531   4.287   3.447 -1.2457  1.5895  1.8344
 7950SOL    HW225528   0.529   4.438   3.460  2.5927  1.7001  1.5356
 7951SOL     OW25529   2.979   4.586   2.622 -0.3055  0.1165  0.1622
 7951SOL    HW125530   3.033   4.511   2.601  1.2935  1.2167  0.2586
 7951SOL    HW225531   3.023   4.629   2.695 -0.2978  2.0244 -0.9011
 7952SOL     OW25532   0.372   9.250   0.461  0.6418  0.2518 -0.0768
 7952SOL    HW125533   0.467   9.265   0.466  1.0102 -2.0004  0.3174
 7952SOL    HW225534   0.356   9.229   0.369  0.4951  0.8329 -0.1830
 7953SOL     OW25535   2.712   0.141   5.673 -0.3396 -0.4735 -0.6956
 7953SOL    HW125536   2.665   0.083   5.613 -0.6663 -0.2300 -0.6812
 7953SOL    HW225537   2.804   0.128   5.652 -0.4735  0.0632 -1.6943
 7954SOL     OW25538   6.196   0.185   7.762 -0.1657  0.6160 -0.3940
 7954SOL    HW125539   6.250   0.235   7.700  0.4418  0.0634 -0.3202
 7954SOL    HW225540   6.114   0.170   7.716  0.3044  0.1612 -1.0953
 7955SOL     OW25541   0.872   5.467   3.902 -0.4141 -0.5304  0.0914
 7955SOL    HW125542   0.818   5.518   3.962  2.9946  1.2639  1.7164
 7955SOL    HW225543   0.885   5.525   3.827  2.2047  0.4829  1.2847
 7956SOL     OW25544   7.589   1.804   8.229 -0.0411 -0.1628  0.7641
 7956SOL    HW125545   7.682   1.782   8.227 -0.3073 -1.4492  1.7454
 7956SOL    HW225546   7.547   1.726   8.265 -1.3538  0.9248  1.6497
 7957SOL     OW25547   1.262   2.953   8.130  0.6563 -0.1453 -0.1324
 7957SOL    HW125548   1.228   2.864   8.124  0.5627 -0.1521  0.5129
 7957SOL    HW225549   1.211   3.002   8.066  1.7278 -0.8610 -1.5743
 7958SOL     OW25550   0.497   5.704   8.975  0.3280 -0.1560 -0.2498
 7958SOL    HW125551   0.463   5.688   9.063 -0.5511 -1.8754 -0.8749
 7958SOL    HW225552   0.570   5.644   8.966  0.3308 -0.0824 -0.7399
 7959SOL     OW25553   8.373   2.675   8.995  0.0478  0.1061  0.4130
 7959SOL    HW125554   8.342   2.591   8.962  1.3932 -0.5970  0.8891
 7959SOL    HW225555   8.293   2.725   9.013 -0.7393 -0.6281 -0.9844
 7960SOL     OW25556   0.467   7.808   6.041 -0.2824 -0.1779 -0.1289
 7960SOL    HW125557   0.551   7.769   6.064 -0.4581 -1.4898 -1.6735
 7960SOL    HW225558   0.445   7.770   5.956 -2.7358 -0.3292  0.5461
 7961SOL     OW25559   1.228   0.064   8.832 -0.0537 -0.3840 -0.1118
 7961SOL    HW125560   1.292  -0.006   8.846 -1.6469 -1.9559 -0.5335
 7961SOL    HW225561   1.144   0.026   8.859 -0.9473  1.3601 -0.3547
 7962SOL     OW25562   0.852   4.354   3.417  0.1489  0.3492  0.0055
 7962SOL    HW125563   0.881   4.445   3.423 -2.4868  1.1420  1.5661
 7962SOL    HW225564   0.757   4.358   3.425 -0.1169 -2.4577 -1.0843
 7963SOL     OW25565   3.703   6.129   4.663  0.1277 -0.4833  0.8760
 7963SOL    HW125566   3.740   6.104   4.747 -1.0127  1.6635  2.0575
 7963SOL    HW225567   3.775   6.172   4.617  0.0007  0.8881  1.9160
 7964SOL     OW25568   5.739   4.947   6.388 -0.1251 -0.1613  0.0192
 7964SOL    HW125569   5.800   4.881   6.355 -0.5459 -0.9285  0.7626
 7964SOL    HW225570   5.794   5.024   6.404  0.5963 -0.7529  0.4068
 7965SOL     OW25571   1.147   4.603   5.235 -0.4786  0.1437 -0.4056
 7965SOL    HW125572   1.194   4.537   5.184 -0.0306  1.4564 -1.7198
 7965SOL    HW225573   1.188   4.686   5.211  0.0256  0.7692  2.4388
 7966SOL     OW25574   7.220   2.119   8.235 -0.2730  0.4240  0.0597
 7966SOL    HW125575   7.298   2.065   8.221 -0.1430  0.4179  0.7830
 7966SOL    HW225576   7.149   2.070   8.194 -0.4036 -0.9850  1.8832
 7967SOL     OW25577   1.021   2.767   3.573 -0.1805  1.1569  0.0822
 7967SOL    HW125578   0.928   2.789   3.576 -0.2121  1.1492 -0.7335
 7967SOL    HW225579   1.029   2.686   3.625 -1.2158 -0.8384 -2.7657
 7968SOL     OW25580   6.827   8.040   3.931 -0.3737 -0.0511  0.3219
 7968SOL    HW125581   6.758   8.075   3.987  0.3628  2.6249 -0.3587
 7968SOL    HW225582   6.862   8.116   3.885 -0.0575 -2.0048 -2.8131
 7969SOL     OW25583   1.396   8.487   0.392  0.3525 -0.3204  0.6573
 7969SOL    HW125584   1.311   8.452   0.418 -0.1251  0.8461  0.7080
 7969SOL    HW225585   1.424   8.542   0.465  0.2115  0.8921 -0.1758
 7970SOL     OW25586   1.532   8.658   7.223  0.1281  0.7447 -0.7120
 7970SOL    HW125587   1.442   8.650   7.252 -0.1016 -1.1237 -1.8542
 7970SOL    HW225588   1.582   8.681   7.302 -1.0075 -0.4837  0.3775
 7971SOL     OW25589   4.705   3.148   6.971 -0.1352  0.5541 -0.0985
 7971SOL    HW125590   4.637   3.124   7.034  0.8524  1.4030  1.3022
 7971SOL    HW225591   4.787   3.130   7.016  0.5833  2.3987 -0.6374
 7972SOL     OW25592   8.696   0.547   8.426 -0.2551 -0.8079  0.6397
 7972SOL    HW125593   8.788   0.532   8.407 -0.0618  0.8493  0.1399
 7972SOL    HW225594   8.649   0.513   8.351  0.0546 -0.3970  0.2543
 7973SOL     OW25595   4.698   3.364   7.307 -0.4954 -0.3782 -0.4160
 7973SOL    HW125596   4.774   3.420   7.290 -1.9499  1.4941 -0.8388
 7973SOL    HW225597   4.714   3.329   7.395  0.5368  0.5064 -0.2412
 7974SOL     OW25598   2.479   5.833   5.662  0.6335 -0.6801  0.1864
 7974SOL    HW125599   2.517   5.746   5.650  0.1297 -1.0492  1.1174
 7974SOL    HW225600   2.468   5.841   5.757 -0.7143 -0.2172  0.0140
 7975SOL     OW25601   5.307   3.066   0.634  0.8697 -0.3044 -0.5967
 7975SOL    HW125602   5.273   3.094   0.719 -0.1639  0.9010 -1.3881
 7975SOL    HW225603   5.386   3.118   0.622  0.4327  0.3038 -0.8488
 7976SOL     OW25604   4.386   9.199   1.268 -0.0850  0.2736 -0.2362
 7976SOL    HW125605   4.304   9.173   1.227 -0.7120 -0.4543  1.4431
 7976SOL    HW225606   4.371   9.289   1.297 -0.2852  0.1480  0.0522
 7977SOL     OW25607   2.179   0.953   5.878 -0.1936  0.1960 -0.1257
 7977SOL    HW125608   2.126   0.973   5.956 -0.8479  1.0151 -0.7799
 7977SOL    HW225609   2.146   1.011   5.810 -2.0047 -2.8468 -2.0088
 7978SOL     OW25610   8.616   7.210   3.298  0.0255 -0.2782  0.5983
 7978SOL    HW125611   8.665   7.217   3.380 -0.0262 -2.5712  0.8804
 7978SOL    HW225612   8.547   7.276   3.305  1.2235  0.8953  1.5220
 7979SOL     OW25613   2.097   4.286   4.327 -0.2875 -0.1035 -0.0857
 7979SOL    HW125614   2.015   4.322   4.293  0.4001  0.9967 -0.5950
 7979SOL    HW225615   2.087   4.288   4.422 -0.6759  0.4273 -0.1424
 7980SOL     OW25616   2.922   1.820   6.045 -0.0152 -0.2014 -0.4750
 7980SOL    HW125617   2.880   1.809   5.960 -1.1700 -0.4324  0.1092
 7980SOL    HW225618   2.999   1.875   6.028 -1.9885  2.4343 -1.1632
 7981SOL     OW25619   0.351   5.672   9.264  0.2172 -0.0482  0.1140
 7981SOL    HW125620   0.326   5.615   9.337  1.8069 -0.6873  0.1963
 7981SOL    HW225621   0.371   5.756   9.306 -0.9036  0.2054  0.1485
 7982SOL     OW25622   4.262   3.589   4.635  0.0337  0.2848  0.2371
 7982SOL    HW125623   4.203   3.576   4.709 -0.2637  1.7444  0.2572
 7982SOL    HW225624   4.257   3.682   4.615 -0.7654 -0.2455 -2.3506
 7983SOL     OW25625   1.173   3.695   2.455 -0.2818 -0.1815 -0.6387
 7983SOL    HW125626   1.081   3.723   2.450 -0.3792 -0.5780 -1.2861
 7983SOL    HW225627   1.171   3.618   2.512 -0.0175  1.0779  1.1162
 7984SOL     OW25628   6.466   7.751   2.434  0.1712 -0.0937 -0.1722
 7984SOL    HW125629   6.383   7.786   2.467  0.6115 -0.0484  0.8852
 7984SOL    HW225630   6.443   7.664   2.401 -0.0036 -0.7409  1.5996
 7985SOL     OW25631   6.642   2.049   5.443  0.2163  0.1257 -0.0803
 7985SOL    HW125632   6.646   2.042   5.348 -0.3346  0.2605 -0.1133
 7985SOL    HW225633   6.733   2.056   5.470  0.4086 -0.4569 -0.5553
 7986SOL     OW25634   7.236   4.777   2.174  0.2476 -0.2480 -0.4624
 7986SOL    HW125635   7.173   4.840   2.139 -0.0348 -0.2615  0.0205
 7986SOL    HW225636   7.184   4.699   2.194  0.4711 -0.3738 -0.3598
 7987SOL     OW25637   8.150   6.221   6.807 -0.2106  0.0016 -0.1842
 7987SOL    HW125638   8.170   6.128   6.798  0.6469  0.2114 -0.5734
 7987SOL    HW225639   8.056   6.228   6.790  0.0949 -0.5259 -2.3166
 7988SOL     OW25640   4.039   7.871   7.092 -0.5892 -0.3763 -0.2075
 7988SOL    HW125641   4.019   7.784   7.127  1.6574 -0.4093  1.1578
 7988SOL    HW225642   4.093   7.853   7.015  1.5240 -0.2295  1.1803
 7989SOL     OW25643   1.615   9.069   1.691  0.0304 -0.0448 -0.0177
 7989SOL    HW125644   1.634   9.115   1.609  0.4540 -1.6579 -0.8580
 7989SOL    HW225645   1.649   9.126   1.760 -2.7671  2.6709 -0.7374
 7990SOL     OW25646   3.071   3.528   1.662  0.1118  1.2733  0.3957
 7990SOL    HW125647   3.112   3.562   1.582  2.4917  0.8083  1.3883
 7990SOL    HW225648   3.106   3.439   1.671 -0.8091  1.0122  1.4961
 7991SOL     OW25649   5.360   1.167   0.543 -0.2015 -0.1023  0.1029
 7991SOL    HW125650   5.413   1.089   0.557  0.2093 -0.0392 -1.0112
 7991SOL    HW225651   5.306   1.147   0.466  1.0346  1.2529 -1.1622
 7992SOL     OW25652   1.916   2.694   3.158 -0.0716 -0.9643 -0.2765
 7992SOL    HW125653   1.857   2.622   3.139  0.2906 -1.6834  1.2009
 7992SOL    HW225654   1.991   2.653   3.202  1.0251  0.0713 -1.1313
 7993SOL     OW25655   2.519   4.410   0.113 -0.2289 -0.1676 -0.0587
 7993SOL    HW125656   2.610   4.410   0.143 -0.2536 -3.1550  0.1333
 7993SOL    HW225657   2.519   4.359   0.033 -1.6745  0.1525 -0.2862
 7994SOL     OW25658   3.978   5.820   1.612  0.1837  0.4240  0.5644
 7994SOL    HW125659   4.019   5.788   1.531  0.4321 -1.7146  1.5091
 7994SOL    HW225660   4.051   5.849   1.666  0.2902 -0.9163  1.1792
 7995SOL     OW25661   1.600   1.787   1.031  0.1701  0.2166  0.3693
 7995SOL    HW125662   1.689   1.811   1.057  0.2247 -1.6830  2.0856
 7995SOL    HW225663   1.555   1.767   1.113 -1.1836 -1.0064 -0.6274
 7996SOL     OW25664   2.128   3.136   0.659  0.4116 -0.1991  0.2404
 7996SOL    HW125665   2.109   3.099   0.573 -1.0565 -0.4849  0.6691
 7996SOL    HW225666   2.098   3.070   0.721  1.0496  0.1906  0.9753
 7997SOL     OW25667   4.619   3.215   0.514  0.0548  0.0833  0.1932
 7997SOL    HW125668   4.569   3.251   0.587 -1.2468 -1.7321  0.2559
 7997SOL    HW225669   4.682   3.156   0.555  1.1205  1.0961  0.0109
 7998SOL     OW25670   6.054   0.799   3.648 -0.6284  0.1433 -0.4046
 7998SOL    HW125671   5.961   0.779   3.659 -1.0865  1.9330 -0.8310
 7998SOL    HW225672   6.061   0.892   3.669  1.4320 -0.4068  1.6027
 7999SOL     OW25673   4.850   6.988   5.701  0.1647 -0.4808 -0.2493
 7999SOL    HW125674   4.872   6.970   5.792 -0.4871 -0.3292 -0.0589
 7999SOL    HW225675   4.899   6.923   5.651  0.1589 -0.8671  0.2420
 8000SOL     OW25676   4.110   0.984   4.838 -0.0415  0.1554  0.2693
 8000SOL    HW125677   4.099   0.911   4.900 -1.0506 -1.0386 -1.2659
 8000SOL    HW225678   4.205   1.000   4.836  0.0564 -0.2202  1.6260
 8001SOL     OW25679   0.347   5.469   9.082 -0.1978  0.5827  0.2579
 8001SOL    HW125680   0.258   5.435   9.083  0.1344 -0.2939  0.3193
 8001SOL    HW225681   0.352   5.525   9.159 -1.0087  1.4659 -0.3197
 8002SOL     OW25682   8.160   4.227   4.872  0.1113 -0.1496 -0.1067
 8002SOL    HW125683   8.135   4.137   4.853 -1.0205  0.0297  0.5305
 8002SOL    HW225684   8.164   4.270   4.786 -4.0430  0.4110 -0.1367
 8003SOL     OW25685   2.892   2.804   4.768 -0.4010 -0.3622  0.4058
 8003SOL    HW125686   2.978   2.841   4.788  0.1912 -1.0630 -0.7819
 8003SOL    HW225687   2.840   2.823   4.845  1.3984 -1.7260  1.9962
 8004SOL     OW25688   8.904   8.601   3.614  0.7481  0.8349  0.4016
 8004SOL    HW125689   8.953   8.557   3.684  1.6119  0.5033 -0.3920
 8004SOL    HW225690   8.858   8.672   3.658  1.6618  0.9269  1.2426
 8005SOL     OW25691   5.211   9.096   8.618  0.0584 -0.2263  0.5459
 8005SOL    HW125692   5.212   9.079   8.713 -0.0684  0.7027  0.7173
 8005SOL    HW225693   5.130   9.054   8.588 -0.7621  0.9152  1.1290
 8006SOL     OW25694   6.862   7.858   3.242 -0.5633 -1.3263  0.4437
 8006SOL    HW125695   6.815   7.799   3.300 -1.2858 -1.6501 -0.4555
 8006SOL    HW225696   6.850   7.821   3.155  0.0350 -0.5422  0.0177
 8007SOL     OW25697   1.612   5.917   4.867  0.7246 -0.6993 -0.8090
 8007SOL    HW125698   1.707   5.928   4.875  0.7706 -1.5409 -0.1445
 8007SOL    HW225699   1.601   5.862   4.789  0.7719 -0.4312 -1.0051
 8008SOL     OW25700   2.413   5.102   7.062 -0.0439 -0.0138 -0.0831
 8008SOL    HW125701   2.475   5.038   7.096  0.0979 -0.5315 -1.3086
 8008SOL    HW225702   2.440   5.185   7.102  1.0391 -0.3429 -0.1173
 8009SOL     OW25703   4.802   6.670   5.931 -0.5262  0.2807 -0.4816
 8009SOL    HW125704   4.723   6.629   5.894  0.2734 -2.0316  0.2537
 8009SOL    HW225705   4.782   6.678   6.025  0.4943 -1.3270 -0.1064
 8010SOL     OW25706   2.269   1.097   6.574  0.1619  0.1503 -0.1471
 8010SOL    HW125707   2.208   1.025   6.585 -0.0779  0.2965 -0.5451
 8010SOL    HW225708   2.317   1.100   6.657 -0.2453 -0.0758  0.0979
 8011SOL     OW25709   7.485   8.156   8.419  0.2627 -0.1023 -0.3327
 8011SOL    HW125710   7.513   8.231   8.366 -2.7948 -0.4942 -2.6649
 8011SOL    HW225711   7.415   8.190   8.474 -0.0998 -0.9006 -0.2948
 8012SOL     OW25712   4.341   7.319   8.701  0.3123  0.4556  0.1589
 8012SOL    HW125713   4.254   7.285   8.679  0.3905  1.8268 -2.4611
 8012SOL    HW225714   4.326   7.373   8.779 -1.4632  1.8013 -1.0691
 8013SOL     OW25715   8.009   5.453   1.350 -0.3885  0.1580  0.0229
 8013SOL    HW125716   7.965   5.413   1.425 -1.4507 -0.1193 -0.7438
 8013SOL    HW225717   7.955   5.430   1.275 -0.1835  1.7717 -0.6305
 8014SOL     OW25718   0.150   0.405   0.591  0.1594  0.3086 -0.4595
 8014SOL    HW125719   0.188   0.331   0.543 -2.0008 -0.1062 -1.5726
 8014SOL    HW225720   0.063   0.375   0.617  0.4192  1.3824  1.7444
 8015SOL     OW25721   2.421   4.083   6.805 -0.6753 -0.2095 -0.3401
 8015SOL    HW125722   2.337   4.058   6.767 -0.7482 -0.1225 -0.2372
 8015SOL    HW225723   2.410   4.176   6.829 -1.3658 -0.8328  1.8821
 8016SOL     OW25724   0.805   6.312   8.812 -0.5449  0.3917 -0.5087
 8016SOL    HW125725   0.825   6.399   8.846 -0.3614  0.9071 -1.8952
 8016SOL    HW225726   0.744   6.328   8.740  0.3021 -0.5292 -1.4450
 8017SOL     OW25727   6.025   4.352   5.969  0.2848  0.2866 -0.0263
 8017SOL    HW125728   5.931   4.342   5.957  0.2286 -1.6877  1.8557
 8017SOL    HW225729   6.035   4.440   6.007 -0.6963  0.8310 -0.9860
 8018SOL     OW25730   2.236   6.685   1.302  0.0550 -0.5616 -0.1365
 8018SOL    HW125731   2.206   6.765   1.259 -0.7262 -0.8503 -0.1304
 8018SOL    HW225732   2.214   6.697   1.394  0.3785 -0.5800 -0.0542
 8019SOL     OW25733   4.754   2.290   5.713  0.3402 -0.2368 -0.0145
 8019SOL    HW125734   4.676   2.271   5.765  0.9298  0.9502  1.3225
 8019SOL    HW225735   4.817   2.224   5.740  0.0676 -0.7076 -0.5185
 8020SOL     OW25736   0.264   1.832   8.448  0.0656 -0.7847  0.0582
 8020SOL    HW125737   0.235   1.904   8.503  1.3507 -0.8005  0.7772
 8020SOL    HW225738   0.184   1.784   8.427 -0.3307 -1.4743  2.9126
 8021SOL     OW25739   0.732   9.176   2.810 -0.0055 -0.1844 -0.3013
 8021SOL    HW125740   0.681   9.256   2.803  0.1202 -0.1265 -0.5925
 8021SOL    HW225741   0.818   9.200   2.776  0.1602 -0.3292  0.0152
 8022SOL     OW25742   3.331   8.117   4.393  0.1601  0.1192  0.2860
 8022SOL    HW125743   3.334   8.022   4.402  0.6328  0.1922  0.9021
 8022SOL    HW225744   3.262   8.146   4.452  2.0864  0.4355  2.4286
 8023SOL     OW25745   7.881   3.588   3.984  0.3156  0.2125  0.1977
 8023SOL    HW125746   7.922   3.612   4.067 -1.0465 -0.2999  1.0438
 8023SOL    HW225747   7.821   3.516   4.007 -0.4679  0.4273 -1.1294
 8024SOL     OW25748   0.731   1.722   4.928 -0.2607 -0.0036  0.0242
 8024SOL    HW125749   0.651   1.680   4.896 -0.1650 -0.4037  0.3025
 8024SOL    HW225750   0.701   1.790   4.988 -0.4123  0.2281 -0.3159
 8025SOL     OW25751   7.231   4.854   3.401  0.3500  0.3543  0.2713
 8025SOL    HW125752   7.236   4.889   3.490  0.8136 -2.1174  1.2855
 8025SOL    HW225753   7.320   4.822   3.383  0.0543  0.0899 -0.7454
 8026SOL     OW25754   3.754   5.188   9.217 -0.1266 -0.1598 -0.0455
 8026SOL    HW125755   3.755   5.279   9.247  0.1623  0.1134 -0.8770
 8026SOL    HW225756   3.764   5.193   9.122  0.5307 -1.0826 -0.0405
 8027SOL     OW25757   0.757   6.538   3.233 -0.2410  0.0726  0.0271
 8027SOL    HW125758   0.731   6.630   3.224  0.4679  0.2261 -0.4180
 8027SOL    HW225759   0.757   6.504   3.144 -1.4603 -0.6252  0.2793
 8028SOL     OW25760   3.757   3.547   2.388 -0.0527  0.0080  0.3274
 8028SOL    HW125761   3.846   3.517   2.404 -0.3341 -0.5275  0.9136
 8028SOL    HW225762   3.750   3.629   2.437 -0.8034 -1.4483  2.7789
 8029SOL     OW25763   5.833   9.012   5.471  0.1339 -0.1787 -0.0361
 8029SOL    HW125764   5.862   8.923   5.492 -0.5755 -0.0641  1.5345
 8029SOL    HW225765   5.886   9.037   5.395  1.0644 -1.5560  0.1264
 8030SOL     OW25766   3.611   8.125   3.635  0.4737 -0.3858  0.1336
 8030SOL    HW125767   3.672   8.183   3.679  0.8996 -0.7373  0.0140
 8030SOL    HW225768   3.524   8.160   3.656  0.7524  0.6379 -0.4406
 8031SOL     OW25769   5.653   6.183   2.319 -0.0043 -0.3057 -0.0972
 8031SOL    HW125770   5.640   6.206   2.227  0.6758  0.7636  0.0779
 8031SOL    HW225771   5.744   6.155   2.324  0.5013  1.4732  0.6372
 8032SOL     OW25772   1.711   5.271   8.387  0.1807 -0.3787  0.3676
 8032SOL    HW125773   1.790   5.272   8.441 -0.1817  1.1277  0.8913
 8032SOL    HW225774   1.645   5.315   8.440 -0.3228  0.6651 -1.0755
 8033SOL     OW25775   9.188   9.032   8.402 -0.1359  0.3574  0.2695
 8033SOL    HW125776   9.254   9.101   8.391 -2.1858  2.5331  1.1359
 8033SOL    HW225777   9.213   8.987   8.482  1.5956 -0.4021 -0.6478
 8034SOL     OW25778   2.120   4.819   6.398  0.0709 -0.2334 -0.0126
 8034SOL    HW125779   2.104   4.817   6.492 -0.3790 -0.6404 -0.0998
 8034SOL    HW225780   2.041   4.782   6.359  1.1289 -2.1042 -0.4450
 8035SOL     OW25781   5.303   5.592   3.237  0.1425 -0.2601  0.4104
 8035SOL    HW125782   5.238   5.635   3.293  0.0240 -0.7581  0.6681
 8035SOL    HW225783   5.282   5.621   3.149 -1.0959 -1.2137  0.3694
 8036SOL     OW25784   0.737   1.053   2.897  0.4044  0.5187 -0.3208
 8036SOL    HW125785   0.671   1.107   2.853 -1.5572 -0.3594  1.4608
 8036SOL    HW225786   0.721   0.964   2.864 -0.1760  0.0881  1.1087
 8037SOL     OW25787   7.417   5.612   0.859  0.2240  0.4468 -0.1322
 8037SOL    HW125788   7.430   5.693   0.909  1.6183 -0.3141  0.7595
 8037SOL    HW225789   7.492   5.557   0.882 -2.0200 -2.1402  1.2595
 8038SOL     OW25790   2.567   8.551   7.273 -0.2480  0.1733  0.8467
 8038SOL    HW125791   2.496   8.584   7.328 -0.7150  0.0229  0.3390
 8038SOL    HW225792   2.539   8.571   7.184  0.4712  0.3522  0.6566
 8039SOL     OW25793   1.392   6.124   4.843 -0.7816 -0.2553 -0.1803
 8039SOL    HW125794   1.437   6.046   4.811 -0.0899  0.3131 -0.6185
 8039SOL    HW225795   1.364   6.101   4.931  0.2147 -0.6899  0.0359
 8040SOL     OW25796   6.197   0.032   5.823 -0.0656 -0.2629  0.4699
 8040SOL    HW125797   6.111   0.030   5.865  0.2834 -1.9126  1.1494
 8040SOL    HW225798   6.204  -0.054   5.781  0.7284  0.3444 -0.6747
 8041SOL     OW25799   5.428   2.340   1.769  0.2194  0.0959 -0.0328
 8041SOL    HW125800   5.463   2.362   1.856 -3.0978 -0.1918  1.4603
 8041SOL    HW225801   5.471   2.258   1.745  0.6280 -0.2004  1.6760
 8042SOL     OW25802   6.525   3.107   7.030  0.1657  0.4899  0.0760
 8042SOL    HW125803   6.586   3.071   7.094 -0.7891 -2.1693 -0.4219
 8042SOL    HW225804   6.570   3.094   6.946 -0.0935  0.6791 -0.0900
 8043SOL     OW25805   9.035   2.397   1.091 -0.2545  0.2442  0.0432
 8043SOL    HW125806   9.000   2.313   1.060 -1.0874  0.7816 -0.4873
 8043SOL    HW225807   9.030   2.455   1.015 -4.4721  2.2323  1.7106
 8044SOL     OW25808   0.123   4.865   3.483 -0.1086 -0.0671 -0.1482
 8044SOL    HW125809   0.136   4.848   3.390  1.5061 -0.6643  0.1639
 8044SOL    HW225810   0.119   4.778   3.523  1.4708  0.1998  0.6154
 8045SOL     OW25811   8.709   4.284   2.099 -1.0441 -0.5285  0.2094
 8045SOL    HW125812   8.677   4.277   2.189 -0.1999  0.4312  0.5854
 8045SOL    HW225813   8.639   4.329   2.053 -1.1509 -0.3276  0.5622
 8046SOL     OW25814   2.952   3.139   5.569  0.2437  0.3875 -0.2051
 8046SOL    HW125815   2.960   3.150   5.664 -1.9804  1.1890 -0.1025
 8046SOL    HW225816   2.988   3.052   5.553  0.6093  0.2253  1.3790
 8047SOL     OW25817   8.234   7.718   6.592  0.2205  0.6189 -0.2309
 8047SOL    HW125818   8.283   7.799   6.577 -2.6839  2.4654 -0.0494
 8047SOL    HW225819   8.154   7.745   6.635 -1.1357 -2.2872 -0.7695
 8048SOL     OW25820   5.552   5.057   1.986  0.1800  0.8874  0.2060
 8048SOL    HW125821   5.496   5.079   1.912  0.4322  1.3355  0.1534
 8048SOL    HW225822   5.623   5.005   1.948 -1.4356 -1.7105  0.5917
 8049SOL     OW25823   5.669   2.594   7.727 -0.8794  0.3768 -0.1472
 8049SOL    HW125824   5.623   2.567   7.806 -0.3394 -0.7642 -0.2098
 8049SOL    HW225825   5.635   2.681   7.707 -1.3997  0.4452  1.0392
 8050SOL     OW25826   8.684   6.925   1.084  0.2839 -0.1456  0.2707
 8050SOL    HW125827   8.714   6.837   1.062 -0.0103 -0.4066  0.8912
 8050SOL    HW225828   8.618   6.912   1.153  0.2694  0.5583  0.4025
 8051SOL     OW25829   5.559   4.006   8.427  0.7464 -0.2262  0.4948
 8051SOL    HW125830   5.464   4.004   8.429  0.7196  0.9711  1.7004
 8051SOL    HW225831   5.586   3.915   8.438 -0.2538 -0.6268 -0.3452
 8052SOL     OW25832   4.462   9.153   3.914  0.3462 -0.4181 -0.1887
 8052SOL    HW125833   4.506   9.170   3.998 -0.0399 -0.1015 -0.0501
 8052SOL    HW225834   4.531   9.119   3.858  0.3599 -1.7348  0.6095
 8053SOL     OW25835   3.260   8.576   8.317  0.9134  0.2971 -0.3632
 8053SOL    HW125836   3.203   8.606   8.388  1.4262 -1.0546  0.6357
 8053SOL    HW225837   3.234   8.629   8.242 -1.1716  0.2180  0.2688
 8054SOL     OW25838   7.226   2.845   7.920  0.5636 -0.0274  0.4772
 8054SOL    HW125839   7.230   2.750   7.910 -1.3747 -0.0830  0.1107
 8054SOL    HW225840   7.239   2.860   8.014 -1.7162 -0.8428  0.9582
 8055SOL     OW25841   2.382   7.925   0.050  0.3583  0.2491 -0.7209
 8055SOL    HW125842   2.442   7.917   0.124 -0.0824 -2.0353 -0.5588
 8055SOL    HW225843   2.302   7.960   0.087  0.3154 -0.3856 -0.1969
 8056SOL     OW25844   1.373   8.316   6.204 -0.1371 -0.0558 -0.0866
 8056SOL    HW125845   1.359   8.388   6.142 -1.0838  0.3166  0.5560
 8056SOL    HW225846   1.428   8.254   6.156 -1.5527 -0.1575 -1.6133
 8057SOL     OW25847   6.745   0.580   1.152  0.6154  0.1516 -0.3116
 8057SOL    HW125848   6.692   0.568   1.074 -1.0242  1.3280  0.5931
 8057SOL    HW225849   6.829   0.613   1.120 -0.5572  2.0729 -1.4643
 8058SOL     OW25850   0.361   2.428   9.189  0.0613 -0.2532  0.6378
 8058SOL    HW125851   0.327   2.515   9.208  0.3358  0.2414 -1.0784
 8058SOL    HW225852   0.396   2.434   9.100 -0.1480 -2.1690  0.3938
 8059SOL     OW25853   5.025   0.062   4.590  0.4586 -0.5519  0.4745
 8059SOL    HW125854   4.958   0.121   4.625 -0.3123 -0.8715 -0.4593
 8059SOL    HW225855   5.019   0.071   4.495 -1.6626 -4.2947  0.1565
 8060SOL     OW25856   0.011   4.402   4.729  0.1670  0.1573  0.0567
 8060SOL    HW125857  -0.070   4.357   4.703 -0.4835  1.3326  0.0313
 8060SOL    HW225858   0.004   4.409   4.824 -0.0501  0.8220 -0.0109
 8061SOL     OW25859   7.846   0.733   0.589  0.6595  0.1521 -0.5262
 8061SOL    HW125860   7.803   0.792   0.651  2.0056  0.6397 -0.0279
 8061SOL    HW225861   7.784   0.725   0.517  0.2568  1.8418 -0.4061
 8062SOL     OW25862   1.218   8.785   6.593 -0.4100 -0.2379 -0.0750
 8062SOL    HW125863   1.271   8.817   6.520 -0.4560 -0.5751 -0.2624
 8062SOL    HW225864   1.263   8.705   6.622  0.0872  0.3650  0.8336
 8063SOL     OW25865   7.656   8.087   1.382  0.3211 -0.3815  0.2833
 8063SOL    HW125866   7.611   8.154   1.432 -0.7853 -1.6157  0.9589
 8063SOL    HW225867   7.683   8.022   1.447  2.0060 -0.2697 -0.2659
 8064SOL     OW25868   6.658   6.134   8.855  0.0249  0.2377  0.3397
 8064SOL    HW125869   6.699   6.062   8.903 -0.3592  0.0979  0.4657
 8064SOL    HW225870   6.698   6.132   8.769 -0.2303 -0.3443  0.2328
 8065SOL     OW25871   8.386   1.448   3.571 -0.4072 -0.3526  0.4555
 8065SOL    HW125872   8.462   1.478   3.521 -1.3941 -1.6091 -1.8657
 8065SOL    HW225873   8.338   1.529   3.591  1.0939  0.3662  1.2423
 8066SOL     OW25874   8.487   3.028   6.801 -0.0740  0.2474  0.3591
 8066SOL    HW125875   8.401   3.061   6.774  0.3010 -0.1298 -1.2993
 8066SOL    HW225876   8.548   3.096   6.774  0.3716 -0.4241 -0.3276
 8067SOL     OW25877   2.836   5.661   0.965  0.2320 -0.3142  0.3225
 8067SOL    HW125878   2.794   5.577   0.945  0.8332 -0.9548  1.7054
 8067SOL    HW225879   2.910   5.666   0.905  0.2367 -0.8068  0.2861
 8068SOL     OW25880   4.552   4.843   6.109  0.0677 -0.0857 -0.3734
 8068SOL    HW125881   4.524   4.752   6.095 -2.0097  0.4920 -0.1360
 8068SOL    HW225882   4.553   4.881   6.021 -2.4334  0.5735 -0.1632
 8069SOL     OW25883   3.239   0.669   8.738 -0.4844  0.1008 -0.5395
 8069SOL    HW125884   3.292   0.720   8.799 -0.0384 -1.9246  0.8114
 8069SOL    HW225885   3.169   0.633   8.792 -1.2965 -0.0305 -1.6584
 8070SOL     OW25886   3.220   6.934   2.690 -0.7134 -0.4149 -0.3882
 8070SOL    HW125887   3.194   6.850   2.652 -1.9441 -0.3080  0.1908
 8070SOL    HW225888   3.139   6.985   2.692 -0.1069  0.5552 -0.1350
 8071SOL     OW25889   0.994   6.602   4.377 -0.3051 -0.3259 -0.1728
 8071SOL    HW125890   0.911   6.577   4.338 -1.3368  0.8431  1.1979
 8071SOL    HW225891   1.042   6.646   4.306 -1.6185  0.6357 -0.4749
 8072SOL     OW25892   2.236   5.352   0.179  0.0115 -0.1194  0.1127
 8072SOL    HW125893   2.168   5.388   0.122 -0.2887  0.1640  0.6494
 8072SOL    HW225894   2.245   5.261   0.149 -1.9534 -0.7273  1.2648
 8073SOL     OW25895   0.028   0.309   8.682  0.6135 -0.4289 -0.1459
 8073SOL    HW125896  -0.004   0.396   8.661 -3.2228 -1.7071 -0.1320
 8073SOL    HW225897   0.010   0.299   8.775  1.1564 -1.1663 -0.1185
 8074SOL     OW25898   6.998   7.389   1.835 -0.2049  0.2657  0.3241
 8074SOL    HW125899   7.019   7.422   1.748 -2.7792 -0.2187 -0.5071
 8074SOL    HW225900   6.988   7.467   1.889 -0.1662  0.6165 -0.1731
 8075SOL     OW25901   0.657   5.499   7.129 -0.5559 -0.5672 -0.1595
 8075SOL    HW125902   0.703   5.483   7.047  0.0029 -0.2347  0.0896
 8075SOL    HW225903   0.564   5.489   7.107 -0.6627  2.8913 -1.6474
 8076SOL     OW25904   2.498   7.738   3.862  0.3064  0.1275 -0.7761
 8076SOL    HW125905   2.577   7.696   3.829  0.4650  0.7261 -1.1795
 8076SOL    HW225906   2.468   7.793   3.789 -1.5723 -1.5698 -1.3089
 8077SOL     OW25907   2.084   5.158   7.261 -0.5327  0.0059  0.0449
 8077SOL    HW125908   2.026   5.088   7.293  0.9426 -1.0905  0.3366
 8077SOL    HW225909   2.157   5.158   7.322 -0.3420  1.5745 -0.1798
 8078SOL     OW25910   4.694   0.689   1.749  0.0926  0.3000 -0.1638
 8078SOL    HW125911   4.716   0.609   1.702  0.7371  1.2782 -1.5656
 8078SOL    HW225912   4.638   0.738   1.689  0.0808  1.1105  0.4909
 8079SOL     OW25913   8.447   3.452   2.287 -0.0106  0.1615 -0.5126
 8079SOL    HW125914   8.365   3.439   2.334  1.3331 -1.5678  1.3933
 8079SOL    HW225915   8.454   3.547   2.276 -1.1517  0.4589  1.2939
 8080SOL     OW25916   3.574   0.081   2.743  0.6505  0.5052 -0.1344
 8080SOL    HW125917   3.490   0.068   2.786 -0.2094  0.2733 -1.8526
 8080SOL    HW225918   3.558   0.149   2.678  2.8531  3.5770  2.4171
 8081SOL     OW25919   5.701   4.786   4.518 -0.5153  0.2076 -0.2360
 8081SOL    HW125920   5.753   4.750   4.590  0.6054 -1.7279 -1.9830
 8081SOL    HW225921   5.629   4.724   4.507 -0.5615  0.3821 -0.9307
 8082SOL     OW25922   6.755   4.822   6.679  0.0622  0.1763  0.1244
 8082SOL    HW125923   6.682   4.852   6.625  0.1420  0.2876  0.0760
 8082SOL    HW225924   6.831   4.870   6.645  0.2161 -0.1779 -0.0394
 8083SOL     OW25925   9.123   5.631   8.095  0.0087  0.7620  0.3306
 8083SOL    HW125926   9.125   5.600   8.185 -1.2443 -1.0676 -0.2405
 8083SOL    HW225927   9.049   5.693   8.092  1.0037  2.0063  0.8943
 8084SOL     OW25928   3.485   6.765   9.181  0.3710  0.1753 -0.3039
 8084SOL    HW125929   3.502   6.858   9.194 -1.0957  0.3714  0.3789
 8084SOL    HW225930   3.417   6.762   9.113  0.6677 -0.4089 -0.5763
 8085SOL     OW25931   2.805   2.391   3.018 -0.3029 -0.6991 -0.1102
 8085SOL    HW125932   2.823   2.361   3.108  0.6973 -2.0552 -0.7474
 8085SOL    HW225933   2.710   2.396   3.013 -0.3295  0.8432  1.4964
 8086SOL     OW25934   6.658   7.721   5.873 -0.0459  0.2951  0.2418
 8086SOL    HW125935   6.620   7.684   5.794  0.6068 -1.3563  0.6719
 8086SOL    HW225936   6.590   7.777   5.909 -0.3267  1.0960 -1.5138
 8087SOL     OW25937   5.492   5.834   4.680 -0.3869  0.0128  0.4929
 8087SOL    HW125938   5.506   5.790   4.596 -0.6264 -0.4904  0.7157
 8087SOL    HW225939   5.398   5.827   4.696 -0.1704 -0.9756  1.3982
 8088SOL     OW25940   1.124   1.831   1.931  0.4892  0.1952 -0.4262
 8088SOL    HW125941   1.187   1.812   2.000 -0.4257 -0.8644  0.1277
 8088SOL    HW225942   1.039   1.808   1.968 -0.1437  0.7664 -1.4773
 8089SOL     OW25943   2.395   3.198   0.616  0.5803  0.1298 -0.0577
 8089SOL    HW125944   2.303   3.197   0.642  0.7003 -1.6639  0.3270
 8089SOL    HW225945   2.392   3.198   0.520  0.1838  0.2145 -0.0466
 8090SOL     OW25946   0.753   0.835   2.448  0.1722  0.1023  0.0500
 8090SOL    HW125947   0.824   0.880   2.401  0.8645 -1.7976 -0.7888
 8090SOL    HW225948   0.673   0.869   2.409  0.6815  0.7663 -0.4357
 8091SOL     OW25949   8.360   8.010   0.443  0.4140  0.0417  0.6991
 8091SOL    HW125950   8.300   7.940   0.468  0.0313 -0.8564 -2.4855
 8091SOL    HW225951   8.321   8.090   0.480 -1.7017 -0.7888  0.3437
 8092SOL     OW25952   7.781   5.056   8.971 -0.2056  0.0689 -0.1619
 8092SOL    HW125953   7.688   5.038   8.961  0.1274 -2.4818  0.7777
 8092SOL    HW225954   7.788   5.099   9.057 -0.4617 -0.2322  0.0101
 8093SOL     OW25955   3.784   7.605   3.584 -0.1834 -0.4590  0.5392
 8093SOL    HW125956   3.870   7.636   3.613  0.7823 -2.0637 -0.5981
 8093SOL    HW225957   3.789   7.602   3.489 -1.4079 -0.8348  0.4688
 8094SOL     OW25958   9.156   0.085   4.241  0.3421 -0.0578  0.4265
 8094SOL    HW125959   9.075   0.034   4.251  0.3113 -0.0046  0.4485
 8094SOL    HW225960   9.150   0.152   4.310  0.5260 -0.2124  0.5901
 8095SOL     OW25961   8.830   1.527   7.707  0.1350  0.5382  0.1665
 8095SOL    HW125962   8.888   1.518   7.783  1.5035  0.5927 -0.8665
 8095SOL    HW225963   8.885   1.504   7.632 -2.1903 -3.1569 -0.5229
 8096SOL     OW25964   5.847   4.434   1.124  0.0720 -0.0564 -0.7667
 8096SOL    HW125965   5.827   4.384   1.203  1.2546 -0.8969 -0.9917
 8096SOL    HW225966   5.936   4.465   1.137 -0.7096  2.1869 -0.5383
 8097SOL     OW25967   5.780   3.477   0.746 -0.5340  0.1512 -0.3546
 8097SOL    HW125968   5.721   3.458   0.819  0.9963  0.1667  0.8944
 8097SOL    HW225969   5.727   3.458   0.668 -1.0359 -3.3168  0.7505
 8098SOL     OW25970   8.965   3.298   3.992 -0.2518  0.2322  0.0412
 8098SOL    HW125971   8.919   3.223   4.029 -0.1763  0.3326  0.3473
 8098SOL    HW225972   8.992   3.270   3.905 -0.8108  0.1380 -0.1044
 8099SOL     OW25973   4.003   7.632   4.848 -0.1577 -0.0410 -0.1298
 8099SOL    HW125974   3.983   7.656   4.758 -1.2103 -1.2127 -0.2250
 8099SOL    HW225975   4.030   7.540   4.843 -1.8324 -0.6150  0.9407
 8100SOL     OW25976   7.139   6.921   5.330  0.1704 -0.0764 -0.3944
 8100SOL    HW125977   7.095   6.835   5.330  0.1324 -0.0691  1.2000
 8100SOL    HW225978   7.073   6.981   5.365  0.8698  0.2508  0.3634
 8101SOL     OW25979   0.775   2.033   0.905  0.3792  0.7264 -0.4398
 8101SOL    HW125980   0.822   2.044   0.822  0.8561 -0.8234 -0.3936
 8101SOL    HW225981   0.796   1.944   0.933  0.3542  1.2919  1.4405
 8102SOL     OW25982   4.558   8.580   8.264  0.0041 -0.5052  0.1263
 8102SOL    HW125983   4.487   8.591   8.326 -0.5029 -2.6136 -0.0608
 8102SOL    HW225984   4.604   8.502   8.293  0.8199 -0.5154 -1.1310
 8103SOL     OW25985   7.170   7.621   2.403 -0.1076  0.1885  0.0691
 8103SOL    HW125986   7.113   7.696   2.386  0.2385  0.2841 -0.6650
 8103SOL    HW225987   7.117   7.545   2.381 -0.0357  0.2664 -0.3683
 8104SOL     OW25988   8.144   4.975   1.817  0.1375 -0.0183 -0.0236
 8104SOL    HW125989   8.106   4.948   1.900  0.6436  0.2597  0.2981
 8104SOL    HW225990   8.236   4.992   1.836 -0.0182  1.2511 -0.3667
 8105SOL     OW25991   2.458   5.497   2.665  0.3059  0.3576 -0.5078
 8105SOL    HW125992   2.456   5.589   2.637 -0.4688 -0.1841 -2.2934
 8105SOL    HW225993   2.366   5.471   2.670  0.5530 -0.7706 -1.5539
 8106SOL     OW25994   5.664   4.502   3.553 -0.2829  0.2079 -0.2840
 8106SOL    HW125995   5.702   4.573   3.604  0.2389  0.3525 -0.8695
 8106SOL    HW225996   5.705   4.423   3.589 -1.8878  0.0697  1.2932
 8107SOL     OW25997   3.966   7.379   3.385  0.2578 -0.0856  0.6403
 8107SOL    HW125998   4.045   7.380   3.438  0.4313  0.5616  0.3743
 8107SOL    HW225999   3.948   7.471   3.367 -0.4566 -0.2394  0.5534
 8108SOL     OW26000   1.039   7.511   4.111  0.5498  0.5271 -0.3270
 8108SOL    HW126001   1.087   7.506   4.028  0.8773 -0.4142 -0.0880
 8108SOL    HW226002   0.980   7.586   4.101  0.1322  0.0224 -1.6399
 8109SOL     OW26003   6.969   6.565   1.414 -0.0165  0.1126  0.6229
 8109SOL    HW126004   7.047   6.611   1.384 -1.3342  1.8718 -0.2399
 8109SOL    HW226005   6.976   6.566   1.510  0.7523  0.7420  0.5644
 8110SOL     OW26006   3.940   6.638   5.651  0.4160 -0.3981  0.4406
 8110SOL    HW126007   4.024   6.596   5.671  0.0022 -0.5142  2.0561
 8110SOL    HW226008   3.937   6.714   5.709 -0.5917 -0.4148  0.4276
 8111SOL     OW26009   1.035   4.659   1.605  0.2824 -0.4682 -0.6221
 8111SOL    HW126010   1.110   4.685   1.659  0.5872 -0.9166 -0.8286
 8111SOL    HW226011   0.978   4.611   1.665 -0.9431  1.8476  0.1039
 8112SOL     OW26012   0.819   1.588   7.062  0.9350  0.0570 -0.4822
 8112SOL    HW126013   0.910   1.598   7.089  1.0022 -2.1201  0.1933
 8112SOL    HW226014   0.769   1.633   7.130  1.5546  3.1251 -1.9582
 8113SOL     OW26015   7.671   8.801   3.989 -0.2600  0.0999 -0.2480
 8113SOL    HW126016   7.659   8.759   4.075  1.7333  0.1943  0.0887
 8113SOL    HW226017   7.660   8.895   4.007  1.5859  0.2384  0.1746
 8114SOL     OW26018   8.575   8.847   5.059 -0.0152  0.0884  0.0502
 8114SOL    HW126019   8.570   8.790   5.136  0.8401 -0.6887 -0.4478
 8114SOL    HW226020   8.546   8.791   4.987  0.5442  0.3759 -0.4019
 8115SOL     OW26021   7.189   2.291   3.219  0.1791 -0.2743 -0.6244
 8115SOL    HW126022   7.231   2.210   3.248  0.6672  0.5436  1.0202
 8115SOL    HW226023   7.099   2.266   3.201  0.3887 -1.2371 -0.3642
 8116SOL     OW26024   1.366   3.248   0.436 -0.1778 -0.1656 -0.0613
 8116SOL    HW126025   1.287   3.262   0.383 -0.9585  0.3621  1.2056
 8116SOL    HW226026   1.345   3.287   0.521  1.7906  0.8074  0.0194
 8117SOL     OW26027   8.450   1.975   3.696  0.2075  0.8196  0.3112
 8117SOL    HW126028   8.475   1.903   3.754  1.8192  1.0943 -0.0239
 8117SOL    HW226029   8.390   1.936   3.633  0.0994  0.0639  0.8758
 8118SOL     OW26030   1.269   2.688   3.108 -0.4251  0.2134  0.3976
 8118SOL    HW126031   1.333   2.718   3.044  1.0654 -1.6645  0.9436
 8118SOL    HW226032   1.306   2.713   3.193 -1.1588  0.4580  0.6526
 8119SOL     OW26033   8.528   1.236   8.889 -0.2984 -0.2803 -0.2175
 8119SOL    HW126034   8.521   1.328   8.914 -1.4349  0.1254 -1.9175
 8119SOL    HW226035   8.568   1.237   8.802  0.7102 -1.4651  0.2131
 8120SOL     OW26036   7.963   0.904   9.092 -0.6276  0.2846  0.0454
 8120SOL    HW126037   7.960   0.898   9.188  0.6441 -1.4640  0.0088
 8120SOL    HW226038   8.051   0.938   9.073 -0.2499 -1.0024 -0.5496
 8121SOL     OW26039   0.383   3.521   4.430 -0.0260 -0.2471 -0.0235
 8121SOL    HW126040   0.406   3.433   4.400 -0.9487 -0.7328  0.6947
 8121SOL    HW226041   0.436   3.579   4.375  0.1821 -1.2240 -0.8676
 8122SOL     OW26042   0.687   4.675   8.717 -0.3780 -0.0662  0.5385
 8122SOL    HW126043   0.739   4.755   8.703 -1.0792  0.5416  1.3520
 8122SOL    HW226044   0.749   4.604   8.703  0.3132  0.6265  0.0181
 8123SOL     OW26045   3.649   8.401   5.596  0.2408  0.0251 -0.2842
 8123SOL    HW126046   3.638   8.490   5.629  1.4022  0.2240 -0.4065
 8123SOL    HW226047   3.660   8.411   5.502  1.4127 -0.1550 -0.1714
 8124SOL     OW26048   5.270   0.496   6.707 -0.2022 -0.0990 -0.0436
 8124SOL    HW126049   5.357   0.515   6.743 -0.2463 -0.0585  0.0409
 8124SOL    HW226050   5.219   0.466   6.782 -0.2158 -0.2743 -0.1226
 8125SOL     OW26051   3.623   1.640   6.112 -0.0215  0.2840 -0.2775
 8125SOL    HW126052   3.652   1.703   6.179  1.2159 -1.6468  1.0366
 8125SOL    HW226053   3.689   1.572   6.113 -1.2607 -0.9703 -1.8242
 8126SOL     OW26054   7.128   7.934   4.748 -0.3103 -0.2398 -0.7837
 8126SOL    HW126055   7.118   7.951   4.842 -0.1247 -0.2697 -0.7577
 8126SOL    HW226056   7.082   7.852   4.733  0.5540 -0.7834 -0.5186
 8127SOL     OW26057   7.865   7.803   5.309  0.1058 -0.2806  0.0269
 8127SOL    HW126058   7.911   7.878   5.271  1.0976 -0.0550  1.6305
 8127SOL    HW226059   7.907   7.727   5.271 -0.1417 -0.0424 -0.7338
 8128SOL     OW26060   7.916   1.048   7.977 -0.1945  0.2599 -0.2924
 8128SOL    HW126061   7.919   0.982   8.046 -1.4016 -1.0439 -1.4786
 8128SOL    HW226062   7.826   1.078   7.976  0.1097  1.1836 -0.4644
 8129SOL     OW26063   5.447   1.088   1.779  0.5918  0.2817 -0.2052
 8129SOL    HW126064   5.359   1.100   1.814  0.9564  0.0921  0.7942
 8129SOL    HW226065   5.443   1.126   1.691 -0.7349 -0.5547 -0.5325
 8130SOL     OW26066   3.937   0.352   3.344  0.6835  0.0196 -0.3220
 8130SOL    HW126067   4.010   0.412   3.347  0.6388  0.2377 -2.7042
 8130SOL    HW226068   3.956   0.294   3.270 -1.0166 -0.5819 -0.3207
 8131SOL     OW26069   2.446   5.866   1.331  0.2471 -0.0270 -0.0073
 8131SOL    HW126070   2.498   5.837   1.256 -0.9833 -3.7164  0.4550
 8131SOL    HW226071   2.507   5.862   1.405  1.0338  2.0843 -0.5144
 8132SOL     OW26072   7.600   6.257   5.929 -0.2648  0.1840 -0.0708
 8132SOL    HW126073   7.533   6.319   5.899 -3.6491 -3.2488  0.0898
 8132SOL    HW226074   7.633   6.217   5.849 -1.2831 -0.9676  0.0762
 8133SOL     OW26075   1.049   4.540   5.704  0.0896  0.4880  0.5452
 8133SOL    HW126076   1.059   4.445   5.697 -0.7912  0.4006  0.4690
 8133SOL    HW226077   1.135   4.574   5.677  0.3219 -0.2697  0.2873
 8134SOL     OW26078   6.507   2.305   5.449 -0.1859 -0.4471  0.4471
 8134SOL    HW126079   6.582   2.342   5.494 -1.2550  0.3872  1.5501
 8134SOL    HW226080   6.545   2.249   5.381  1.4186  1.0941  0.0600
 8135SOL     OW26081   5.008   4.120   2.153 -0.1540  0.5755 -0.4601
 8135SOL    HW126082   4.922   4.078   2.161  0.2882 -0.2556 -0.0211
 8135SOL    HW226083   5.070   4.052   2.179  0.6461  1.1393 -0.8891
 8136SOL     OW26084   6.678   2.669   2.343  0.2740  0.0575  0.2630
 8136SOL    HW126085   6.771   2.650   2.346  0.5887  1.4244 -0.4834
 8136SOL    HW226086   6.639   2.611   2.409  1.7140 -0.1214  0.9692
 8137SOL     OW26087   8.726   8.568   6.356 -0.0120 -0.2184 -0.0780
 8137SOL    HW126088   8.745   8.538   6.267  3.1795  3.2779 -0.7230
 8137SOL    HW226089   8.631   8.582   6.357 -0.4194 -2.5532 -2.1628
 8138SOL     OW26090   1.782   7.688   9.006 -0.0150  0.0986  1.0798
 8138SOL    HW126091   1.734   7.769   8.989 -0.0013  0.1562  1.3029
 8138SOL    HW226092   1.802   7.692   9.100  0.7042  0.2261  0.9229
 8139SOL     OW26093   0.983   0.394   8.672  0.0163  0.8312 -0.3085
 8139SOL    HW126094   0.914   0.445   8.714  0.1907  0.0543  0.9388
 8139SOL    HW226095   0.994   0.435   8.586 -2.2110  0.7675 -0.6462
 8140SOL     OW26096   3.948   8.574   6.402 -0.6187 -0.3778  0.1924
 8140SOL    HW126097   3.967   8.660   6.439  1.2681 -1.1109  0.9827
 8140SOL    HW226098   3.898   8.528   6.470 -1.2800 -0.0650 -0.0745
 8141SOL     OW26099   4.765   4.979   7.628  0.4005 -0.1209 -0.3313
 8141SOL    HW126100   4.812   4.896   7.622 -1.3996 -1.1696 -0.5491
 8141SOL    HW226101   4.736   4.983   7.719  0.9129  0.5116 -0.1979
 8142SOL     OW26102   0.472   8.075   5.992 -0.0575  0.2533  0.4960
 8142SOL    HW126103   0.473   8.000   6.051 -0.9415  0.4579  0.7739
 8142SOL    HW226104   0.452   8.038   5.906  2.9522 -0.2803 -0.0355
 8143SOL     OW26105   3.935   6.799   8.633  0.5139 -0.1535  0.0189
 8143SOL    HW126106   3.873   6.803   8.560  1.9204  0.1277 -1.1738
 8143SOL    HW226107   3.940   6.706   8.655 -0.3037 -0.1803  0.1072
 8144SOL     OW26108   7.636   1.601   2.280  0.1312 -0.5007  0.0041
 8144SOL    HW126109   7.645   1.668   2.212 -0.9034 -1.3167 -0.9580
 8144SOL    HW226110   7.550   1.618   2.319  0.8136  0.1111  1.3059
 8145SOL     OW26111   8.519   6.791   1.877  0.6121  0.0338  0.1158
 8145SOL    HW126112   8.439   6.815   1.830 -0.1453 -2.1069  0.2529
 8145SOL    HW226113   8.584   6.777   1.809  0.3220 -0.1847 -0.1153
 8146SOL     OW26114   6.254   8.831   1.609 -0.1627  0.0326 -0.3730
 8146SOL    HW126115   6.301   8.887   1.671 -0.7084  0.7283 -0.5812
 8146SOL    HW226116   6.162   8.855   1.620 -0.4237 -1.0104 -0.2799
 8147SOL     OW26117   0.858   1.890   7.007  0.2904 -0.1737  0.2875
 8147SOL    HW126118   0.897   1.844   7.082  4.1585  2.1500 -0.1772
 8147SOL    HW226119   0.769   1.911   7.036  0.5726 -2.2867  2.9064
 8148SOL     OW26120   7.727   6.699   7.497 -0.4775 -0.3977  0.1249
 8148SOL    HW126121   7.807   6.750   7.483 -0.4806 -1.0511 -2.4328
 8148SOL    HW226122   7.752   6.632   7.560  1.0246 -0.6600 -0.7275
 8149SOL     OW26123   6.954   8.363   4.455  0.3949 -0.0012  0.0890
 8149SOL    HW126124   6.994   8.277   4.466 -0.2612 -0.3511 -0.1763
 8149SOL    HW226125   6.860   8.347   4.463  0.3332  0.9231  1.4511
 8150SOL     OW26126   3.329   5.961   3.234  0.6284 -0.1029 -0.7178
 8150SOL    HW126127   3.395   5.972   3.166  0.5596 -1.7781 -1.0852
 8150SOL    HW226128   3.354   6.023   3.303  3.5372 -1.8321 -0.1323
 8151SOL     OW26129   2.635   4.149   0.267 -0.3109  0.1712 -0.0617
 8151SOL    HW126130   2.595   4.184   0.187 -2.4448  1.2689  1.4457
 8151SOL    HW226131   2.580   4.073   0.290  1.1708 -1.0306 -0.4180
 8152SOL     OW26132   0.835   4.606   3.210  0.2021  0.4986  0.1018
 8152SOL    HW126133   0.871   4.594   3.298 -0.0683 -1.9460 -0.0938
 8152SOL    HW226134   0.767   4.539   3.203 -0.0958  0.9865 -1.8048
 8153SOL     OW26135   6.794   5.507   2.354  0.4324 -0.0326  0.2533
 8153SOL    HW126136   6.855   5.568   2.396  0.2666 -0.4634  1.1333
 8153SOL    HW226137   6.711   5.519   2.400  0.4473 -1.0554  0.5667
 8154SOL     OW26138   6.952   8.395   4.956 -0.9471  0.5377  0.5495
 8154SOL    HW126139   6.939   8.311   4.912  1.6711  0.6712 -0.6111
 8154SOL    HW226140   6.907   8.459   4.901 -1.0131  0.1781  0.1832
 8155SOL     OW26141   6.341   3.375   4.119 -0.6357 -0.3144  0.5075
 8155SOL    HW126142   6.340   3.324   4.199 -0.3943 -0.0242  0.6950
 8155SOL    HW226143   6.265   3.433   4.126 -1.6545 -1.5309 -0.2798
 8156SOL     OW26144   2.642   5.654   7.386 -0.4473 -0.0364  0.1277
 8156SOL    HW126145   2.694   5.703   7.451  2.0975 -2.8243  0.3026
 8156SOL    HW226146   2.587   5.597   7.439 -0.7334  0.0012 -0.1302
 8157SOL     OW26147   7.515   4.796   8.402 -0.3257 -0.6479 -0.2894
 8157SOL    HW126148   7.554   4.745   8.331  1.3356  0.8181 -0.4597
 8157SOL    HW226149   7.487   4.731   8.465  2.7258 -1.7745 -0.0059
 8158SOL     OW26150   3.134   4.307   7.653 -0.4074  0.1483 -0.8584
 8158SOL    HW126151   3.217   4.325   7.608  1.1066 -0.5716  1.5289
 8158SOL    HW226152   3.084   4.388   7.643  0.0969  0.1846 -3.3228
 8159SOL     OW26153   7.868   4.247   0.810 -0.2292 -0.7215 -0.4485
 8159SOL    HW126154   7.846   4.172   0.754 -2.3132 -1.6201  1.5098
 8159SOL    HW226155   7.887   4.208   0.896  1.2737  0.7873 -0.0694
 8160SOL     OW26156   0.905   5.996   0.208  0.8099  0.3741 -0.2460
 8160SOL    HW126157   0.953   6.077   0.195 -0.0643  0.7853 -0.9614
 8160SOL    HW226158   0.819   6.012   0.170 -0.3388  0.0969  2.1104
 8161SOL     OW26159   2.440   1.352   5.662 -0.3620 -0.9165  0.4270
 8161SOL    HW126160   2.416   1.428   5.715  1.5244 -0.5427  0.7779
 8161SOL    HW226161   2.473   1.390   5.580  2.3506 -1.2387  1.3156
 8162SOL     OW26162   5.234   3.093   2.186  0.4936 -0.4513  0.8495
 8162SOL    HW126163   5.142   3.067   2.180  0.8865 -1.6965  0.0680
 8162SOL    HW226164   5.244   3.161   2.119  1.1808 -3.5144 -2.3645
 8163SOL     OW26165   7.581   3.667   2.918 -0.2711 -0.5634 -0.2993
 8163SOL    HW126166   7.551   3.704   3.001 -2.3755 -0.2597 -1.1746
 8163SOL    HW226167   7.560   3.734   2.853 -1.6396 -2.1317 -1.5199
 8164SOL     OW26168   8.532   0.249   1.456  0.1854  0.4633  0.5870
 8164SOL    HW126169   8.598   0.303   1.411  0.7122  0.1782  1.0142
 8164SOL    HW226170   8.570   0.161   1.456 -1.0952 -0.1269 -0.9714
 8165SOL     OW26171   1.647   8.621   6.485  0.9177 -0.7786  0.2364
 8165SOL    HW126172   1.697   8.653   6.409 -0.2839  0.0187 -0.2432
 8165SOL    HW226173   1.555   8.626   6.457  0.5135 -1.3848  1.4121
 8166SOL     OW26174   0.155   8.476   6.994  0.6487 -0.5532  0.0648
 8166SOL    HW126175   0.159   8.522   6.910 -0.6318  0.0539  0.3298
 8166SOL    HW226176   0.109   8.536   7.053  1.1716 -1.1452  1.0964
 8167SOL     OW26177   1.635   1.766   7.447 -0.0431  0.2236  0.0230
 8167SOL    HW126178   1.571   1.695   7.436 -0.8278  1.3214 -2.7707
 8167SOL    HW226179   1.719   1.727   7.421 -0.2101 -0.1170 -0.0104
 8168SOL     OW26180   1.772   4.758   2.168 -0.8364 -0.3501 -0.2695
 8168SOL    HW126181   1.822   4.798   2.239 -1.1309  1.9695 -1.3322
 8168SOL    HW226182   1.703   4.822   2.148 -2.3403 -2.1294 -0.9005
 8169SOL     OW26183   9.086   4.443   8.883  0.0846  0.2943  0.4086
 8169SOL    HW126184   9.002   4.426   8.841  0.0909  2.3830 -0.4999
 8169SOL    HW226185   9.069   4.431   8.976 -0.4662 -2.2338  0.0244
 8170SOL     OW26186   8.900   2.601   9.220  0.2888  0.3256  0.0249
 8170SOL    HW126187   8.982   2.585   9.173  0.5074 -0.6952  0.7344
 8170SOL    HW226188   8.928   2.633   9.306 -0.0795  0.7875 -0.0259
 8171SOL     OW26189   4.879   1.296   9.100 -0.8172 -0.0764  0.4689
 8171SOL    HW126190   4.952   1.306   9.039  1.0474 -0.0064  2.6800
 8171SOL    HW226191   4.895   1.213   9.144 -3.1074 -0.9904 -0.3460
 8172SOL     OW26192   7.500   4.996   1.142 -0.3754 -0.6927 -0.2793
 8172SOL    HW126193   7.493   4.958   1.055  0.8021 -1.4733 -0.0427
 8172SOL    HW226194   7.512   4.922   1.201  4.0802  0.0603 -0.0609
 8173SOL     OW26195   6.865   4.574   0.498  0.3678 -0.4405  0.6920
 8173SOL    HW126196   6.774   4.544   0.508  0.4968 -1.3343 -0.7125
 8173SOL    HW226197   6.870   4.606   0.408  1.1906  0.5079  1.0706
 8174SOL     OW26198   4.637   5.558   4.434  0.0077  0.0679 -0.0214
 8174SOL    HW126199   4.592   5.597   4.358  0.2965  1.4329  0.4928
 8174SOL    HW226200   4.720   5.606   4.439  0.4384 -0.7443  0.5288
 8175SOL     OW26201   4.651   0.217   1.407 -0.5004  0.7814  0.1192
 8175SOL    HW126202   4.658   0.123   1.389 -0.0650  0.7169  0.6256
 8175SOL    HW226203   4.693   0.259   1.332 -2.9294  0.6556 -1.3677
 8176SOL     OW26204   2.867   4.626   4.218 -0.6409 -0.0636 -0.1331
 8176SOL    HW126205   2.892   4.576   4.141 -0.1110 -0.0371  0.0242
 8176SOL    HW226206   2.919   4.589   4.289 -4.0269 -2.8203  1.0450
 8177SOL     OW26207   3.903   0.891   6.515 -0.4956  0.1545  0.0864
 8177SOL    HW126208   3.875   0.957   6.453  1.6300  0.5363 -0.5100
 8177SOL    HW226209   3.855   0.812   6.490 -2.4555  1.2513  0.3193
 8178SOL     OW26210   3.607   7.256   8.033 -0.7276  0.3892  0.6690
 8178SOL    HW126211   3.554   7.333   8.054  0.2426  1.3849 -0.4203
 8178SOL    HW226212   3.562   7.183   8.075 -2.5201  1.3296  0.4172
 8179SOL     OW26213   3.552   9.074   8.259  0.0372 -0.4317 -0.1243
 8179SOL    HW126214   3.481   9.119   8.304  0.0295 -0.2795 -0.2856
 8179SOL    HW226215   3.620   9.063   8.326 -0.5578 -1.5375  0.3064
 8180SOL     OW26216   1.981   7.867   2.751 -0.0379  0.0486 -0.2512
 8180SOL    HW126217   1.966   7.926   2.826  0.2076  0.7455 -0.7438
 8180SOL    HW226218   1.966   7.780   2.786 -0.9570  0.4428  0.3567
 8181SOL     OW26219   0.165   8.837   0.752 -0.0839  0.1271 -0.6124
 8181SOL    HW126220   0.222   8.909   0.724  0.2442 -0.3873 -1.2773
 8181SOL    HW226221   0.225   8.770   0.784 -0.1944 -1.0347 -2.7277
 8182SOL     OW26222   5.524   1.750   0.394  0.6979  0.0813 -0.2537
 8182SOL    HW126223   5.539   1.700   0.313 -1.2649 -2.1944  0.7226
 8182SOL    HW226224   5.606   1.742   0.443  0.5110 -1.9888 -0.2498
 8183SOL     OW26225   8.106   1.051   3.416  0.0241 -0.3649 -0.2410
 8183SOL    HW126226   8.031   1.103   3.387  0.0065 -0.6213 -0.6564
 8183SOL    HW226227   8.176   1.115   3.428  0.2043 -0.3142 -1.4218
 8184SOL     OW26228   7.044   2.207   5.341  0.3089  0.0058 -0.0894
 8184SOL    HW126229   7.070   2.195   5.250  0.8230  1.4241 -0.1468
 8184SOL    HW226230   7.120   2.246   5.383 -0.2670  0.2820  0.7218
 8185SOL     OW26231   6.692   6.184   7.822 -0.0385  0.0514 -0.0616
 8185SOL    HW126232   6.710   6.098   7.861 -0.2564  0.1555  0.2708
 8185SOL    HW226233   6.774   6.232   7.833 -0.3711  0.3793  1.0734
 8186SOL     OW26234   4.472   2.628   8.153  0.2838 -0.4672  0.0303
 8186SOL    HW126235   4.512   2.658   8.235 -0.8266 -0.1924  0.4753
 8186SOL    HW226236   4.442   2.539   8.173 -1.5690  0.2410  0.4723
 8187SOL     OW26237   4.342   1.827   1.811 -0.3654 -0.3425  0.5588
 8187SOL    HW126238   4.417   1.856   1.759 -0.3368 -1.4758 -0.0538
 8187SOL    HW226239   4.340   1.887   1.886  2.1675 -1.2899  1.4634
 8188SOL     OW26240   4.005   5.992   8.936 -0.6322  0.0322  0.7651
 8188SOL    HW126241   3.925   6.042   8.915 -0.8289 -0.5593  0.0997
 8188SOL    HW226242   4.003   5.917   8.877  0.3329 -0.0868  0.8759
 8189SOL     OW26243   0.061   7.806   7.510 -0.4845  0.1451 -0.0661
 8189SOL    HW126244   0.120   7.805   7.434 -0.6940 -2.4994 -0.2406
 8189SOL    HW226245  -0.025   7.825   7.473  0.1926  3.8748  0.1707
 8190SOL     OW26246   7.137   4.951   3.149 -0.1556 -0.6343 -0.0878
 8190SOL    HW126247   7.043   4.947   3.167  0.0158 -2.7600  0.4966
 8190SOL    HW226248   7.176   4.891   3.213  1.5685 -0.1256 -0.6263
 8191SOL     OW26249   0.987   5.187   3.049  0.2873 -0.0785 -0.1017
 8191SOL    HW126250   1.035   5.160   3.127 -0.6599  0.1746  0.5801
 8191SOL    HW226251   0.912   5.127   3.046 -0.7403  1.1820  0.2977
 8192SOL     OW26252   9.146   8.158   1.498  0.3573  0.0288 -0.0856
 8192SOL    HW126253   9.135   8.143   1.592  0.8616 -0.0645 -0.0348
 8192SOL    HW226254   9.104   8.242   1.481  0.4464  0.1465  0.2649
 8193SOL     OW26255   3.611   2.607   1.093 -0.2095  0.2923 -0.3232
 8193SOL    HW126256   3.606   2.513   1.076  0.1664  0.2902 -0.4282
 8193SOL    HW226257   3.561   2.619   1.173  0.5514 -0.1447  0.2295
 8194SOL     OW26258   3.829   7.920   8.253 -0.4501 -0.0783  0.4125
 8194SOL    HW126259   3.757   7.883   8.303 -2.1067  1.1223 -0.9988
 8194SOL    HW226260   3.810   8.014   8.250 -0.9617 -0.2164 -3.2181
 8195SOL     OW26261   8.481   5.218   1.174 -0.1070  0.0657 -0.1167
 8195SOL    HW126262   8.488   5.311   1.152  0.6662  0.2523  0.8688
 8195SOL    HW226263   8.502   5.214   1.267 -1.9019 -0.8742  0.2783
 8196SOL     OW26264   2.846   0.275   1.418  0.5290  0.2600  0.0171
 8196SOL    HW126265   2.825   0.368   1.412  0.2723  0.3780  2.3186
 8196SOL    HW226266   2.940   0.271   1.401  0.6227  0.9925  0.3371
 8197SOL     OW26267   4.446   8.525   3.168 -0.4038 -0.0091 -0.1273
 8197SOL    HW126268   4.414   8.517   3.258  0.6603 -0.3406  0.2324
 8197SOL    HW226269   4.381   8.579   3.124 -1.7240 -1.1054  0.4407
 8198SOL     OW26270   2.137   6.938   0.140  0.0972  0.2004 -0.3402
 8198SOL    HW126271   2.205   6.913   0.078  1.8154  2.1514  0.6671
 8198SOL    HW226272   2.153   6.882   0.216  0.1700  0.1933 -0.3604
 8199SOL     OW26273   3.692   2.396   0.324 -0.0506  0.0199  0.3573
 8199SOL    HW126274   3.633   2.403   0.249 -0.0824  0.6387  0.4435
 8199SOL    HW226275   3.714   2.302   0.328 -1.3998 -0.2863  0.6180
 8200SOL     OW26276   5.428   0.872   8.344 -0.2908 -0.6450 -0.0482
 8200SOL    HW126277   5.483   0.904   8.415 -0.5506 -0.7766  0.2088
 8200SOL    HW226278   5.475   0.897   8.264 -0.7644  0.8788  0.1392
 8201SOL     OW26279   7.757   6.919   8.887 -0.0162 -0.1143  0.5367
 8201SOL    HW126280   7.749   6.829   8.855  1.8126 -0.1800  0.2101
 8201SOL    HW226281   7.845   6.923   8.925  0.3984  1.8922 -0.6073
 8202SOL     OW26282   5.664   8.019   4.534  0.5253  0.5965  0.2749
 8202SOL    HW126283   5.607   7.984   4.603 -0.2884 -0.4256 -0.8948
 8202SOL    HW226284   5.752   8.010   4.569  0.1374 -0.1968  1.0660
 8203SOL     OW26285   0.197   1.615   0.337 -0.1195  0.4668  0.0270
 8203SOL    HW126286   0.187   1.526   0.304  0.8956  0.4181 -0.1464
 8203SOL    HW226287   0.273   1.650   0.290 -0.9334  1.6695 -0.4526
 8204SOL     OW26288   3.558   6.087   4.419  0.5999  0.5117  0.2305
 8204SOL    HW126289   3.609   6.164   4.393  2.2364 -0.9123 -0.9428
 8204SOL    HW226290   3.590   6.066   4.507  0.8773  0.5878  0.1493
 8205SOL     OW26291   8.016   3.658   4.901 -0.4266  0.3005 -0.1067
 8205SOL    HW126292   8.110   3.645   4.889 -0.5380 -1.1588  0.4253
 8205SOL    HW226293   7.989   3.713   4.828  0.4993 -0.8640 -1.3467
 8206SOL     OW26294   6.889   3.504   2.619 -0.1243 -0.6586  0.6125
 8206SOL    HW126295   6.874   3.547   2.704 -1.4383  0.0409  0.0463
 8206SOL    HW226296   6.974   3.536   2.590  0.2446 -0.7487  1.5698
 8207SOL     OW26297   5.338   0.414   2.759  0.1284  0.2221  0.1961
 8207SOL    HW126298   5.422   0.451   2.729 -0.9878  1.2473 -1.7929
 8207SOL    HW226299   5.363   0.342   2.817  2.3655  2.3184  1.9495
 8208SOL     OW26300   2.891   5.761   2.542 -0.0717  0.4996 -0.7994
 8208SOL    HW126301   2.951   5.835   2.538  1.1662 -0.4407 -0.0397
 8208SOL    HW226302   2.832   5.781   2.615  0.2618  0.7450 -0.5969
 8209SOL     OW26303   6.742   2.045   2.472 -0.0527  0.1057 -0.0261
 8209SOL    HW126304   6.778   1.958   2.455 -1.0227 -0.6053  1.4877
 8209SOL    HW226305   6.659   2.047   2.426 -0.7273 -0.3172  1.1567
 8210SOL     OW26306   7.064   7.902   5.993  0.1448 -0.1784 -0.3453
 8210SOL    HW126307   7.108   7.819   5.975  1.0569  0.0579  0.7269
 8210SOL    HW226308   7.112   7.966   5.940 -0.5388 -0.3336 -1.1486
 8211SOL     OW26309   4.733   1.812   4.952  0.4557 -0.5378  0.3237
 8211SOL    HW126310   4.685   1.871   5.011  1.4405  0.2936  0.3152
 8211SOL    HW226311   4.710   1.724   4.982 -2.2162 -0.2052 -0.6081
 8212SOL     OW26312   6.387   5.551   5.505 -0.4353 -0.3992  0.2476
 8212SOL    HW126313   6.457   5.583   5.561 -1.6679  0.1045  1.5379
 8212SOL    HW226314   6.426   5.543   5.418  1.1654 -0.0070  0.9265
 8213SOL     OW26315   2.500   2.317   6.474 -0.1213  0.1825  0.3035
 8213SOL    HW126316   2.460   2.349   6.555 -3.7856 -1.4806 -0.7521
 8213SOL    HW226317   2.516   2.225   6.490 -1.2929 -0.2655 -0.9932
 8214SOL     OW26318   7.278   0.839   2.542  0.4667  0.0004 -0.3645
 8214SOL    HW126319   7.290   0.874   2.454  2.5256  0.4662  0.0725
 8214SOL    HW226320   7.336   0.763   2.547  0.2467 -0.1246  0.5331
 8215SOL     OW26321   8.335   6.925   1.671  0.7224 -0.4370 -0.0122
 8215SOL    HW126322   8.305   7.003   1.717 -0.2085 -0.4347 -0.5983
 8215SOL    HW226323   8.265   6.906   1.609  1.0571 -1.5874 -0.0521
 8216SOL     OW26324   8.317   2.461   8.088  0.0703  0.0718  0.7770
 8216SOL    HW126325   8.285   2.486   8.001 -0.1630 -0.8981  0.5861
 8216SOL    HW226326   8.406   2.429   8.073  0.4532  0.9575  1.0599
 8217SOL     OW26327   1.870   7.750   7.408 -0.5949 -0.5937 -0.1964
 8217SOL    HW126328   1.898   7.836   7.440 -2.2093 -0.7704  1.8361
 8217SOL    HW226329   1.919   7.737   7.327  0.3503  1.8390 -0.0593
 8218SOL     OW26330   4.225   2.418   0.135 -0.2056 -0.2214 -0.0700
 8218SOL    HW126331   4.273   2.337   0.124 -0.9896 -0.6282 -0.5237
 8218SOL    HW226332   4.281   2.472   0.191  0.6033 -0.8234 -0.3002
 8219SOL     OW26333   3.519   8.594   8.042 -0.0348  0.4581  0.8629
 8219SOL    HW126334   3.509   8.594   7.947 -0.7736 -0.1095  0.9309
 8219SOL    HW226335   3.465   8.667   8.072 -0.1292  0.3882  0.8673
 8220SOL     OW26336   0.278   3.137   6.904 -0.2146  0.3247  0.2711
 8220SOL    HW126337   0.217   3.064   6.920  0.8595 -0.6121  0.1746
 8220SOL    HW226338   0.228   3.215   6.927 -1.6595 -0.3758 -0.3752
 8221SOL     OW26339   4.711   0.254   7.503  0.2077 -0.1794  0.1010
 8221SOL    HW126340   4.646   0.240   7.434 -0.3819  0.7041  0.4611
 8221SOL    HW226341   4.691   0.188   7.569 -0.3252  0.0916  0.2106
 8222SOL     OW26342   3.640   5.669   6.673  0.3725  0.2416 -0.3973
 8222SOL    HW126343   3.651   5.709   6.760  0.7404 -0.5858 -0.0617
 8222SOL    HW226344   3.677   5.582   6.682  0.7306  0.2787 -1.4949
 8223SOL     OW26345   6.763   7.344   4.298 -0.0717  0.1835  0.3665
 8223SOL    HW126346   6.765   7.333   4.203 -0.2384  2.4507  0.0668
 8223SOL    HW226347   6.846   7.308   4.328  0.0089 -0.4945 -0.6486
 8224SOL     OW26348   0.821   6.870   1.663  0.1363  0.3115 -0.4431
 8224SOL    HW126349   0.815   6.782   1.624 -1.2939  0.8620 -1.5038
 8224SOL    HW226350   0.915   6.889   1.663  0.3439 -0.5920 -1.6403
 8225SOL     OW26351   6.581   5.555   6.518  0.1838  0.3029  0.2205
 8225SOL    HW126352   6.534   5.597   6.446  1.5413  0.8534 -0.3560
 8225SOL    HW226353   6.673   5.575   6.502  0.8418 -2.4909  0.2017
 8226SOL     OW26354   1.339   5.349   1.413  0.7223  0.1763 -0.0327
 8226SOL    HW126355   1.299   5.275   1.459  0.6484 -0.1650 -0.6422
 8226SOL    HW226356   1.433   5.341   1.431  0.7241 -0.1198 -0.1746
 8227SOL     OW26357   8.245   0.780   1.918  0.0313  0.1767 -0.3282
 8227SOL    HW126358   8.153   0.800   1.934  0.1125  1.2011 -1.0837
 8227SOL    HW226359   8.286   0.865   1.902  1.5909 -0.0279  2.3703
 8228SOL     OW26360   6.643   2.683   8.488  0.0678 -0.2984  0.1658
 8228SOL    HW126361   6.672   2.672   8.579 -1.0639 -2.5643  0.2868
 8228SOL    HW226362   6.548   2.698   8.495  0.2943  1.4762 -0.5329
 8229SOL     OW26363   4.185   0.190   3.765 -0.1789  0.1828  0.6316
 8229SOL    HW126364   4.260   0.250   3.759 -0.0595  0.0459  0.7248
 8229SOL    HW226365   4.213   0.112   3.717 -1.1553  1.0143 -1.3074
 8230SOL     OW26366   5.614   0.519   0.139 -0.3303 -0.0707 -0.2454
 8230SOL    HW126367   5.523   0.506   0.166 -0.2403 -0.9545 -0.3408
 8230SOL    HW226368   5.626   0.614   0.138 -1.1098  0.0357  0.2437
 8231SOL     OW26369   8.180   4.584   4.162  0.3591 -0.0421 -0.6401
 8231SOL    HW126370   8.085   4.574   4.174  0.3055 -0.3349 -1.3213
 8231SOL    HW226371   8.189   4.632   4.080  0.7758  0.8246 -0.0871
 8232SOL     OW26372   8.638   7.256   1.863  0.0534 -0.5838 -0.4204
 8232SOL    HW126373   8.594   7.235   1.945 -1.6948 -1.2029 -1.4777
 8232SOL    HW226374   8.730   7.233   1.878 -0.3463 -1.1899  1.1831
 8233SOL     OW26375   5.637   8.729   1.666  0.4275 -0.2554  0.1712
 8233SOL    HW126376   5.726   8.732   1.631  0.1816 -1.3988 -0.5787
 8233SOL    HW226377   5.586   8.786   1.608  0.8401  1.0842  1.1180
 8234SOL     OW26378   7.584   2.898   8.253  0.4785  0.7666  0.2537
 8234SOL    HW126379   7.672   2.873   8.281  0.4037 -1.3796 -1.3052
 8234SOL    HW226380   7.598   2.945   8.171  0.2342  1.4351  0.5887
 8235SOL     OW26381   1.290   5.871   1.028  0.0349 -0.4585  0.1459
 8235SOL    HW126382   1.301   5.939   1.094  0.8005  1.1468 -1.5861
 8235SOL    HW226383   1.195   5.867   1.014 -0.0797 -0.3404  0.8523
 8236SOL     OW26384   0.526   1.189   2.737  0.1621  0.4449  0.1446
 8236SOL    HW126385   0.567   1.235   2.665  0.2417  0.5579  0.2614
 8236SOL    HW226386   0.491   1.108   2.698 -0.0606  0.6473 -0.0766
 8237SOL     OW26387   2.230   5.144   5.847  0.2037  0.4895  0.5422
 8237SOL    HW126388   2.301   5.080   5.845 -0.0951  0.1876 -0.7812
 8237SOL    HW226389   2.245   5.193   5.928 -1.1592 -3.0491  3.0673
 8238SOL     OW26390   7.201   1.611   0.614  0.6002 -0.3257 -1.1697
 8238SOL    HW126391   7.232   1.625   0.525  2.0462  1.8411 -0.3791
 8238SOL    HW226392   7.279   1.623   0.669 -0.4197 -0.8608  0.4359
 8239SOL     OW26393   1.981   3.145   3.064 -0.2438  0.5845  0.0299
 8239SOL    HW126394   1.932   3.093   3.129  1.4846 -1.3152 -0.1348
 8239SOL    HW226395   2.039   3.200   3.116 -1.0044  1.2716  0.1631
 8240SOL     OW26396   9.284   8.823   3.611  0.0368 -0.3447  0.0575
 8240SOL    HW126397   9.329   8.765   3.549 -1.0661 -0.9750 -0.1497
 8240SOL    HW226398   9.227   8.877   3.557  1.2562  1.1486  0.2186
 8241SOL     OW26399   6.136   8.028   7.666 -0.5593 -0.4327  0.0077
 8241SOL    HW126400   6.042   8.018   7.648 -0.4279  1.0685 -1.6787
 8241SOL    HW226401   6.139   8.093   7.736 -0.8078 -1.1209  0.6628
 8242SOL     OW26402   3.291   5.515   8.331 -0.2369  0.4056 -0.1114
 8242SOL    HW126403   3.359   5.459   8.368 -1.3286 -0.9742 -0.1511
 8242SOL    HW226404   3.334   5.561   8.259 -0.1450 -2.9104 -2.2428
 8243SOL     OW26405   3.003   5.307   3.793 -0.3004  0.4952  0.1323
 8243SOL    HW126406   3.060   5.251   3.845  0.6117  0.1131 -1.2383
 8243SOL    HW226407   3.027   5.396   3.818  1.4961  0.3692 -0.9942
 8244SOL     OW26408   2.448   6.902   6.849 -0.3588 -0.5256  0.7935
 8244SOL    HW126409   2.508   6.841   6.806  1.6237  2.0321 -0.2505
 8244SOL    HW226410   2.361   6.877   6.817  0.8459 -0.0966 -3.0813
 8245SOL     OW26411   8.442   6.650   1.375 -0.1832  0.9823  0.3278
 8245SOL    HW126412   8.351   6.624   1.394 -1.3293  1.3805 -4.0096
 8245SOL    HW226413   8.480   6.573   1.332  0.9505  1.4685  0.4585
 8246SOL     OW26414   1.814   5.371   4.224  0.1218  0.3878  0.2380
 8246SOL    HW126415   1.811   5.289   4.175  1.3096  1.0477 -0.9796
 8246SOL    HW226416   1.732   5.415   4.202 -0.9963 -0.8940  1.7014
 8247SOL     OW26417   6.774   3.144   9.154 -0.5305  0.0492  0.5661
 8247SOL    HW126418   6.777   3.068   9.213 -0.5184 -0.4407 -0.0674
 8247SOL    HW226419   6.715   3.119   9.084  0.1502  0.2927 -0.1061
 8248SOL     OW26420   6.206   1.036   6.229  0.0185 -0.0592 -0.1219
 8248SOL    HW126421   6.129   1.093   6.240  0.8895  1.1616 -0.1944
 8248SOL    HW226422   6.200   1.005   6.139 -0.7323 -0.4998  0.0700
 8249SOL     OW26423   1.824   6.088   9.262 -0.0862 -0.1986  0.0053
 8249SOL    HW126424   1.780   6.030   9.199 -1.3036  1.2564 -0.5080
 8249SOL    HW226425   1.886   6.031   9.307 -1.8677 -2.1092  0.1279
 8250SOL     OW26426   0.610   3.032   7.061 -0.7531 -0.1640 -0.1357
 8250SOL    HW126427   0.665   3.075   7.127 -0.5622 -0.5304 -0.0524
 8250SOL    HW226428   0.583   3.102   7.002 -0.7320  0.1267  0.2002
 8251SOL     OW26429   4.756   2.948   2.679 -0.0632  0.8025  0.4211
 8251SOL    HW126430   4.706   2.896   2.742  2.1039 -1.3144  0.4533
 8251SOL    HW226431   4.830   2.981   2.729  0.9761  0.1896 -0.7132
 8252SOL     OW26432   7.058   6.022   1.070 -0.1215  0.2838 -0.0850
 8252SOL    HW126433   7.021   6.021   1.158  0.6015  1.4735  0.2284
 8252SOL    HW226434   7.101   5.937   1.062 -0.7227 -0.0823  0.4687
 8253SOL     OW26435   7.992   4.488   0.170  0.7102  0.2005  0.1711
 8253SOL    HW126436   7.902   4.476   0.140  0.4088 -1.3167  1.5639
 8253SOL    HW226437   8.005   4.583   0.173 -0.7862  0.4212 -0.2263
 8254SOL     OW26438   5.256   6.273   2.869 -0.0395  0.1245  0.2417
 8254SOL    HW126439   5.243   6.210   2.939  3.3786  0.6569  1.4271
 8254SOL    HW226440   5.266   6.357   2.913 -0.6876  0.9171 -1.0779
 8255SOL     OW26441   8.922   0.084   5.799 -0.1109 -0.5609  0.6989
 8255SOL    HW126442   9.005   0.130   5.784  0.1477 -1.3207 -0.2186
 8255SOL    HW226443   8.860   0.129   5.741  0.0644 -1.1380  0.0594
 8256SOL     OW26444   0.216   5.653   4.626 -0.3987  0.0038  0.8287
 8256SOL    HW126445   0.276   5.583   4.653 -0.0919  0.6584  1.8687
 8256SOL    HW226446   0.243   5.729   4.678  0.3885  1.3917 -1.5302
 8257SOL     OW26447   0.925   2.732   8.225 -0.7297  0.3915 -0.0148
 8257SOL    HW126448   0.834   2.739   8.195 -0.8344  0.6360  0.3594
 8257SOL    HW226449   0.926   2.778   8.309 -0.6314 -1.0230  0.7844
 8258SOL     OW26450   1.660   3.752   0.512 -0.0441 -0.2320  0.0996
 8258SOL    HW126451   1.649   3.836   0.556  0.3848 -0.0976 -0.0554
 8258SOL    HW226452   1.705   3.772   0.431 -0.4501 -0.5416 -0.2065
 8259SOL     OW26453   6.707   1.100   2.253 -0.4579  0.3358 -0.1805
 8259SOL    HW126454   6.740   1.074   2.167 -1.9724  1.1498 -1.0216
 8259SOL    HW226455   6.662   1.022   2.286 -0.0061  0.0727 -0.1835
 8260SOL     OW26456   3.209   5.850   8.106  0.4267  1.4181  0.2948
 8260SOL    HW126457   3.245   5.785   8.046  1.7515  1.0691  1.4475
 8260SOL    HW226458   3.146   5.802   8.160 -1.2306  1.8601 -1.1875
 8261SOL     OW26459   4.799   8.463   7.363  0.2070  0.0615 -0.1827
 8261SOL    HW126460   4.772   8.371   7.364  1.6953 -0.4068 -1.0727
 8261SOL    HW226461   4.727   8.509   7.321 -0.9330 -0.5598  1.0408
 8262SOL     OW26462   3.805   9.134   2.891  0.1425 -0.3303  0.1403
 8262SOL    HW126463   3.794   9.133   2.796  0.8670 -1.3750  0.0581
 8262SOL    HW226464   3.815   9.041   2.915 -0.5881 -0.1247  1.2985
 8263SOL     OW26465   3.865   2.226   3.471 -0.5551 -0.0807 -0.0739
 8263SOL    HW126466   3.874   2.151   3.412  0.5418  1.4825 -1.9704
 8263SOL    HW226467   3.812   2.289   3.422 -0.5067  0.8373  1.0376
 8264SOL     OW26468   5.030   8.911   6.828  0.5101  0.3708 -0.6844
 8264SOL    HW126469   5.000   8.923   6.918 -0.9171 -0.9271 -0.9686
 8264SOL    HW226470   5.066   8.997   6.804 -0.3572  1.1407  0.6510
 8265SOL     OW26471   6.957   0.549   7.718 -0.1605  0.3058  0.3998
 8265SOL    HW126472   6.988   0.602   7.644  0.6121 -0.6057  0.0616
 8265SOL    HW226473   6.950   0.461   7.683 -3.9705  0.5637  0.2155
 8266SOL     OW26474   3.909   2.615   0.144 -0.3607 -0.3963 -0.2619
 8266SOL    HW126475   3.830   2.669   0.147 -0.1827 -0.1609  0.2686
 8266SOL    HW226476   3.894   2.555   0.071 -0.5801  0.3389 -0.8348
 8267SOL     OW26477   2.059   0.291   0.057 -0.4454 -0.1086 -0.0672
 8267SOL    HW126478   2.055   0.254   0.145  0.8587  1.6240  0.7328
 8267SOL    HW226479   2.141   0.256   0.020 -0.4077  0.1038 -0.1830
 8268SOL     OW26480   4.185   5.136   5.104 -0.4369 -0.9350 -0.1910
 8268SOL    HW126481   4.255   5.152   5.167 -0.0457 -0.5099 -0.7326
 8268SOL    HW226482   4.200   5.199   5.034 -0.9551 -1.3064 -0.6430
 8269SOL     OW26483   9.140   1.339   5.743  0.0054  0.0205  0.7099
 8269SOL    HW126484   9.046   1.321   5.740 -0.3820  1.7941  1.3980
 8269SOL    HW226485   9.152   1.419   5.692  0.7820  1.1027  2.5195
 8270SOL     OW26486   4.434   7.563   1.541 -0.8408  0.2979 -0.2672
 8270SOL    HW126487   4.412   7.646   1.584 -1.4504  0.1483 -0.2839
 8270SOL    HW226488   4.461   7.588   1.453 -1.6195  0.4293 -0.4715
 8271SOL     OW26489   6.378   6.564   4.861  0.2726  0.5867 -0.6062
 8271SOL    HW126490   6.471   6.566   4.837  0.6321  1.2071  0.8024
 8271SOL    HW226491   6.375   6.593   4.952 -1.3634  1.1175 -0.8030
 8272SOL     OW26492   6.103   7.906   4.994  0.1234 -0.6376  0.2339
 8272SOL    HW126493   6.073   7.884   5.082 -0.2932 -0.4334  0.1457
 8272SOL    HW226494   6.081   7.999   4.985  0.5346 -0.5589  0.0669
 8273SOL     OW26495   4.637   3.255   3.437 -0.5390 -0.2785 -0.4882
 8273SOL    HW126496   4.651   3.305   3.356 -0.7563 -1.9096 -1.5655
 8273SOL    HW226497   4.597   3.317   3.498 -1.8228  0.5641 -2.1550
 8274SOL     OW26498   8.902   7.512   3.604  0.4866 -0.0076  0.2732
 8274SOL    HW126499   8.856   7.592   3.631  0.8209  0.7939 -1.4788
 8274SOL    HW226500   8.941   7.534   3.520  3.6362 -0.8469  1.4389
 8275SOL     OW26501   0.054   4.638   8.363 -0.3562  0.1648  0.1749
 8275SOL    HW126502  -0.022   4.585   8.343 -0.9159  1.0527 -0.0844
 8275SOL    HW226503   0.126   4.576   8.372 -0.7101 -0.5216 -1.5649
 8276SOL     OW26504   9.023   0.171   2.542  0.0462  0.0801 -0.4153
 8276SOL    HW126505   9.103   0.130   2.509  0.0560 -0.0560 -0.2287
 8276SOL    HW226506   9.004   0.241   2.480 -0.3657 -0.6623 -1.1351
 8277SOL     OW26507   4.539   8.247   7.986  0.4795 -0.7024 -0.0849
 8277SOL    HW126508   4.499   8.174   8.033  2.3665 -1.4647  0.3956
 8277SOL    HW226509   4.624   8.214   7.958  1.1497  1.1465 -0.3149
 8278SOL     OW26510   9.250   7.279   7.844  0.6459  0.1614  0.1845
 8278SOL    HW126511   9.179   7.336   7.813  0.4118 -0.8839 -1.2621
 8278SOL    HW226512   9.252   7.292   7.939 -1.2398  0.4788  0.1973
 8279SOL     OW26513   9.142   5.963   5.226  0.6134 -0.0431  0.1903
 8279SOL    HW126514   9.145   5.912   5.145  0.7690 -1.8772  1.3166
 8279SOL    HW226515   9.216   6.023   5.219  0.3555  0.1201 -1.2248
 8280SOL     OW26516   2.023   6.921   3.787 -0.4014 -0.6251 -0.0748
 8280SOL    HW126517   2.106   6.970   3.785 -1.8306  1.8806  0.0910
 8280SOL    HW226518   2.040   6.850   3.849  1.6702 -0.2468 -0.1495
 8281SOL     OW26519   5.309   7.277   1.096 -0.1382  0.3415 -0.1355
 8281SOL    HW126520   5.276   7.295   1.184 -0.2445  2.6587 -0.6243
 8281SOL    HW226521   5.236   7.297   1.038  0.0712 -0.7623 -0.7888
 8282SOL     OW26522   2.852   0.247   6.721  0.4548  0.5439  0.1980
 8282SOL    HW126523   2.900   0.206   6.792 -0.6230  0.7798  1.0717
 8282SOL    HW226524   2.876   0.196   6.643  2.8278  1.2432  0.4442
 8283SOL     OW26525   0.821   5.544   9.096 -0.0229  0.0096 -0.7634
 8283SOL    HW126526   0.779   5.585   9.020 -1.2119 -0.3794 -0.3195
 8283SOL    HW226527   0.913   5.533   9.069 -0.6615 -1.1495 -2.5849
 8284SOL     OW26528   2.544   3.682   0.951  0.0359 -0.0731  0.5563
 8284SOL    HW126529   2.511   3.766   0.920  1.2065 -0.1866 -1.0846
 8284SOL    HW226530   2.538   3.687   1.046 -0.4046  1.6642  0.4535
 8285SOL     OW26531   5.410   3.546   5.164  0.1753  0.4525  0.0676
 8285SOL    HW126532   5.434   3.470   5.217  2.7536  1.5275  0.4885
 8285SOL    HW226533   5.373   3.608   5.226  0.2067  0.4524  0.0863
 8286SOL     OW26534   8.799   0.173   4.495  0.3404 -0.4260 -0.2923
 8286SOL    HW126535   8.755   0.235   4.437  1.9551  0.4336 -0.6316
 8286SOL    HW226536   8.755   0.182   4.579  1.8774  2.7161  0.2377
 8287SOL     OW26537   0.046   1.412   0.753  0.7372  0.3673 -0.5482
 8287SOL    HW126538   0.062   1.325   0.716  0.0364  0.6973 -1.6638
 8287SOL    HW226539  -0.002   1.458   0.684  0.0023  1.2220  0.5216
 8288SOL     OW26540   5.102   2.276   4.296 -0.0795  0.1269 -0.3952
 8288SOL    HW126541   5.038   2.276   4.224 -1.1101 -1.5562  0.4905
 8288SOL    HW226542   5.050   2.292   4.374  0.7727  0.0934  0.1845
 8289SOL     OW26543   7.400   5.818   1.042 -0.4510 -0.2758  0.3144
 8289SOL    HW126544   7.382   5.896   0.989  0.7239  0.2337  0.6396
 8289SOL    HW226545   7.359   5.837   1.126 -1.1836 -0.5133  0.0080
 8290SOL     OW26546   3.134   6.135   3.022  0.1574  0.0488  0.3192
 8290SOL    HW126547   3.202   6.202   3.008  0.7176 -0.7607 -0.8504
 8290SOL    HW226548   3.166   6.085   3.097  0.4879  0.1539  0.2525
 8291SOL     OW26549   8.171   1.215   7.042  0.1513  0.5287  0.1673
 8291SOL    HW126550   8.208   1.131   7.012  2.5373  2.0047 -1.2045
 8291SOL    HW226551   8.192   1.218   7.135 -1.1040 -0.9761  0.5095
 8292SOL     OW26552   2.678   6.620   5.449  0.2319  0.0549 -0.1117
 8292SOL    HW126553   2.639   6.662   5.373 -0.6703  1.3067  1.0071
 8292SOL    HW226554   2.772   6.637   5.440  0.0625  0.7703 -0.6079
 8293SOL     OW26555   2.735   6.430   4.012  0.1656 -0.2733 -0.4261
 8293SOL    HW126556   2.766   6.492   3.946 -1.3972  0.2139 -0.7304
 8293SOL    HW226557   2.800   6.360   4.012  0.7297  0.2374 -1.7322
 8294SOL     OW26558   3.853   2.514   1.957 -0.5323  0.3580  0.3630
 8294SOL    HW126559   3.773   2.483   1.915  0.3350 -1.0237 -0.3114
 8294SOL    HW226560   3.857   2.466   2.040  0.3161 -0.6476 -0.2462
 8295SOL     OW26561   7.404   8.357   2.869 -0.6136  0.3387 -0.2917
 8295SOL    HW126562   7.384   8.297   2.940  0.9679  2.4272  2.0193
 8295SOL    HW226563   7.449   8.304   2.804 -0.2560 -1.2156  1.1947
 8296SOL     OW26564   9.137   6.134   1.902  0.1014  0.3369  0.3888
 8296SOL    HW126565   9.070   6.122   1.836 -0.9267  0.1066  1.4480
 8296SOL    HW226566   9.136   6.228   1.921 -0.4484  0.2227  0.9381
 8297SOL     OW26567   5.437   1.192   8.296  0.6588  0.6429 -0.7145
 8297SOL    HW126568   5.529   1.216   8.311  0.7419  0.1622 -0.4412
 8297SOL    HW226569   5.407   1.160   8.380  0.1965  0.9330 -0.7724
 8298SOL     OW26570   3.633   4.432   4.823 -0.0977 -0.3588  0.3934
 8298SOL    HW126571   3.633   4.513   4.874 -1.2075  0.1350 -0.3722
 8298SOL    HW226572   3.568   4.376   4.865 -0.8148 -0.0567 -0.2976
 8299SOL     OW26573   1.837   1.915   2.308  0.1419  0.6539 -0.0251
 8299SOL    HW126574   1.767   1.920   2.243  0.1300 -1.5251 -0.1888
 8299SOL    HW226575   1.878   1.830   2.295  0.8137  0.6018  2.1309
 8300SOL     OW26576   1.836   2.593   1.554 -0.7233 -0.2695  0.6243
 8300SOL    HW126577   1.926   2.574   1.580 -0.2096  2.0037  0.6700
 8300SOL    HW226578   1.793   2.621   1.635 -0.8525  0.7448  0.2171
 8301SOL     OW26579   4.178   4.032   0.412 -1.2816 -0.3537 -0.1468
 8301SOL    HW126580   4.132   3.952   0.388  1.3227 -2.1060  0.4679
 8301SOL    HW226581   4.170   4.037   0.507 -0.2834 -0.6477 -0.0409
 8302SOL     OW26582   5.327   3.228   1.961 -0.2202 -0.1271  0.6746
 8302SOL    HW126583   5.279   3.260   1.885  2.3183  0.6296 -0.6592
 8302SOL    HW226584   5.351   3.138   1.939 -0.9346 -0.4773  1.3019
 8303SOL     OW26585   3.305   2.589   4.550 -0.0772  0.3764 -0.2024
 8303SOL    HW126586   3.243   2.549   4.610  1.2902  0.2002  1.1199
 8303SOL    HW226587   3.350   2.655   4.602  0.6931  0.6474 -1.1920
 8304SOL     OW26588   7.617   8.759   2.702 -0.4633  0.6755  0.2236
 8304SOL    HW126589   7.646   8.673   2.732 -0.5417 -0.3168 -2.3821
 8304SOL    HW226590   7.672   8.821   2.750 -0.1226 -0.8359  1.8405
 8305SOL     OW26591   6.655   3.536   2.101 -0.0161  0.5722  0.1849
 8305SOL    HW126592   6.590   3.465   2.107 -0.2346  0.8601  1.4580
 8305SOL    HW226593   6.695   3.538   2.188 -0.0815  2.0729  0.1894
 8306SOL     OW26594   1.715   0.549   1.767  0.2651  0.0737 -0.0114
 8306SOL    HW126595   1.731   0.547   1.862 -0.6814 -0.7361  0.1336
 8306SOL    HW226596   1.757   0.630   1.738  1.1370  0.0018  0.9969
 8307SOL     OW26597   3.139   2.391   2.400 -0.1597  0.0254 -0.0486
 8307SOL    HW126598   3.072   2.355   2.458  0.7889 -1.2593  0.2717
 8307SOL    HW226599   3.175   2.314   2.355  1.4034  0.6445  0.1123
 8308SOL     OW26600   2.734   4.982   8.549  0.0769 -0.3687  0.4921
 8308SOL    HW126601   2.664   5.025   8.599 -0.2374  0.6909 -0.8263
 8308SOL    HW226602   2.768   5.051   8.492 -0.5364 -1.9103 -1.7784
 8309SOL     OW26603   1.467   6.985   5.490  0.0523 -0.6053  0.0984
 8309SOL    HW126604   1.398   6.923   5.466 -0.1046 -0.1298 -0.7109
 8309SOL    HW226605   1.533   6.932   5.534  0.2779 -1.4892 -1.2856
 8310SOL     OW26606   6.519   5.685   7.149 -0.0083  0.5281 -0.3933
 8310SOL    HW126607   6.564   5.743   7.088 -0.3616  0.3904 -0.7893
 8310SOL    HW226608   6.475   5.744   7.211  0.1044  0.6716 -0.4497
 8311SOL     OW26609   4.684   3.067   4.253 -0.2563  0.3153  0.8719
 8311SOL    HW126610   4.629   3.127   4.304 -1.6441  0.9428 -1.2557
 8311SOL    HW226611   4.702   3.115   4.172  1.1963 -0.9636  0.4113
 8312SOL     OW26612   6.127   8.151   4.875  0.3287  0.5328  0.2477
 8312SOL    HW126613   6.164   8.115   4.795  0.1490  0.7431  0.0713
 8312SOL    HW226614   6.148   8.244   4.872 -0.0638  0.6240  0.2267
 8313SOL     OW26615   6.087   3.504   6.609 -0.1280 -0.2045 -0.1162
 8313SOL    HW126616   6.032   3.501   6.687 -0.0426 -0.3496 -0.0633
 8313SOL    HW226617   6.093   3.414   6.580  1.5026 -0.4451  0.8699
 8314SOL     OW26618   5.933   5.368   2.728 -0.4067 -0.6053  0.3221
 8314SOL    HW126619   5.963   5.453   2.759  0.2389 -0.4395 -0.7131
 8314SOL    HW226620   5.871   5.388   2.658  0.1447 -0.9832 -0.2800
 8315SOL     OW26621   2.395   4.654   2.020  0.1514  0.3327  0.1564
 8315SOL    HW126622   2.452   4.701   2.081 -0.3937  0.4796  0.5577
 8315SOL    HW226623   2.441   4.659   1.936  1.2812 -0.5244  0.6978
 8316SOL     OW26624   2.691   4.084   4.622 -0.0384 -0.1667 -0.0466
 8316SOL    HW126625   2.734   4.109   4.540 -0.0688 -0.5586 -0.1884
 8316SOL    HW226626   2.737   4.004   4.649 -1.1807 -1.0346 -0.6167
 8317SOL     OW26627   6.064   4.273   6.251  0.1420  0.5793  0.8098
 8317SOL    HW126628   6.140   4.315   6.291  0.9403  0.9729 -1.0944
 8317SOL    HW226629   6.081   4.276   6.157 -1.8566 -0.0531  0.4058
 8318SOL     OW26630   4.549   3.136   4.817  0.7121 -0.1036  0.1411
 8318SOL    HW126631   4.497   3.073   4.869 -0.4828 -1.2677 -2.3882
 8318SOL    HW226632   4.510   3.221   4.836  0.0025 -0.5662  0.7907
 8319SOL     OW26633   6.308   0.073   4.014 -0.2272 -0.3447 -0.6540
 8319SOL    HW126634   6.317  -0.022   3.999 -0.3898 -0.4064 -0.3701
 8319SOL    HW226635   6.255   0.079   4.094  0.0406 -0.0158 -0.5030
 8320SOL     OW26636   5.674   5.298   0.509 -0.1927 -0.3706 -0.1229
 8320SOL    HW126637   5.637   5.365   0.567 -1.0980 -0.5684 -0.4635
 8320SOL    HW226638   5.632   5.217   0.536  1.1886 -0.8647  0.5362
 8321SOL     OW26639   4.797   0.695   0.651 -0.1311 -0.4445  0.6053
 8321SOL    HW126640   4.772   0.614   0.608 -0.2025 -0.0090 -0.1764
 8321SOL    HW226641   4.799   0.760   0.581  0.2995  0.1476  1.1636
 8322SOL     OW26642   1.659   3.836   2.013 -0.0886  0.7400  0.4236
 8322SOL    HW126643   1.747   3.801   1.998 -0.1070 -0.0907  2.0978
 8322SOL    HW226644   1.657   3.855   2.106 -1.8930  0.1618  0.5211
 8323SOL     OW26645   5.779   1.756   2.285 -0.5017  0.2743 -0.1111
 8323SOL    HW126646   5.753   1.665   2.268 -0.0989  0.2882 -0.8310
 8323SOL    HW226647   5.867   1.749   2.322 -0.5217  0.3596 -0.0482
 8324SOL     OW26648   7.816   1.533   7.592 -0.2297 -0.1839  0.4882
 8324SOL    HW126649   7.883   1.588   7.553  0.2000 -2.0891 -1.5676
 8324SOL    HW226650   7.734   1.581   7.579  0.3230  0.6619  0.1210
 8325SOL     OW26651   1.002   3.382   3.154 -0.5012  0.5913  0.0821
 8325SOL    HW126652   1.008   3.287   3.147  2.2756  0.8054 -1.1274
 8325SOL    HW226653   0.980   3.398   3.245  1.8615 -1.1556  1.0123
 8326SOL     OW26654   3.083   1.039   4.026 -0.2852 -0.1651  0.0648
 8326SOL    HW126655   2.998   1.004   4.052 -0.6073  1.5914  1.5165
 8326SOL    HW226656   3.071   1.134   4.026  1.2634  0.0625 -1.2159
 8327SOL     OW26657   4.621   1.822   3.187  0.0405 -0.3587 -0.8413
 8327SOL    HW126658   4.670   1.867   3.256  2.1125 -1.7078 -1.3904
 8327SOL    HW226659   4.530   1.826   3.216  0.7542 -0.0116  1.4762
 8328SOL     OW26660   7.834   2.759   9.035 -0.3679 -0.0935 -0.2055
 8328SOL    HW126661   7.779   2.835   9.017 -1.1750 -0.5728  0.2093
 8328SOL    HW226662   7.786   2.685   8.997  0.8181 -0.2968 -1.3717
 8329SOL     OW26663   6.703   4.941   4.743 -0.1022 -0.1631  0.1856
 8329SOL    HW126664   6.715   4.877   4.672 -0.6113 -0.4893  0.3924
 8329SOL    HW226665   6.669   4.890   4.816  0.6427  0.1344  0.7477
 8330SOL     OW26666   8.200   9.263   3.636  0.1926 -0.0282 -0.0036
 8330SOL    HW126667   8.173   9.354   3.647  0.6284 -0.0741  1.4800
 8330SOL    HW226668   8.223   9.233   3.724  2.5209 -0.7961 -0.8204
 8331SOL     OW26669   9.177   3.449   0.323 -0.1737  0.4880 -0.2757
 8331SOL    HW126670   9.134   3.462   0.407  0.7825 -1.1607  0.4893
 8331SOL    HW226671   9.121   3.387   0.276  0.7486 -0.8064  0.2914
 8332SOL     OW26672   2.297   3.065   3.060 -0.5230  0.1001 -0.1093
 8332SOL    HW126673   2.246   2.989   3.089 -0.8470 -0.0839 -1.1497
 8332SOL    HW226674   2.350   3.089   3.136 -1.3085 -0.4252  0.6093
 8333SOL     OW26675   3.698   8.190   3.236  0.7506  0.0624  0.2199
 8333SOL    HW126676   3.674   8.267   3.288  3.1461 -0.2530  1.8695
 8333SOL    HW226677   3.781   8.213   3.195  0.0491 -0.5896 -1.6545
 8334SOL     OW26678   6.097   7.524   1.602  0.0840 -0.6529  0.7640
 8334SOL    HW126679   6.146   7.453   1.562 -2.2726 -2.5910  1.1994
 8334SOL    HW226680   6.008   7.512   1.571  0.0509  3.6093 -1.1170
 8335SOL     OW26681   2.433   7.870   0.564 -0.1015  0.1103 -0.2352
 8335SOL    HW126682   2.467   7.840   0.480  0.6885 -1.3203  0.5884
 8335SOL    HW226683   2.498   7.933   0.595  0.2982 -0.4083 -0.0332
 8336SOL     OW26684   5.478   5.825   2.053 -0.2468 -0.8568 -0.0543
 8336SOL    HW126685   5.564   5.782   2.053 -0.7824 -1.9464 -0.1164
 8336SOL    HW226686   5.490   5.902   2.110  0.7680 -0.9863 -0.0724
 8337SOL     OW26687   0.656   7.830   8.501  0.1142  0.2678 -0.3566
 8337SOL    HW126688   0.710   7.901   8.464 -2.2511  1.8265 -0.9235
 8337SOL    HW226689   0.638   7.859   8.590 -1.1048  0.5240 -0.6842
 8338SOL     OW26690   4.028   0.444   7.732 -0.2312  1.0888  0.2213
 8338SOL    HW126691   3.964   0.385   7.772 -1.0101  1.7584 -0.0125
 8338SOL    HW226692   4.032   0.519   7.791  1.0185  0.6553  0.7006
 8339SOL     OW26693   7.708   7.935   4.541  0.0856 -0.1007  1.0122
 8339SOL    HW126694   7.676   7.873   4.476 -0.5213  0.7134  0.5190
 8339SOL    HW226695   7.804   7.924   4.540 -0.0375 -1.2695  1.1959
 8340SOL     OW26696   1.920   0.623   4.380 -0.1082 -0.2367  0.1453
 8340SOL    HW126697   1.890   0.712   4.399 -1.9709 -0.4764 -1.4273
 8340SOL    HW226698   2.007   0.634   4.342 -1.1668  1.1200 -1.9713
 8341SOL     OW26699   8.716   8.288   3.876  0.2073 -0.2531  0.0040
 8341SOL    HW126700   8.805   8.264   3.848 -0.3610 -2.0865 -0.2990
 8341SOL    HW226701   8.723   8.380   3.900  2.6745 -0.8380  1.8850
 8342SOL     OW26702   7.069   0.198   4.261  0.3216  0.0811 -0.5095
 8342SOL    HW126703   6.991   0.181   4.208  1.2267  0.8674 -2.1318
 8342SOL    HW226704   7.104   0.111   4.282  0.1731 -0.2369 -1.5545
 8343SOL     OW26705   0.107   4.710   4.281 -0.3106  0.1139 -0.3305
 8343SOL    HW126706   0.104   4.663   4.365 -1.2359  1.2292  0.2763
 8343SOL    HW226707   0.030   4.680   4.234  0.4678 -0.8776 -1.0062
 8344SOL     OW26708   1.842   8.963   6.960 -0.3592 -1.0026 -0.2023
 8344SOL    HW126709   1.829   9.028   6.891 -2.3142 -0.5225  0.5696
 8344SOL    HW226710   1.919   8.994   7.008 -1.5013  0.9958  0.4003
 8345SOL     OW26711   0.825   7.102   5.243  0.2474  0.2737 -0.6869
 8345SOL    HW126712   0.833   7.182   5.190 -1.0307  1.5591  1.0364
 8345SOL    HW226713   0.735   7.073   5.229 -0.4903  1.3170  1.7257
 8346SOL     OW26714   1.189   6.816   6.575  0.8833 -0.3747 -0.2573
 8346SOL    HW126715   1.182   6.811   6.480 -1.6497 -1.5099 -0.0582
 8346SOL    HW226716   1.184   6.910   6.594  1.2186 -0.1522 -1.2288
 8347SOL     OW26717   4.480   0.961   0.517 -0.2928  0.0135  0.6471
 8347SOL    HW126718   4.482   1.004   0.432 -1.1033 -2.9994 -0.9792
 8347SOL    HW226719   4.404   0.999   0.562 -1.5502 -0.3642 -1.1099
 8348SOL     OW26720   0.650   4.291   8.694 -0.0811 -0.0593  0.1727
 8348SOL    HW126721   0.678   4.285   8.786 -0.1977  0.0586  0.2170
 8348SOL    HW226722   0.715   4.349   8.654  0.3082 -0.5805  0.0435
 8349SOL     OW26723   6.165   2.019   8.654  0.0449 -0.6313 -0.1838
 8349SOL    HW126724   6.145   2.111   8.638  1.4265 -0.3998 -0.5749
 8349SOL    HW226725   6.088   1.972   8.622 -1.4424  0.4803  1.6117
 8350SOL     OW26726   5.440   9.113   0.910 -0.1589  0.0489 -0.1791
 8350SOL    HW126727   5.516   9.056   0.903 -1.7437 -2.1162 -0.1307
 8350SOL    HW226728   5.396   9.085   0.990 -0.6961  1.6984  0.1268
 8351SOL     OW26729   8.544   3.445   7.887 -0.2453  0.3769 -0.2216
 8351SOL    HW126730   8.601   3.368   7.891  1.5345  1.6322 -0.3879
 8351SOL    HW226731   8.596   3.515   7.928 -1.2333  1.8377 -1.4020
 8352SOL     OW26732   7.464   1.601   3.994  0.4790  0.1928  0.8606
 8352SOL    HW126733   7.549   1.643   3.990  1.0080 -0.7375  1.9246
 8352SOL    HW226734   7.401   1.673   3.996  1.2186  0.8816 -0.1283
 8353SOL     OW26735   3.000   4.461   5.352 -0.3359  0.6394  0.2163
 8353SOL    HW126736   3.003   4.512   5.271  0.6899  0.4130  0.1082
 8353SOL    HW226737   2.911   4.428   5.356 -0.1947  0.0653 -1.1827
 8354SOL     OW26738   4.733   9.228   7.331  0.8999  0.4813  0.2736
 8354SOL    HW126739   4.680   9.179   7.268  0.6033  1.7284 -0.4792
 8354SOL    HW226740   4.674   9.245   7.404  1.1560 -0.7122  0.7695
 8355SOL     OW26741   8.286   1.690   3.621 -0.2260 -0.2006  0.1456
 8355SOL    HW126742   8.316   1.751   3.554  2.7158 -1.0114  0.6910
 8355SOL    HW226743   8.223   1.740   3.673  0.5135  1.6779 -0.7444
 8356SOL     OW26744   0.766   0.684   2.674 -0.0028  0.2830 -0.7954
 8356SOL    HW126745   0.850   0.695   2.719  1.0856 -1.6646 -2.2518
 8356SOL    HW226746   0.779   0.726   2.589 -1.2365  1.8539 -0.2145
 8357SOL     OW26747   9.283   8.443   7.358 -0.2217  0.2752  0.0624
 8357SOL    HW126748   9.275   8.388   7.280  0.6547  0.4912 -0.1855
 8357SOL    HW226749   9.199   8.435   7.402 -0.4493 -0.4627 -0.5043
 8358SOL     OW26750   0.681   6.045   4.666 -0.3495 -0.2582 -0.0477
 8358SOL    HW126751   0.762   6.097   4.667 -0.2795 -0.3750  0.8969
 8358SOL    HW226752   0.634   6.075   4.588  0.6068 -0.1883 -0.6059
 8359SOL     OW26753   9.001   1.159   0.759  0.3410  0.1852  0.0214
 8359SOL    HW126754   9.030   1.233   0.705 -1.6292 -0.1850 -1.5651
 8359SOL    HW226755   8.978   1.199   0.843  1.6435  1.0182 -0.0025
 8360SOL     OW26756   4.534   5.125   8.822 -0.4771  0.0338  0.1985
 8360SOL    HW126757   4.591   5.089   8.890 -0.2316 -0.6785 -0.3712
 8360SOL    HW226758   4.568   5.087   8.741 -0.0813  1.7657 -0.4448
 8361SOL     OW26759   7.707   6.339   0.358 -0.0747 -0.6033 -0.2952
 8361SOL    HW126760   7.774   6.274   0.335  1.8312  0.9592  0.7022
 8361SOL    HW226761   7.689   6.323   0.450  1.1163  0.8745  0.2144
 8362SOL     OW26762   5.966   0.532   2.639 -0.2362  0.5021  0.0907
 8362SOL    HW126763   6.025   0.458   2.653 -1.0435 -0.3028 -0.6434
 8362SOL    HW226764   6.011   0.588   2.576  0.5666  0.8556  0.9751
 8363SOL     OW26765   6.255   6.388   3.648  0.1472  0.2450  0.0514
 8363SOL    HW126766   6.316   6.370   3.576 -0.7276 -0.6209 -0.4998
 8363SOL    HW226767   6.238   6.482   3.643 -0.7547  0.0182 -1.5884
 8364SOL     OW26768   1.618   2.184   0.458  0.0800  0.4030  0.2004
 8364SOL    HW126769   1.575   2.264   0.428  0.1250 -0.0346 -1.0345
 8364SOL    HW226770   1.561   2.113   0.428  0.1309 -0.0402  1.1453
 8365SOL     OW26771   6.953   3.297   8.641  0.8839  0.4850 -0.2522
 8365SOL    HW126772   6.937   3.390   8.657 -0.1497  0.0054  1.6285
 8365SOL    HW226773   6.867   3.261   8.619  1.5000  0.1995 -2.3500
 8366SOL     OW26774   8.289   7.875   1.259 -0.0522 -0.0529  0.2292
 8366SOL    HW126775   8.346   7.868   1.182 -0.1888 -0.1635  0.1382
 8366SOL    HW226776   8.231   7.949   1.240 -2.6425 -2.4355 -1.4561
 8367SOL     OW26777   5.891   6.164   0.276  0.2591  0.1556  0.4039
 8367SOL    HW126778   5.977   6.186   0.313  0.1029  1.0831  0.2491
 8367SOL    HW226779   5.829   6.188   0.345 -0.1019  2.7557 -0.7345
 8368SOL     OW26780   1.788   9.165   2.053 -0.2059 -0.2544  0.3555
 8368SOL    HW126781   1.743   9.223   2.114  0.5356 -0.7585  1.4082
 8368SOL    HW226782   1.799   9.217   1.973 -0.6783  0.6106  0.8499
 8369SOL     OW26783   3.866   8.859   2.187 -0.0998  0.1442  1.0785
 8369SOL    HW126784   3.907   8.945   2.196  1.5860 -0.5329  0.1531
 8369SOL    HW226785   3.849   8.849   2.094 -3.0760  0.6806  1.5102
 8370SOL     OW26786   2.311   5.170   1.666 -0.0997  0.3495 -0.0726
 8370SOL    HW126787   2.392   5.197   1.708  0.8880  0.4995 -2.0363
 8370SOL    HW226788   2.292   5.239   1.602 -1.1047 -0.3014 -0.4997
 8371SOL     OW26789   7.197   8.733   8.028  0.4457 -0.1484  0.3765
 8371SOL    HW126790   7.240   8.754   7.946 -1.0161 -1.2450 -0.6930
 8371SOL    HW226791   7.117   8.784   8.028 -0.1052 -1.0017  0.6077
 8372SOL     OW26792   0.975   6.061   5.531 -0.3765  0.3944  0.2413
 8372SOL    HW126793   0.893   6.051   5.578 -0.6305 -3.0430 -0.7871
 8372SOL    HW226794   1.040   6.077   5.599 -1.2777 -0.9589  1.4422
 8373SOL     OW26795   5.835   1.083   1.199 -0.1635 -0.2924 -0.0117
 8373SOL    HW126796   5.904   1.119   1.143 -0.0807  0.3613  0.4983
 8373SOL    HW226797   5.839   1.137   1.278 -0.5977 -0.8971  0.4236
 8374SOL     OW26798   7.770   7.797   6.842 -0.3039  0.0988 -0.0256
 8374SOL    HW126799   7.707   7.820   6.774  1.3234 -1.0625 -1.9493
 8374SOL    HW226800   7.734   7.836   6.922 -2.4408  1.1242 -1.4572
 8375SOL     OW26801   0.627   1.889   4.307  0.4779 -0.0788  0.2906
 8375SOL    HW126802   0.585   1.906   4.391 -0.1817  0.7461 -0.2038
 8375SOL    HW226803   0.601   1.962   4.251  0.6286 -0.8045 -0.7480
 8376SOL     OW26804   7.625   7.388   2.870  0.1988  0.4359  0.2855
 8376SOL    HW126805   7.573   7.391   2.951 -2.9590 -1.3730 -1.5550
 8376SOL    HW226806   7.689   7.319   2.885 -2.6185 -2.3593  0.0989
 8377SOL     OW26807   7.992   0.546   5.733 -0.1212  0.2549 -0.4387
 8377SOL    HW126808   7.915   0.559   5.789  0.2113  1.1338 -0.1668
 8377SOL    HW226809   7.978   0.461   5.692  0.2007 -0.9517  1.8965
 8378SOL     OW26810   7.035   0.967   8.615 -0.6714 -0.8996  0.4854
 8378SOL    HW126811   7.095   0.966   8.690  0.1452  0.4000 -0.1342
 8378SOL    HW226812   7.035   1.058   8.585 -2.5169 -1.0041  0.1092
 8379SOL     OW26813   8.670   5.219   2.119  0.4690 -0.0585 -0.9868
 8379SOL    HW126814   8.585   5.176   2.113  0.7459 -0.5670 -1.2267
 8379SOL    HW226815   8.733   5.154   2.089  0.6470  1.2751 -3.6282
 8380SOL     OW26816   2.658   6.118   1.416 -0.2156  0.1086 -0.2568
 8380SOL    HW126817   2.596   6.192   1.418  0.7742  0.9192  0.8930
 8380SOL    HW226818   2.740   6.155   1.449  0.1961 -1.6055  0.6699
 8381SOL     OW26819   7.728   0.815   8.992  0.4937 -0.6911  0.3320
 8381SOL    HW126820   7.813   0.856   9.003 -0.6099  1.9282 -0.6371
 8381SOL    HW226821   7.737   0.762   8.912  0.9096  0.3833 -0.3434
 8382SOL     OW26822   2.342   7.859   2.145 -0.1263 -0.1002  0.7134
 8382SOL    HW126823   2.325   7.843   2.052  0.3317  0.7866  0.4693
 8382SOL    HW226824   2.381   7.778   2.177  1.5453  0.2637 -0.3374
 8383SOL     OW26825   8.619   1.695   3.352 -0.7865 -0.3228  0.0969
 8383SOL    HW126826   8.656   1.708   3.265  0.4813 -0.2996  0.6235
 8383SOL    HW226827   8.640   1.776   3.399 -1.6184 -0.2666  0.3631
 8384SOL     OW26828   8.483   8.980   7.316 -0.0769 -0.3643  0.2190
 8384SOL    HW126829   8.569   8.941   7.330  0.3078  0.3815 -0.0090
 8384SOL    HW226830   8.421   8.908   7.328  0.6583 -1.2307 -1.0108
 8385SOL     OW26831   6.373   7.890   7.623  0.3094  0.1099 -0.3460
 8385SOL    HW126832   6.295   7.941   7.642  1.2501  0.5993  2.3387
 8385SOL    HW226833   6.366   7.870   7.530 -1.5681  2.5809 -0.7866
 8386SOL     OW26834   5.535   2.084   0.242  0.2482  0.4531 -0.2985
 8386SOL    HW126835   5.606   2.028   0.211 -1.5373 -1.2071 -1.5595
 8386SOL    HW226836   5.518   2.054   0.332  0.9245  0.6589 -0.0984
 8387SOL     OW26837   2.969   2.112   3.629  0.7147  0.1228 -0.0177
 8387SOL    HW126838   2.899   2.049   3.614  0.3825  0.2852  0.8111
 8387SOL    HW226839   2.930   2.197   3.607  0.9083  0.1281 -0.3457
 8388SOL     OW26840   8.674   3.142   0.729  0.1800 -0.0924 -0.1335
 8388SOL    HW126841   8.765   3.112   0.733  0.1367 -0.3011 -0.7363
 8388SOL    HW226842   8.650   3.158   0.821  0.8070 -0.0827  0.0299
 8389SOL     OW26843   0.559   2.523   2.450  0.3338 -0.5092 -0.0533
 8389SOL    HW126844   0.554   2.608   2.407  4.1669 -0.3552 -0.3862
 8389SOL    HW226845   0.549   2.542   2.543 -0.4016  0.0810 -0.2490
 8390SOL     OW26846   0.792   7.460   5.960 -0.2241  0.1295  0.3050
 8390SOL    HW126847   0.856   7.445   5.891  0.3617 -0.2770  0.9256
 8390SOL    HW226848   0.823   7.408   6.034 -0.1140  1.5929  1.3180
 8391SOL     OW26849   7.559   1.067   3.644 -0.5342 -0.7445  0.4742
 8391SOL    HW126850   7.497   1.131   3.677 -1.1265 -1.2637  0.3715
 8391SOL    HW226851   7.602   1.032   3.722 -0.4245 -0.4507  0.5480
 8392SOL     OW26852   1.513   3.155   4.975  0.6709 -0.6355  0.0228
 8392SOL    HW126853   1.446   3.173   5.040 -0.6478 -0.4084 -1.3530
 8392SOL    HW226854   1.553   3.240   4.957  0.8878 -0.6633  0.3790
 8393SOL     OW26855   5.462   6.835   5.450  0.4086  0.3099 -0.0673
 8393SOL    HW126856   5.413   6.887   5.514 -0.1583  1.2779 -1.2511
 8393SOL    HW226857   5.396   6.804   5.388  1.2352  1.4464 -1.5666
 8394SOL     OW26858   4.933   3.437   0.439 -0.4009 -0.2743  0.3908
 8394SOL    HW126859   4.995   3.482   0.497  0.9499 -0.3111 -1.0051
 8394SOL    HW226860   4.925   3.495   0.363 -2.5208 -0.0031  0.7871
 8395SOL     OW26861   7.361   0.286   0.642  0.4775  0.0998  0.0676
 8395SOL    HW126862   7.301   0.357   0.621 -0.5159 -0.3628  1.3067
 8395SOL    HW226863   7.445   0.330   0.657 -0.1259  1.0209  0.8404
 8396SOL     OW26864   0.372   8.279   3.897 -0.2889  0.0903 -0.4069
 8396SOL    HW126865   0.386   8.301   3.805  3.0090 -0.2412 -0.0401
 8396SOL    HW226866   0.377   8.183   3.900 -1.8440  0.0042 -0.0781
 8397SOL     OW26867   3.738   5.329   4.957 -0.4228 -0.4064 -0.3463
 8397SOL    HW126868   3.789   5.345   4.878 -0.1616 -0.2880 -0.1515
 8397SOL    HW226869   3.771   5.245   4.990 -0.1974 -0.2167 -0.0946
 8398SOL     OW26870   8.194   7.773   1.957  0.4357 -0.0352  0.5171
 8398SOL    HW126871   8.133   7.844   1.942  2.2549  1.2786 -0.8746
 8398SOL    HW226872   8.264   7.812   2.010  0.8562 -1.0927  0.7682
 8399SOL     OW26873   6.661   4.382   0.456  0.5659 -0.0580  0.0474
 8399SOL    HW126874   6.604   4.412   0.385 -0.5096  0.9057  1.3002
 8399SOL    HW226875   6.652   4.287   0.455  0.1513 -0.0149 -0.7569
 8400SOL     OW26876   3.706   2.091   5.228  0.2163 -0.5205 -0.0376
 8400SOL    HW126877   3.676   2.160   5.288 -1.5936 -0.9495 -0.4107
 8400SOL    HW226878   3.787   2.125   5.191  2.1148 -0.8005  3.6256
 8401SOL     OW26879   1.883   4.689   4.007  0.4522  0.0124 -0.0843
 8401SOL    HW126880   1.976   4.705   3.991  0.7185 -0.2921  1.1439
 8401SOL    HW226881   1.880   4.605   4.053 -0.3721  0.3596  0.5272
 8402SOL     OW26882   1.455   0.296   6.527  0.0827  0.2237 -0.0194
 8402SOL    HW126883   1.424   0.304   6.618 -1.4028  1.0633 -0.5858
 8402SOL    HW226884   1.396   0.232   6.488 -0.0261  0.7415 -0.7104
 8403SOL     OW26885   0.059   2.876   1.983  0.3479 -0.1488  0.3700
 8403SOL    HW126886   0.147   2.913   1.991  0.3145  0.0823 -0.2763
 8403SOL    HW226887   0.073   2.787   1.950  0.4603 -0.9343  2.4765
 8404SOL     OW26888   2.547   6.171   4.202  0.1498  0.2596 -0.0263
 8404SOL    HW126889   2.557   6.265   4.219 -1.6388  0.4923 -0.1588
 8404SOL    HW226890   2.453   6.158   4.197  0.4036 -1.4709 -0.5002
 8405SOL     OW26891   7.781   0.874   7.529  0.4639 -0.3200 -0.2106
 8405SOL    HW126892   7.793   0.944   7.465  1.5085  0.0570  0.3848
 8405SOL    HW226893   7.775   0.919   7.613 -0.5979 -0.8334  0.0082
 8406SOL     OW26894   6.828   5.496   6.141  0.0497  0.3102 -0.3698
 8406SOL    HW126895   6.795   5.561   6.202 -2.9255 -0.3099 -1.2523
 8406SOL    HW226896   6.912   5.469   6.178 -0.9554  1.0811  2.5921
 8407SOL     OW26897   1.898   1.438   7.593 -0.1298  0.1311  1.0146
 8407SOL    HW126898   1.976   1.384   7.603  0.4321  0.9460  1.0784
 8407SOL    HW226899   1.930   1.519   7.554 -1.1730 -0.1195 -0.3990
 8408SOL     OW26900   0.747   4.266   8.945 -0.0772 -0.4477  0.3852
 8408SOL    HW126901   0.779   4.198   9.004  0.7142  1.6094  2.3754
 8408SOL    HW226902   0.811   4.337   8.952  0.3314 -0.3319 -3.3800
 8409SOL     OW26903   5.503   2.427   5.554  0.1289 -0.4868 -0.0677
 8409SOL    HW126904   5.542   2.505   5.514 -1.5386 -0.1073 -1.0281
 8409SOL    HW226905   5.528   2.355   5.497  0.2414 -0.3895 -0.1398
 8410SOL     OW26906   8.179   9.214   0.360 -0.1266 -0.0390 -0.4690
 8410SOL    HW126907   8.102   9.190   0.307 -0.7262 -0.9867  0.8012
 8410SOL    HW226908   8.149   9.288   0.413 -0.9634 -1.9136  1.7750
 8411SOL     OW26909   0.886   3.065   8.063  0.3008  0.1021 -0.5582
 8411SOL    HW126910   0.850   2.986   8.023  0.2055  0.4305 -1.1393
 8411SOL    HW226911   0.968   3.080   8.016  0.4813  0.1617 -0.2235
 8412SOL     OW26912   8.118   8.634   4.841 -0.1546 -0.2012 -0.1892
 8412SOL    HW126913   8.024   8.654   4.839 -0.0186  0.4276 -0.8044
 8412SOL    HW226914   8.126   8.550   4.796 -0.3150  0.2212 -1.0145
 8413SOL     OW26915   2.404   5.231   6.368  0.3003 -0.2443 -0.2156
 8413SOL    HW126916   2.368   5.146   6.393  0.2029  0.0367  0.6295
 8413SOL    HW226917   2.493   5.232   6.405  0.3748 -0.0680 -0.3977
 8414SOL     OW26918   5.100   2.809   1.381 -0.0542 -0.0743 -0.2289
 8414SOL    HW126919   5.101   2.902   1.402 -2.4682  0.0951 -0.6587
 8414SOL    HW226920   5.050   2.803   1.300  0.0654 -1.7433 -0.2005
 8415SOL     OW26921   7.311   6.758   4.784 -0.2023 -0.2697 -0.4171
 8415SOL    HW126922   7.346   6.830   4.837 -2.7324 -0.8647  2.1862
 8415SOL    HW226923   7.270   6.801   4.709  0.9186  0.7955 -0.4410
 8416SOL     OW26924   5.501   1.993   0.505  0.2487  0.3158 -0.6484
 8416SOL    HW126925   5.481   1.971   0.596  0.3063  1.7371 -0.2853
 8416SOL    HW226926   5.497   1.909   0.459 -0.4515 -0.3144  0.5330
 8417SOL     OW26927   0.232   8.844   7.550 -0.2324  0.2515  0.5667
 8417SOL    HW126928   0.293   8.781   7.511 -1.8006 -1.4867  0.8479
 8417SOL    HW226929   0.200   8.896   7.477 -0.7818 -0.9218 -0.0332
 8418SOL     OW26930   8.535   4.133   1.382 -0.0210 -0.1233 -0.0824
 8418SOL    HW126931   8.617   4.123   1.334 -0.3430  0.4232 -0.7513
 8418SOL    HW226932   8.498   4.215   1.350 -0.1333  0.3706  1.2649
 8419SOL     OW26933   3.012   3.774   5.721 -0.1710  0.0730 -0.0053
 8419SOL    HW126934   2.927   3.786   5.679 -0.9398 -1.4305  1.0365
 8419SOL    HW226935   2.996   3.793   5.814  0.8176  0.5652  0.0708
 8420SOL     OW26936   2.757   4.003   5.905 -0.6221  0.0381 -0.2607
 8420SOL    HW126937   2.773   4.094   5.882 -2.2578 -0.0985 -2.0224
 8420SOL    HW226938   2.664   3.999   5.927 -0.4215 -1.0914  0.4748
 8421SOL     OW26939   7.883   4.537   2.342  0.5572  0.3968 -0.2132
 8421SOL    HW126940   7.805   4.519   2.290  1.2164 -0.0289 -1.0653
 8421SOL    HW226941   7.955   4.498   2.292  1.2885  0.5963  0.6699
 8422SOL     OW26942   4.265   5.193   4.826 -0.2704 -0.0097 -0.2333
 8422SOL    HW126943   4.288   5.233   4.742 -0.2312 -0.4865 -0.4510
 8422SOL    HW226944   4.189   5.138   4.807  0.8619 -1.5825 -0.3618
 8423SOL     OW26945   0.609   1.628   2.664 -0.4892 -0.2134  0.1780
 8423SOL    HW126946   0.589   1.719   2.644 -0.2888 -0.2284 -0.0849
 8423SOL    HW226947   0.641   1.591   2.582  0.6121 -0.1983  0.5874
 8424SOL     OW26948   9.231   3.273   7.158  0.1249  0.1561  0.2187
 8424SOL    HW126949   9.253   3.187   7.192 -0.2938  0.1216  0.4038
 8424SOL    HW226950   9.306   3.297   7.103 -0.2101 -0.7753 -0.6690
 8425SOL     OW26951   4.460   7.909   0.752 -0.0031  0.6158 -0.1849
 8425SOL    HW126952   4.366   7.924   0.760 -0.0715 -0.0318  0.2937
 8425SOL    HW226953   4.493   7.919   0.842  0.3096  0.3475 -0.2693
 8426SOL     OW26954   2.190   8.889   1.861  0.4211  0.1411  0.1655
 8426SOL    HW126955   2.168   8.955   1.927  1.8468  1.2876 -0.4540
 8426SOL    HW226956   2.114   8.886   1.804 -0.7942 -0.8015  1.7994
 8427SOL     OW26957   6.231   0.125   3.735  0.6488  0.5466 -0.5284
 8427SOL    HW126958   6.211   0.032   3.728  2.0989  0.3211 -1.8779
 8427SOL    HW226959   6.251   0.138   3.828 -0.8604 -0.2031 -0.0899
 8428SOL     OW26960   7.175   8.080   2.354 -0.4270 -0.2515 -0.0942
 8428SOL    HW126961   7.094   8.099   2.306 -1.0413 -1.9880  0.2103
 8428SOL    HW226962   7.237   8.147   2.325 -1.6058  0.3538 -1.2552
 8429SOL     OW26963   3.063   9.154   4.207 -0.0518 -0.1707  0.6159
 8429SOL    HW126964   3.101   9.193   4.286 -2.2566  0.5206  1.3478
 8429SOL    HW226965   3.100   9.206   4.135  1.8063 -0.6785  1.1782
 8430SOL     OW26966   3.053   8.071   6.856  0.3497  0.0559 -0.3462
 8430SOL    HW126967   3.117   8.024   6.803 -0.0832 -1.0323  0.0829
 8430SOL    HW226968   3.068   8.164   6.836  1.9797 -0.1944 -0.3274
 8431SOL     OW26969   3.061   7.156   2.781 -0.0485  0.7088 -0.0123
 8431SOL    HW126970   3.021   7.187   2.863 -1.6980  0.5829 -0.7569
 8431SOL    HW226971   3.072   7.236   2.729 -1.9488  0.4269 -0.9111
 8432SOL     OW26972   1.417   8.033   6.467 -0.0580  0.0350 -0.6298
 8432SOL    HW126973   1.348   8.064   6.525 -0.1157  1.2052 -1.3151
 8432SOL    HW226974   1.442   7.948   6.504 -0.2354  0.6593  0.9862
 8433SOL     OW26975   4.162   5.826   2.065  0.2207 -0.1056 -0.4210
 8433SOL    HW126976   4.087   5.842   2.121 -0.5326 -0.1874 -1.3813
 8433SOL    HW226977   4.236   5.821   2.124 -0.5981 -0.4941  0.5857
 8434SOL     OW26978   1.942   7.244   2.318  0.1267  0.1822 -0.3967
 8434SOL    HW126979   1.977   7.311   2.260  0.2286 -0.4885 -1.1097
 8434SOL    HW226980   1.861   7.282   2.351 -0.2208  0.3314 -1.4123
 8435SOL     OW26981   8.124   5.352   9.035 -0.4468 -0.1723 -0.6274
 8435SOL    HW126982   8.145   5.446   9.031  1.3712 -0.5501 -0.5903
 8435SOL    HW226983   8.077   5.334   8.954  1.0417  0.3698 -1.6430
 8436SOL     OW26984   7.082   4.279   2.415 -0.6053  0.5053 -0.3461
 8436SOL    HW126985   7.142   4.351   2.433 -0.2551 -0.3802  2.2019
 8436SOL    HW226986   7.112   4.207   2.470 -1.5943 -1.2672 -2.0527
 8437SOL     OW26987   5.952   2.161   1.663 -0.0258 -0.3370 -0.1139
 8437SOL    HW126988   5.959   2.142   1.569  0.9959  1.9483 -0.5351
 8437SOL    HW226989   5.970   2.255   1.670 -0.3783 -0.4189  2.3466
 8438SOL     OW26990   4.246   5.668   6.224 -0.0784  0.2779 -0.3746
 8438SOL    HW126991   4.330   5.635   6.257  0.2823  2.1794  0.7219
 8438SOL    HW226992   4.182   5.643   6.291 -0.0671  0.4103 -0.3137
 8439SOL     OW26993   1.260   7.330   4.116 -0.2273 -0.7097 -0.2467
 8439SOL    HW126994   1.339   7.380   4.135 -0.9023  0.4597 -0.4702
 8439SOL    HW226995   1.190   7.376   4.163 -0.6704 -2.1303  0.5250
 8440SOL     OW26996   7.252   4.883   4.219 -0.5519  0.0780  0.0022
 8440SOL    HW126997   7.276   4.954   4.279  3.3896  0.2250 -1.6340
 8440SOL    HW226998   7.158   4.894   4.206 -0.6281  2.9182  2.4217
 8441SOL     OW26999   4.292   1.078   5.676 -0.6263 -0.2237  0.0846
 8441SOL    HW127000   4.233   1.117   5.612 -0.5347 -1.8289 -1.0052
 8441SOL    HW227001   4.379   1.106   5.649 -0.6425 -0.3649 -0.1142
 8442SOL     OW27002   7.535   2.202   6.374 -0.8826  0.0472 -0.4612
 8442SOL    HW127003   7.521   2.158   6.458 -1.0236 -1.1355 -1.0869
 8442SOL    HW227004   7.450   2.241   6.353 -0.8162  0.4452 -0.0048
 8443SOL     OW27005   7.888   1.586   1.093 -0.2288  0.3525  0.5495
 8443SOL    HW127006   7.921   1.647   1.159  0.0343 -1.3031  1.9825
 8443SOL    HW227007   7.958   1.581   1.029  0.3183  0.5144  1.1207
 8444SOL     OW27008   1.872   2.978   4.766 -0.4838 -0.3905  0.1795
 8444SOL    HW127009   1.959   3.014   4.749 -1.4315  1.2840 -1.3714
 8444SOL    HW227010   1.837   2.957   4.680 -1.2248 -2.0220  0.8618
 8445SOL     OW27011   7.777   4.241   3.096  0.1378  0.1196 -0.7473
 8445SOL    HW127012   7.709   4.233   3.028  1.2527  0.1565 -1.8918
 8445SOL    HW227013   7.781   4.154   3.136 -0.3571  0.0283 -0.8863
 8446SOL     OW27014   7.071   6.575   3.736  0.1067  0.5852 -0.4310
 8446SOL    HW127015   7.016   6.635   3.684 -0.9008 -1.1338 -1.3762
 8446SOL    HW227016   7.009   6.513   3.774  1.2645 -0.5841 -0.4207
 8447SOL     OW27017   7.543   4.052   3.862 -0.3721  0.0408  0.3305
 8447SOL    HW127018   7.494   4.134   3.861 -0.9494 -0.3060  0.0095
 8447SOL    HW227019   7.477   3.985   3.876  0.3711 -0.1946  3.1070
 8448SOL     OW27020   1.641   8.381   0.049  0.1906 -0.4295 -0.1974
 8448SOL    HW127021   1.622   8.342   0.134 -0.2679 -0.0086 -0.1020
 8448SOL    HW227022   1.657   8.473   0.068  0.2875 -0.3731 -0.5449
 8449SOL     OW27023   7.779   8.389   1.131 -0.0639  0.2649 -0.1811
 8449SOL    HW127024   7.715   8.319   1.116  0.3050 -0.3418  0.9969
 8449SOL    HW227025   7.846   8.348   1.186  0.1176  1.5619  0.5691
 8450SOL     OW27026   9.079   3.240   6.402 -1.0576  0.3649 -0.2201
 8450SOL    HW127027   9.164   3.200   6.383 -0.1482  1.5435  1.2106
 8450SOL    HW227028   9.026   3.224   6.324  0.2377 -1.0427 -0.8221
 8451SOL     OW27029   4.819   0.506   2.544  0.0005  0.0224  1.0570
 8451SOL    HW127030   4.842   0.442   2.612  0.4171  1.1224  1.9784
 8451SOL    HW227031   4.840   0.591   2.583  0.0071  0.6921 -0.3681
 8452SOL     OW27032   4.739   4.043   7.346 -0.1501  0.3768 -0.1653
 8452SOL    HW127033   4.648   4.072   7.337 -0.2616 -0.2922 -1.3969
 8452SOL    HW227034   4.787   4.096   7.283  0.0265 -0.4735 -0.7472
 8453SOL     OW27035   9.254   6.801   5.065 -0.1513 -0.7829 -0.4613
 8453SOL    HW127036   9.175   6.829   5.018 -0.4887  1.4009  1.2821
 8453SOL    HW227037   9.325   6.853   5.027 -0.0322 -0.7153 -0.1506
 8454SOL     OW27038   6.849   3.136   3.990 -0.1792  0.2410  0.3367
 8454SOL    HW127039   6.902   3.064   4.024 -1.6000 -0.7161  0.6064
 8454SOL    HW227040   6.836   3.193   4.066  0.2602  0.3450  0.3326
 8455SOL     OW27041   0.260   9.059   8.138 -0.3687  0.1773 -0.1696
 8455SOL    HW127042   0.188   9.122   8.134 -0.8651 -0.4190 -0.6082
 8455SOL    HW227043   0.328   9.096   8.082 -0.9312 -0.0256 -0.9840
 8456SOL     OW27044   8.801   4.753   1.870  0.6023 -0.0911 -0.4763
 8456SOL    HW127045   8.712   4.783   1.888  0.1984 -0.6285 -1.5522
 8456SOL    HW227046   8.809   4.670   1.919  0.1738 -0.5449 -1.1704
 8457SOL     OW27047   3.714   5.094   5.735  0.2749 -0.2416 -0.3652
 8457SOL    HW127048   3.795   5.044   5.727  0.0925 -0.9550  1.9816
 8457SOL    HW227049   3.644   5.028   5.738 -0.2610  0.2984 -0.7063
 8458SOL     OW27050   7.034   0.560   6.569 -0.0228  0.2506 -0.4769
 8458SOL    HW127051   7.020   0.504   6.493  2.0022  0.4944 -1.0541
 8458SOL    HW227052   7.116   0.606   6.551 -0.3252  1.4973  1.1461
 8459SOL     OW27053   3.004   6.746   7.961 -0.2106  0.4600  0.5206
 8459SOL    HW127054   3.050   6.662   7.954 -0.6255  0.1945  0.9316
 8459SOL    HW227055   3.032   6.795   7.884  1.1229  0.4828  1.0069
 8460SOL     OW27056   1.849   6.141   6.321 -0.3449 -0.0180  0.2862
 8460SOL    HW127057   1.840   6.192   6.402 -2.2241  1.0410 -0.5376
 8460SOL    HW227058   1.849   6.050   6.350 -1.4127  0.3364  1.4578
 8461SOL     OW27059   0.858   1.669   8.297  0.9952 -0.2032  0.3175
 8461SOL    HW127060   0.820   1.755   8.277  1.1311 -0.2128  0.0166
 8461SOL    HW227061   0.794   1.628   8.355  0.7441 -0.0501  0.1527
 8462SOL     OW27062   8.441   6.615   0.781  0.1524  0.0570 -0.7344
 8462SOL    HW127063   8.479   6.693   0.741 -1.1815  0.2096 -1.7600
 8462SOL    HW227064   8.516   6.562   0.808  1.0663  1.2445 -0.9175
 8463SOL     OW27065   6.087   0.524   3.783  0.3804  0.0990 -0.1010
 8463SOL    HW127066   6.139   0.545   3.860 -0.1406  1.6497 -0.1594
 8463SOL    HW227067   6.057   0.608   3.750 -1.5772 -0.7074 -0.4748
 8464SOL     OW27068   7.456   1.906   3.427 -0.4108 -0.0840 -0.7657
 8464SOL    HW127069   7.528   1.863   3.382  0.0656  1.0502 -1.0728
 8464SOL    HW227070   7.487   1.917   3.517 -0.3988 -0.0608 -0.7730
 8465SOL     OW27071   1.952   7.041   0.757 -0.3375  0.0240  0.1230
 8465SOL    HW127072   2.012   7.110   0.785 -0.7531  1.4785 -2.4954
 8465SOL    HW227073   2.010   6.971   0.725  0.0301  1.3355 -2.1976
 8466SOL     OW27074   8.847   5.371   0.107 -0.0677 -0.3282 -0.1071
 8466SOL    HW127075   8.893   5.396   0.187 -1.7589  0.5769  0.5977
 8466SOL    HW227076   8.916   5.339   0.049  1.1546 -1.0242  1.7157
 8467SOL     OW27077   4.266   0.416   1.055 -0.2405  0.5061  0.0107
 8467SOL    HW127078   4.310   0.432   1.138 -1.0648 -1.4935  0.8374
 8467SOL    HW227079   4.199   0.485   1.049  0.5789  1.3381  0.4535
 8468SOL     OW27080   3.168   7.350   8.589 -0.3930  0.1536 -0.2241
 8468SOL    HW127081   3.205   7.435   8.610  1.9942 -0.1580 -2.8382
 8468SOL    HW227082   3.138   7.359   8.498 -1.5601 -1.3140 -0.0012
 8469SOL     OW27083   8.222   6.361   6.572 -0.0609  0.1045 -0.3934
 8469SOL    HW127084   8.180   6.445   6.590 -2.4596 -1.3623  1.3386
 8469SOL    HW227085   8.202   6.308   6.650  2.0330 -1.8264 -1.1142
 8470SOL     OW27086   7.862   1.301   8.670 -0.4180  0.3819  0.0293
 8470SOL    HW127087   7.877   1.384   8.625 -0.6840  1.1732  1.3867
 8470SOL    HW227088   7.814   1.325   8.749  1.8965 -0.7293  1.8381
 8471SOL     OW27089   5.672   5.019   4.844  0.1807  0.5428  0.3843
 8471SOL    HW127090   5.759   5.051   4.865  0.2033  0.7670 -0.0515
 8471SOL    HW227091   5.662   4.940   4.897  1.0747 -0.1036 -0.3862
 8472SOL     OW27092   1.010   8.140   0.842  0.3389 -0.1989 -0.5489
 8472SOL    HW127093   0.986   8.060   0.796  1.8234 -0.5019 -0.8332
 8472SOL    HW227094   1.106   8.142   0.838  0.4031  0.6889  0.9791
 8473SOL     OW27095   3.795   6.080   0.883  0.2653  0.0813 -0.3965
 8473SOL    HW127096   3.700   6.068   0.877  0.4222 -1.2382 -0.3656
 8473SOL    HW227097   3.806   6.144   0.953 -0.5698 -0.2945  0.0892
 8474SOL     OW27098   0.412   1.753   1.439  0.1077 -0.2899 -0.2905
 8474SOL    HW127099   0.330   1.743   1.391  1.6801  0.0987 -3.1265
 8474SOL    HW227100   0.468   1.806   1.382  1.9845  0.3892  2.0649
 8475SOL     OW27101   4.760   9.080   6.639  0.1187 -0.0146  0.3100
 8475SOL    HW127102   4.765   9.025   6.718 -0.9744 -0.5744 -0.0045
 8475SOL    HW227103   4.847   9.071   6.599  0.7749  0.4855  1.5833
 8476SOL     OW27104   0.174   0.247   6.161 -0.4096  0.0959  0.5899
 8476SOL    HW127105   0.146   0.337   6.144 -0.9380  0.3452  2.6850
 8476SOL    HW227106   0.233   0.254   6.235  0.3729 -1.1739  0.0847
 8477SOL     OW27107   9.282   4.155   3.523 -0.4473 -0.0193  0.4166
 8477SOL    HW127108   9.208   4.211   3.545 -0.6475  0.0066 -0.2959
 8477SOL    HW227109   9.304   4.178   3.433  0.0383 -0.4608  0.4146
 8478SOL     OW27110   6.039   0.215   4.861  1.0296 -0.5267 -0.1429
 8478SOL    HW127111   6.009   0.196   4.773  0.5654 -0.0018 -0.1018
 8478SOL    HW227112   6.130   0.187   4.862  0.6872 -1.6664 -0.4221
 8479SOL     OW27113   6.998   8.334   2.330 -0.6402 -0.5556  0.3461
 8479SOL    HW127114   6.983   8.423   2.360  2.8789  0.1831  0.1240
 8479SOL    HW227115   6.958   8.278   2.396 -3.0644  1.1646  0.3632
 8480SOL     OW27116   0.660   1.825   3.722 -0.1531 -0.0773 -0.2589
 8480SOL    HW127117   0.681   1.732   3.732  1.6783  0.2238 -1.2445
 8480SOL    HW227118   0.714   1.869   3.787 -0.6371  0.3559 -0.1446
 8481SOL     OW27119   1.745   5.766   6.931  0.6326  0.0481 -0.6644
 8481SOL    HW127120   1.672   5.711   6.962  1.1338 -0.6819 -0.7579
 8481SOL    HW227121   1.823   5.723   6.966  0.9585  1.5553  0.5363
 8482SOL     OW27122   0.425   8.820   4.131 -0.2125  1.2075 -0.5730
 8482SOL    HW127123   0.436   8.728   4.107  0.8692  0.6184  2.0939
 8482SOL    HW227124   0.347   8.822   4.186 -0.2385  1.8848 -0.6299
 8483SOL     OW27125   2.045   6.270   4.701  0.4006 -0.0928 -0.1966
 8483SOL    HW127126   2.120   6.329   4.689  0.1478 -0.2353 -2.6890
 8483SOL    HW227127   1.968   6.326   4.691  0.1620 -0.3787  0.0304
 8484SOL     OW27128   5.877   0.751   3.311  0.7787 -0.3547  0.6137
 8484SOL    HW127129   5.840   0.819   3.367  1.2597 -1.4773  2.3283
 8484SOL    HW227130   5.965   0.781   3.290  0.2350  0.5533 -0.4001
 8485SOL     OW27131   3.955   8.276   0.662 -0.2414 -0.3466 -0.0688
 8485SOL    HW127132   3.960   8.372   0.660 -2.1722 -0.2265 -0.5300
 8485SOL    HW227133   4.012   8.251   0.734  2.6576  0.9446 -1.8438
 8486SOL     OW27134   7.695   3.638   7.855  0.1257 -0.0029  0.1682
 8486SOL    HW127135   7.772   3.582   7.849 -0.1492 -0.3794  0.1983
 8486SOL    HW227136   7.730   3.722   7.887  0.7629  0.3128 -1.2589
 8487SOL     OW27137   8.610   2.909   2.857 -0.2642 -0.2130  0.2925
 8487SOL    HW127138   8.577   2.999   2.857 -0.4025 -0.2635  0.1959
 8487SOL    HW227139   8.647   2.896   2.769 -0.7219 -0.4240  0.1314
 8488SOL     OW27140   3.051   2.969   8.536 -0.2460  0.3515  0.1356
 8488SOL    HW127141   3.004   2.892   8.504 -1.9326  0.8570  1.3216
 8488SOL    HW227142   3.139   2.937   8.554 -0.7380 -1.1515 -0.0316
 8489SOL     OW27143   4.181   2.579   6.168 -0.1447  0.1955  0.4793
 8489SOL    HW127144   4.239   2.613   6.099 -0.2496 -0.1419  0.2201
 8489SOL    HW227145   4.100   2.558   6.122  0.9260 -3.2458  0.0331
 8490SOL     OW27146   6.576   7.231   4.860  0.1955  0.4850  1.0108
 8490SOL    HW127147   6.557   7.244   4.953 -0.6992  2.1635  0.6215
 8490SOL    HW227148   6.493   7.202   4.822 -0.5739  3.6924  0.0606
 8491SOL     OW27149   1.581   0.519   5.518  0.2226  0.1216  0.9807
 8491SOL    HW127150   1.546   0.594   5.470 -1.0631 -0.4756  0.9801
 8491SOL    HW227151   1.505   0.480   5.560  0.9787 -0.8360  1.4674
 8492SOL     OW27152   3.686   2.798   1.291  1.0099 -0.4639  0.5047
 8492SOL    HW127153   3.604   2.844   1.274  1.7001  1.8226  2.9206
 8492SOL    HW227154   3.740   2.814   1.214  0.0283 -0.0276 -0.0924
 8493SOL     OW27155   3.708   8.816   1.435 -0.1585 -0.5166  0.1577
 8493SOL    HW127156   3.645   8.887   1.428 -1.2617 -1.4146  0.8534
 8493SOL    HW227157   3.794   8.859   1.432 -0.8143  0.8316  0.5934
 8494SOL     OW27158   0.927   6.049   4.271 -0.3970  0.7507  0.0042
 8494SOL    HW127159   0.907   6.130   4.317  3.7364  2.0659 -0.3058
 8494SOL    HW227160   0.892   6.062   4.183 -3.3817  0.4468  1.0629
 8495SOL     OW27161   5.325   4.827   4.705 -0.2486  0.0818  0.5112
 8495SOL    HW127162   5.370   4.743   4.712 -1.6219 -0.7478 -0.4177
 8495SOL    HW227163   5.287   4.827   4.617 -1.0550  1.2757  0.8403
 8496SOL     OW27164   2.703   9.224   8.305 -0.1341  0.5878 -0.3783
 8496SOL    HW127165   2.716   9.291   8.237 -1.4113  1.7418  0.4934
 8496SOL    HW227166   2.759   9.252   8.377  1.5802 -0.8947 -1.1183
 8497SOL     OW27167   3.287   6.318   2.255  0.0628 -0.3770  0.1583
 8497SOL    HW127168   3.358   6.313   2.319 -1.4837  1.1408  2.0824
 8497SOL    HW227169   3.320   6.374   2.185  1.4552 -1.3044  0.0664
 8498SOL     OW27170   2.629   4.740   2.559  0.2196  0.4248  0.3170
 8498SOL    HW127171   2.676   4.706   2.636  0.1397  0.7817  0.5215
 8498SOL    HW227172   2.541   4.759   2.591  0.2353  0.7358  0.1783
 8499SOL     OW27173   8.627   4.025   3.789  0.1016  0.2544 -0.0607
 8499SOL    HW127174   8.553   4.064   3.742  0.2890  0.7048  0.0085
 8499SOL    HW227175   8.607   3.932   3.793 -0.9368  0.5080  0.8189
 8500SOL     OW27176   6.741   1.745   0.785  0.5725 -0.7866 -0.0505
 8500SOL    HW127177   6.789   1.707   0.711  1.3164  0.8190 -0.4079
 8500SOL    HW227178   6.712   1.669   0.836  1.4425 -1.8554 -1.1120
 8501SOL     OW27179   2.546   3.087   5.382  0.2527  0.1601  0.5971
 8501SOL    HW127180   2.638   3.067   5.368  0.5530  1.6730  0.3364
 8501SOL    HW227181   2.516   3.123   5.298  0.0705  2.0173  1.4475
 8502SOL     OW27182   5.127   3.951   8.006 -0.4363  0.1065 -0.0219
 8502SOL    HW127183   5.093   4.017   7.946 -1.5468 -0.8694 -0.4993
 8502SOL    HW227184   5.215   3.932   7.975 -1.0987 -0.5851 -1.5055
 8503SOL     OW27185   3.696   7.702   4.450  0.2130 -0.3759  0.1315
 8503SOL    HW127186   3.647   7.748   4.382  0.6828 -0.9141 -0.5854
 8503SOL    HW227187   3.651   7.618   4.459 -0.1257 -0.1226  0.8200
 8504SOL     OW27188   6.840   9.172   7.751  0.3313 -0.2480  0.3674
 8504SOL    HW127189   6.757   9.219   7.735  0.3694 -0.8940 -1.8263
 8504SOL    HW227190   6.813   9.089   7.790 -0.0158 -0.2437  0.1396
 8505SOL     OW27191   0.246   6.082   0.233  0.0758 -0.2529  0.0114
 8505SOL    HW127192   0.168   6.123   0.196  1.2497  1.3387 -0.8057
 8505SOL    HW227193   0.214   6.031   0.307 -1.6249  1.1116  0.2564
 8506SOL     OW27194   5.160   7.777   0.921  0.3354  0.3492 -0.5473
 8506SOL    HW127195   5.216   7.800   0.995 -0.8357  1.6109 -0.0199
 8506SOL    HW227196   5.220   7.755   0.850  1.4768 -1.9559  1.1027
 8507SOL     OW27197   1.144   8.834   7.910  0.0400  0.3303  0.2754
 8507SOL    HW127198   1.210   8.888   7.954  1.7148  0.2180 -2.0245
 8507SOL    HW227199   1.180   8.818   7.823 -1.9816 -1.6814 -0.2380
 8508SOL     OW27200   7.859   2.835   7.751  0.9170  0.1650 -0.1729
 8508SOL    HW127201   7.874   2.914   7.698 -1.7836 -0.5506 -2.0844
 8508SOL    HW227202   7.893   2.763   7.698  3.1599 -0.0453  1.4672
 8509SOL     OW27203   1.517   5.645   0.890 -0.3094  0.1695  0.4398
 8509SOL    HW127204   1.543   5.693   0.969  0.0192  0.9191 -0.1168
 8509SOL    HW227205   1.445   5.697   0.854  0.3006  0.4587 -0.3749
 8510SOL     OW27206   5.150   7.800   2.206 -0.2999  0.1172  0.0618
 8510SOL    HW127207   5.109   7.715   2.219  0.5264 -0.2783  0.0952
 8510SOL    HW227208   5.191   7.795   2.120 -1.2778  0.9134 -0.4738
 8511SOL     OW27209   1.674   8.893   7.631 -0.1426 -0.2206  0.2070
 8511SOL    HW127210   1.600   8.931   7.583  0.7976  0.4751 -0.7271
 8511SOL    HW227211   1.650   8.901   7.723  0.3702  3.5081  0.1145
 8512SOL     OW27212   4.873   0.705   3.363  0.9515  0.0506 -0.5479
 8512SOL    HW127213   4.960   0.745   3.364  0.6482  0.9700 -4.8258
 8512SOL    HW227214   4.891   0.611   3.352  1.4080 -0.1613  1.6295
 8513SOL     OW27215   8.437   8.088   0.041  0.1330 -0.5088 -0.6736
 8513SOL    HW127216   8.491   8.166   0.028 -1.6660  0.7555 -0.7757
 8513SOL    HW227217   8.453   8.035  -0.037 -0.1135  0.6733 -1.5445
 8514SOL     OW27218   4.740   3.272   0.258 -0.9751 -0.1270 -0.3826
 8514SOL    HW127219   4.721   3.218   0.335  1.9254  0.1199  0.5891
 8514SOL    HW227220   4.763   3.358   0.294 -1.2944  0.5040 -1.6460
 8515SOL     OW27221   2.252   2.674   2.007 -0.2743 -0.2124  0.4669
 8515SOL    HW127222   2.276   2.601   1.950 -1.4258  0.0131 -0.3119
 8515SOL    HW227223   2.323   2.738   1.996  0.2957 -0.8378  0.4878
 8516SOL     OW27224   4.161   8.789   6.885 -0.3095 -0.2257 -0.1395
 8516SOL    HW127225   4.174   8.785   6.980 -2.3727 -0.1063  0.1645
 8516SOL    HW227226   4.129   8.702   6.862 -0.0284 -0.1831 -0.7046
 8517SOL     OW27227   0.461   3.262   4.319 -0.3585  0.2871 -0.5819
 8517SOL    HW127228   0.438   3.288   4.229 -0.1863 -1.7027 -1.2285
 8517SOL    HW227229   0.554   3.238   4.313 -0.2313  0.5639  0.2329
 8518SOL     OW27230   9.270   8.156   7.624 -0.0053 -0.6574 -0.1457
 8518SOL    HW127231   9.177   8.135   7.616 -0.1771 -0.0510  0.1802
 8518SOL    HW227232   9.305   8.150   7.535  0.0540 -2.7466  0.0143
 8519SOL     OW27233   4.436   8.018   3.925  0.3082  0.0302 -0.1946
 8519SOL    HW127234   4.422   8.026   3.831 -0.7309 -1.9856 -0.2423
 8519SOL    HW227235   4.352   7.986   3.959  0.8171  0.3130  1.3609
 8520SOL     OW27236   7.312   6.921   8.907  0.0668 -0.6430  0.4494
 8520SOL    HW127237   7.276   6.872   8.981  0.9812 -0.3924  1.0833
 8520SOL    HW227238   7.275   7.009   8.916 -2.9518 -1.6327 -1.6900
 8521SOL     OW27239   0.481   0.385   1.916 -0.4206  0.1881 -0.4430
 8521SOL    HW127240   0.482   0.445   1.991 -0.7084  1.9447 -1.8127
 8521SOL    HW227241   0.550   0.417   1.859  0.1300 -1.4482 -0.7190
 8522SOL     OW27242   4.432   5.950   4.298 -0.5244  0.1447  0.3807
 8522SOL    HW127243   4.384   6.006   4.236 -2.2218 -1.0694  0.5904
 8522SOL    HW227244   4.463   6.011   4.366 -1.3520  1.0084 -0.0062
 8523SOL     OW27245   2.119   6.297   6.434 -0.5552 -0.5760 -0.4880
 8523SOL    HW127246   2.054   6.246   6.482 -1.1566 -0.4572 -1.1652
 8523SOL    HW227247   2.151   6.361   6.498 -1.0484 -0.6881 -0.1255
 8524SOL     OW27248   2.775   6.179   2.575 -0.9700 -0.2892  0.3769
 8524SOL    HW127249   2.795   6.273   2.571  0.3770 -0.6457 -3.5781
 8524SOL    HW227250   2.699   6.169   2.517 -0.1207 -1.8270 -0.4952
 8525SOL     OW27251   3.220   2.694   0.422 -0.0325  0.2181 -0.4373
 8525SOL    HW127252   3.146   2.731   0.375  0.5335  0.2783 -1.2874
 8525SOL    HW227253   3.235   2.754   0.495 -0.6964  0.3094 -0.3785
 8526SOL     OW27254   8.979   3.349   9.248 -0.2450 -0.1361 -0.2412
 8526SOL    HW127255   8.961   3.410   9.177  1.1223 -1.6727 -1.9511
 8526SOL    HW227256   9.074   3.348   9.256 -0.3532 -0.3492  1.3202
 8527SOL     OW27257   5.650   9.067   4.426  0.0956  0.5562  0.2639
 8527SOL    HW127258   5.608   9.145   4.389 -1.3863 -0.4997 -0.3434
 8527SOL    HW227259   5.658   9.008   4.351 -0.1224 -0.4368  1.0290
 8528SOL     OW27260   1.574   5.644   5.717 -0.5168  0.0241  0.2326
 8528SOL    HW127261   1.551   5.607   5.632  0.2925  0.8749 -0.3683
 8528SOL    HW227262   1.664   5.616   5.733 -0.0029  1.4583 -0.0942
 8529SOL     OW27263   5.704   1.265   4.394 -0.1816  0.4285  0.3578
 8529SOL    HW127264   5.688   1.311   4.311 -0.2498  0.9619  0.6606
 8529SOL    HW227265   5.640   1.303   4.455  0.1885  0.3810  0.7794
 8530SOL     OW27266   0.865   5.804   8.284 -0.0627  0.3217  0.3008
 8530SOL    HW127267   0.938   5.742   8.288  0.5371  0.8640 -1.7478
 8530SOL    HW227268   0.907   5.890   8.289 -0.5565  0.6348 -0.8198
 8531SOL     OW27269   1.730   4.435   4.877 -0.2239  0.7686 -0.3895
 8531SOL    HW127270   1.806   4.472   4.921 -0.2812  1.3955 -0.8116
 8531SOL    HW227271   1.763   4.401   4.794  0.4266 -2.9363  1.2474
 8532SOL     OW27272   2.553   1.299   4.367 -0.3737 -0.1937 -0.0078
 8532SOL    HW127273   2.503   1.260   4.440 -0.1616  0.5020  0.5138
 8532SOL    HW227274   2.574   1.225   4.311  0.6773 -0.9611  1.3578
 8533SOL     OW27275   6.551   2.052   1.303 -0.0914 -0.7832 -0.0012
 8533SOL    HW127276   6.462   2.081   1.320 -0.0085 -0.2571 -0.4729
 8533SOL    HW227277   6.575   2.094   1.221 -0.1423 -2.5327 -0.9303
 8534SOL     OW27278   0.107   6.299   0.993  0.3127  0.1872  0.2588
 8534SOL    HW127279   0.118   6.387   0.959  0.4356 -0.3867 -1.2176
 8534SOL    HW227280   0.196   6.265   1.001  0.3373  0.5759  1.9083
 8535SOL     OW27281   8.986   1.789   0.521  0.1559 -0.1801  0.4311
 8535SOL    HW127282   8.978   1.768   0.614  1.8528 -1.3212  0.3320
 8535SOL    HW227283   9.019   1.878   0.520 -0.2863 -0.0008  0.9053
 8536SOL     OW27284   3.034   3.088   1.196 -0.4586  0.2934 -0.2205
 8536SOL    HW127285   3.103   3.153   1.182  0.9987 -0.2536  3.7944
 8536SOL    HW227286   3.080   3.004   1.196 -1.5985 -0.3426 -0.4479
 8537SOL     OW27287   7.486   7.418   0.429 -0.1872  0.8948 -0.3306
 8537SOL    HW127288   7.578   7.444   0.428 -0.3929  1.6041 -1.2600
 8537SOL    HW227289   7.439   7.495   0.396 -1.1517  0.7033  0.5907
 8538SOL     OW27290   1.620   3.994   0.866  0.0999 -0.8532 -0.3623
 8538SOL    HW127291   1.550   4.021   0.926  1.5336  0.5808  0.7097
 8538SOL    HW227292   1.654   3.914   0.905  1.7567  0.6587  1.4130
 8539SOL     OW27293   3.356   3.075   6.226 -0.7912  0.3000  0.2864
 8539SOL    HW127294   3.425   3.023   6.266 -1.1541 -0.6890 -0.3624
 8539SOL    HW227295   3.291   3.086   6.295 -0.3262  0.5972  0.6730
 8540SOL     OW27296   0.655   2.673   0.442  0.1678  0.5430  0.1212
 8540SOL    HW127297   0.569   2.689   0.403  0.2979 -0.4153 -0.5894
 8540SOL    HW227298   0.686   2.759   0.470 -0.0720  1.2061 -1.6106
 8541SOL     OW27299   4.342   8.820   5.598 -0.3415  0.1221  0.0832
 8541SOL    HW127300   4.288   8.897   5.580 -1.0263 -0.2047  0.7591
 8541SOL    HW227301   4.317   8.791   5.685 -0.2484 -1.0091 -0.2471
 8542SOL     OW27302   2.819   1.248   5.772 -0.5738 -0.4335 -0.0206
 8542SOL    HW127303   2.813   1.342   5.787 -0.7794 -0.1401 -1.8951
 8542SOL    HW227304   2.736   1.225   5.730 -1.5084 -1.8827  2.4659
 8543SOL     OW27305   6.316   7.561   5.474 -0.3797 -0.2124  0.2679
 8543SOL    HW127306   6.347   7.472   5.463  0.6113  0.1837 -0.1858
 8543SOL    HW227307   6.241   7.567   5.415  0.1848 -0.4354 -0.4752
 8544SOL     OW27308   8.902   3.388   0.767 -0.1955  0.4764 -0.4553
 8544SOL    HW127309   8.876   3.299   0.791  1.2477 -0.4792 -2.3211
 8544SOL    HW227310   8.882   3.441   0.845  1.0917 -1.8843  1.5382
 8545SOL     OW27311   6.270   7.045   8.841  0.3815  0.2246 -0.0105
 8545SOL    HW127312   6.211   7.085   8.778  0.8855  2.0488  0.6344
 8545SOL    HW227313   6.248   6.952   8.840 -1.5702  0.6831 -0.7430
 8546SOL     OW27314   8.054   6.497   8.116 -0.0480 -0.1077  0.1519
 8546SOL    HW127315   7.979   6.545   8.083 -0.2001 -0.2298  0.3205
 8546SOL    HW227316   8.064   6.526   8.207  0.3079  0.1548  0.0322
 8547SOL     OW27317   1.904   1.873   7.708  0.0152  0.3768  0.0027
 8547SOL    HW127318   1.951   1.815   7.768 -1.4269 -0.5939  0.2270
 8547SOL    HW227319   1.908   1.828   7.623 -0.1225  0.5044 -0.0733
 8548SOL     OW27320   6.358   3.153   2.052  0.2370 -0.3696 -0.2348
 8548SOL    HW127321   6.349   3.070   2.099  3.5014 -0.6467 -0.0412
 8548SOL    HW227322   6.415   3.133   1.978 -2.8234  0.6446 -2.9814
 8549SOL     OW27323   8.211   7.680   4.438  0.0162 -0.3790  0.2390
 8549SOL    HW127324   8.211   7.636   4.353 -0.2270 -1.0877  0.6054
 8549SOL    HW227325   8.153   7.628   4.493  0.9411 -0.4890  1.1351
 8550SOL     OW27326   7.138   0.831   6.834 -0.7883 -0.0236 -0.0842
 8550SOL    HW127327   7.059   0.869   6.872  0.0473 -0.4541  2.1333
 8550SOL    HW227328   7.142   0.867   6.746 -3.1263  0.4814 -0.0111
 8551SOL     OW27329   1.254   1.994   6.243 -0.1244  0.2946  0.4344
 8551SOL    HW127330   1.295   1.977   6.328 -0.0975  0.8476  0.5377
 8551SOL    HW227331   1.188   2.061   6.261 -0.1315  0.4018  0.0247
 8552SOL     OW27332   8.922   4.064   2.448 -0.1430 -0.1637 -0.0385
 8552SOL    HW127333   8.830   4.068   2.424 -0.4744  0.0868  1.2299
 8552SOL    HW227334   8.967   4.109   2.377 -1.3062  2.4010  0.7737
 8553SOL     OW27335   4.849   5.395   8.446 -0.1603 -0.1849  0.0847
 8553SOL    HW127336   4.896   5.313   8.459 -0.4139 -0.2179  0.7765
 8553SOL    HW227337   4.758   5.373   8.462 -0.3729 -0.0214 -0.8433
 8554SOL     OW27338   2.973   3.503   0.367 -0.2718  0.4217  0.2544
 8554SOL    HW127339   3.033   3.521   0.295  0.3686  1.6123  1.0617
 8554SOL    HW227340   3.004   3.560   0.438 -0.7910 -0.8562  1.5145
 8555SOL     OW27341   2.167   5.546   4.627  0.0473 -0.5763  0.7888
 8555SOL    HW127342   2.254   5.507   4.637  0.5540  0.4404  0.3720
 8555SOL    HW227343   2.116   5.478   4.582  1.0632 -0.5874 -0.3706
 8556SOL     OW27344   3.406   7.057   2.185  0.0507  0.1610  0.2224
 8556SOL    HW127345   3.324   7.043   2.137  0.6766 -0.6960 -0.6229
 8556SOL    HW227346   3.459   6.979   2.165  1.2600  0.9330  0.3586
 8557SOL     OW27347   3.001   0.808   2.387  0.2259  0.7541  0.2220
 8557SOL    HW127348   2.991   0.885   2.443 -3.1239  0.3824  0.2463
 8557SOL    HW227349   2.987   0.734   2.446 -0.7882  0.2754 -0.6055
 8558SOL     OW27350   5.690   2.386   6.367  0.0031  0.2061  0.0306
 8558SOL    HW127351   5.750   2.312   6.356  1.0263  1.1849 -1.1164
 8558SOL    HW227352   5.636   2.385   6.289 -1.6451 -0.7885  1.1504
 8559SOL     OW27353   4.603   8.893   8.776 -0.0208 -0.6541 -0.0979
 8559SOL    HW127354   4.589   8.970   8.831  0.9710  0.5730 -1.5046
 8559SOL    HW227355   4.515   8.862   8.754 -0.4327  0.3242  0.1465
 8560SOL     OW27356   2.505   0.441   8.082 -0.2175  0.2497 -0.0152
 8560SOL    HW127357   2.576   0.504   8.073  0.0944 -0.0164  0.5693
 8560SOL    HW227358   2.490   0.408   7.993  0.5517  0.1316 -0.0991
 8561SOL     OW27359   6.137   7.901   2.737  0.4664 -0.1445 -0.5042
 8561SOL    HW127360   6.150   7.942   2.651  0.6203 -0.5620 -0.6821
 8561SOL    HW227361   6.207   7.836   2.743  1.0123  0.5263  0.3341
 8562SOL     OW27362   1.639   6.971   7.324  0.6531  0.2882 -0.1770
 8562SOL    HW127363   1.601   7.037   7.266  0.6312  1.1359  0.7897
 8562SOL    HW227364   1.688   6.913   7.266  1.1769  1.5150 -0.9669
 8563SOL     OW27365   3.043   7.390   5.036  0.2177 -0.2374 -0.6625
 8563SOL    HW127366   3.026   7.318   5.097 -2.3989  0.0445 -1.0248
 8563SOL    HW227367   3.112   7.357   4.979  0.0724 -1.8985  0.0906
 8564SOL     OW27368   5.362   2.053   8.742  0.5314  0.4947  0.1822
 8564SOL    HW127369   5.410   2.029   8.662  3.0427 -2.4635  2.4214
 8564SOL    HW227370   5.276   2.012   8.732  0.8878  0.0081 -0.9458
 8565SOL     OW27371   2.800   3.491   4.281 -0.6830  0.2546  0.3451
 8565SOL    HW127372   2.841   3.522   4.200 -0.4161  0.7147  0.6501
 8565SOL    HW227373   2.812   3.396   4.279  2.5621  0.5532  1.5474
 8566SOL     OW27374   0.387   1.828   7.668  0.5136 -0.0388  0.6138
 8566SOL    HW127375   0.420   1.785   7.589 -1.9852 -1.4858  0.3007
 8566SOL    HW227376   0.357   1.914   7.638  1.4796  0.2200  0.3889
 8567SOL     OW27377   7.207   2.006   8.567 -0.0687  0.2330 -0.3229
 8567SOL    HW127378   7.257   1.927   8.546 -0.6328  0.1904 -1.5141
 8567SOL    HW227379   7.199   2.052   8.484  0.1387  1.4825  0.3415
 8568SOL     OW27380   0.259   5.591   5.643 -0.0574 -0.0353  0.4929
 8568SOL    HW127381   0.256   5.511   5.695  1.4394  0.0918  0.7998
 8568SOL    HW227382   0.167   5.609   5.621 -0.6318 -0.5520  2.3743
 8569SOL     OW27383   1.375   3.244   8.657 -0.6103 -0.0454  0.5129
 8569SOL    HW127384   1.343   3.334   8.654 -1.9480 -0.5168 -0.0321
 8569SOL    HW227385   1.340   3.209   8.739 -1.4798 -0.5503 -0.0618
 8570SOL     OW27386   0.934   8.631   8.371 -0.3293  0.6914  0.3371
 8570SOL    HW127387   0.883   8.550   8.375 -0.3424  0.6317 -1.0188
 8570SOL    HW227388   1.025   8.602   8.367 -0.1378  0.8036  3.0093
 8571SOL     OW27389   4.641   5.346   2.647  0.7326  0.1992  0.6945
 8571SOL    HW127390   4.691   5.359   2.567 -1.3164  0.0453 -0.6403
 8571SOL    HW227391   4.590   5.426   2.656 -0.0526 -0.3480  1.1193
 8572SOL     OW27392   7.709   7.175   8.740  0.1902  0.0453 -0.3307
 8572SOL    HW127393   7.628   7.125   8.746  0.3874 -0.5144 -2.1378
 8572SOL    HW227394   7.761   7.146   8.816 -0.9638 -0.1780  0.3828
 8573SOL     OW27395   0.650   8.264   6.086 -0.9128  0.8596 -0.0959
 8573SOL    HW127396   0.589   8.201   6.047  0.8900 -1.9142  1.4085
 8573SOL    HW227397   0.728   8.260   6.030 -0.2204  0.5998  0.8657
 8574SOL     OW27398   5.364   4.541   3.475  0.7315  0.0233 -0.5702
 8574SOL    HW127399   5.436   4.588   3.517  1.3471 -1.2186 -0.2095
 8574SOL    HW227400   5.375   4.450   3.503  1.3453 -0.9140 -3.6759
 8575SOL     OW27401   3.942   8.105   0.445 -0.1469 -0.1739 -0.3792
 8575SOL    HW127402   3.943   8.152   0.528 -1.0474  0.1139 -0.5269
 8575SOL    HW227403   3.921   8.172   0.379 -2.3400 -0.9429 -0.4795
 8576SOL     OW27404   9.059   5.283   1.946 -0.1014  0.1966 -0.6847
 8576SOL    HW127405   9.123   5.326   2.003  0.1960 -1.1144  0.0004
 8576SOL    HW227406   9.112   5.225   1.890 -0.8266 -2.7672  1.5525
 8577SOL     OW27407   8.126   5.079   2.946 -0.1101  0.1528  0.1654
 8577SOL    HW127408   8.144   5.023   2.870  0.3481 -1.6625  1.5605
 8577SOL    HW227409   8.138   5.021   3.021 -1.1529  1.7550  1.6054
 8578SOL     OW27410   5.280   9.095   3.342  0.6080  0.4562 -0.0308
 8578SOL    HW127411   5.343   9.023   3.336  1.8573  1.4516  0.8614
 8578SOL    HW227412   5.304   9.142   3.422 -0.8643  1.2451 -0.0278
 8579SOL     OW27413   5.412   7.908   3.708 -0.0750  0.0314  0.2775
 8579SOL    HW127414   5.426   8.003   3.708 -1.1865  0.2083  1.3227
 8579SOL    HW227415   5.325   7.897   3.670 -0.7513 -0.4307  1.9244
 8580SOL     OW27416   7.208   4.762   4.658 -0.0066  0.5754 -0.0726
 8580SOL    HW127417   7.296   4.752   4.624 -0.0653  0.5929 -0.2325
 8580SOL    HW227418   7.214   4.835   4.720 -0.0020  0.8685 -0.4163
 8581SOL     OW27419   0.020   0.919   1.347  0.0627 -0.3441 -0.0890
 8581SOL    HW127420  -0.071   0.948   1.354  0.8015  2.8151 -2.4542
 8581SOL    HW227421   0.025   0.876   1.262  1.0671  0.6374 -0.5354
 8582SOL     OW27422   1.507   0.647   1.513  0.5446 -0.2529 -0.4722
 8582SOL    HW127423   1.504   0.667   1.606 -0.4562 -0.9543 -0.3507
 8582SOL    HW227424   1.575   0.581   1.504 -1.2709 -2.2372  0.1531
 8583SOL     OW27425   8.688   6.828   6.537 -0.5328  0.3122 -0.7277
 8583SOL    HW127426   8.613   6.783   6.497 -0.3597  1.1182 -1.9718
 8583SOL    HW227427   8.761   6.809   6.479 -0.2177  1.2615 -0.6487
 8584SOL     OW27428   4.800   3.942   7.611 -0.2094 -0.2095  0.6694
 8584SOL    HW127429   4.823   3.996   7.535 -0.7302 -1.7594 -0.6248
 8584SOL    HW227430   4.710   3.967   7.632 -0.8829 -1.3916 -0.6946
 8585SOL     OW27431   7.023   0.635   1.102  0.3603 -0.0833 -0.2037
 8585SOL    HW127432   7.085   0.618   1.174 -0.1288  0.1269  0.2704
 8585SOL    HW227433   7.005   0.729   1.108 -1.9153 -0.5525  1.2345
 8586SOL     OW27434   8.401   4.491   5.264  0.2451  0.5408  0.0433
 8586SOL    HW127435   8.371   4.435   5.192  1.2812 -0.8936  0.7030
 8586SOL    HW227436   8.391   4.580   5.230 -1.1806 -0.0347 -1.1261
 8587SOL     OW27437   6.548   4.740   1.700  0.1113 -0.1608 -0.1999
 8587SOL    HW127438   6.516   4.681   1.769 -1.6380  2.9493  1.7714
 8587SOL    HW227439   6.469   4.782   1.666  1.3748  1.5299 -1.0943
 8588SOL     OW27440   5.541   6.005   1.071  0.1670 -0.2227 -0.2151
 8588SOL    HW127441   5.534   5.919   1.113 -1.3583  0.7772  1.6201
 8588SOL    HW227442   5.459   6.014   1.023 -0.8002  1.2875  1.6902
 8589SOL     OW27443   7.312   1.092   6.769  0.1109 -0.3706 -0.6985
 8589SOL    HW127444   7.294   1.075   6.862  0.1965 -1.8421 -0.9386
 8589SOL    HW227445   7.261   1.169   6.748 -1.1034 -0.9197  0.1898
 8590SOL     OW27446   8.801   1.628   5.220  0.8163 -0.1671  0.2503
 8590SOL    HW127447   8.758   1.567   5.160  0.6721 -0.3908  0.5828
 8590SOL    HW227448   8.891   1.633   5.188  0.8740 -0.6932  0.3280
 8591SOL     OW27449   2.976   4.968   2.325 -0.0055 -0.2996  0.2026
 8591SOL    HW127450   2.990   5.021   2.247 -0.4765  1.4363  1.2628
 8591SOL    HW227451   3.056   4.979   2.377 -0.3849 -0.0693  0.7448
 8592SOL     OW27452   2.717   1.191   1.585  0.2537 -0.5029 -0.1331
 8592SOL    HW127453   2.765   1.144   1.653 -0.1672 -0.3132  0.3001
 8592SOL    HW227454   2.641   1.136   1.567 -0.1943 -0.0360  0.3108
 8593SOL     OW27455   5.704   7.125   5.027  0.5348  0.0549 -0.0240
 8593SOL    HW127456   5.733   7.103   5.115 -0.1272 -0.4594  0.0671
 8593SOL    HW227457   5.755   7.065   4.970  0.7622  0.2007  0.0247
 8594SOL     OW27458   5.657   0.920   7.136 -0.2264 -0.2285 -0.9750
 8594SOL    HW127459   5.648   0.964   7.221 -0.7777 -1.2414 -0.4958
 8594SOL    HW227460   5.727   0.857   7.149 -2.1972 -2.3855 -0.3817
 8595SOL     OW27461   0.823   3.291   6.572 -0.0305  0.1432  0.0247
 8595SOL    HW127462   0.860   3.328   6.652 -0.2168 -0.0083  0.1823
 8595SOL    HW227463   0.874   3.331   6.501  1.0088 -0.7316  0.2713
 8596SOL     OW27464   3.748   5.364   8.244 -0.0564 -1.0303  0.8807
 8596SOL    HW127465   3.795   5.434   8.291 -0.7662 -1.4999  2.3274
 8596SOL    HW227466   3.798   5.352   8.163  0.6714  0.4363  1.0884
 8597SOL     OW27467   2.887   9.173   1.978 -0.5053 -0.1309 -0.0120
 8597SOL    HW127468   2.825   9.226   1.927  1.3501  1.8085 -0.3093
 8597SOL    HW227469   2.868   9.194   2.069  0.3341  1.1676 -0.1375
 8598SOL     OW27470   4.090   5.546   2.962 -0.0842  0.4432 -0.4502
 8598SOL    HW127471   4.184   5.563   2.959 -0.1215  0.4544 -1.8974
 8598SOL    HW227472   4.057   5.607   3.028  0.8653  0.6819 -0.1825
 8599SOL     OW27473   6.351   8.303   3.082 -0.3708  0.0165 -0.1289
 8599SOL    HW127474   6.352   8.213   3.113 -0.6857  0.2785  0.6570
 8599SOL    HW227475   6.343   8.296   2.986  0.0594 -0.7844 -0.1031
 8600SOL     OW27476   1.725   2.901   7.340  0.4212  0.1221 -0.2087
 8600SOL    HW127477   1.787   2.974   7.338  0.1687  0.3496  0.2588
 8600SOL    HW227478   1.646   2.937   7.380  0.6642 -0.6903  1.0221
 8601SOL     OW27479   5.498   5.748   1.210 -0.7874  0.3215 -0.4346
 8601SOL    HW127480   5.462   5.695   1.139  1.8482 -2.2763  0.0476
 8601SOL    HW227481   5.455   5.714   1.289 -0.6844  0.3528 -0.3643
 8602SOL     OW27482   8.299   1.209   3.520 -0.4050  0.2837 -0.6300
 8602SOL    HW127483   8.327   1.300   3.527 -0.2139  0.2013 -0.3041
 8602SOL    HW227484   8.379   1.160   3.504 -0.4735  0.1485 -0.5597
 8603SOL     OW27485   0.071   7.150   7.352  0.1396 -0.0931  0.2649
 8603SOL    HW127486   0.054   7.205   7.428 -0.0753  0.3798 -0.1222
 8603SOL    HW227487  -0.016   7.127   7.319  0.2314  0.0754 -0.1000
 8604SOL     OW27488   2.458   7.076   0.464  0.5410  0.6230 -0.1205
 8604SOL    HW127489   2.380   7.107   0.416  0.1022  0.1850  0.3055
 8604SOL    HW227490   2.519   7.051   0.395  0.2222  0.7552 -0.4599
 8605SOL     OW27491   3.879   3.728   6.678 -0.2390  0.1984  0.3155
 8605SOL    HW127492   3.789   3.729   6.644  0.0232 -0.0763 -0.3941
 8605SOL    HW227493   3.902   3.636   6.682 -0.2667  0.2340  1.2460
 8606SOL     OW27494   6.459   4.465   1.028  0.2002  0.4341 -0.0214
 8606SOL    HW127495   6.455   4.377   0.992 -0.1658  0.4785 -0.0969
 8606SOL    HW227496   6.533   4.506   0.983  1.4873 -0.3968  1.3012
 8607SOL     OW27497   2.573   1.500   8.083  0.1092 -0.4778  0.0801
 8607SOL    HW127498   2.589   1.521   8.175 -0.1417 -1.7481  0.4301
 8607SOL    HW227499   2.497   1.554   8.059  0.6411  0.4195  0.3964
 8608SOL     OW27500   9.206   6.022   0.209 -0.4254  0.1488  0.2190
 8608SOL    HW127501   9.205   6.105   0.256 -0.1730  1.0233 -1.2877
 8608SOL    HW227502   9.168   6.042   0.124 -1.2696 -1.5063  0.1836
 8609SOL     OW27503   4.177   1.559   8.066  0.1949 -0.2433 -0.6107
 8609SOL    HW127504   4.256   1.508   8.086  0.4404 -0.0471 -1.0749
 8609SOL    HW227505   4.176   1.627   8.133 -0.0772 -0.7930 -0.0535
 8610SOL     OW27506   8.358   1.595   2.448  0.4763 -0.1763 -0.2106
 8610SOL    HW127507   8.447   1.606   2.415  0.7858 -0.2496  0.5749
 8610SOL    HW227508   8.307   1.662   2.403  0.9125 -0.2018 -0.7412
 8611SOL     OW27509   1.023   2.394   5.232 -0.3368  0.7084  0.6261
 8611SOL    HW127510   1.042   2.324   5.295  2.1129 -0.1242 -0.9932
 8611SOL    HW227511   1.104   2.444   5.226 -1.1619  1.9443 -0.4293
 8612SOL     OW27512   4.394   8.497   5.718  0.2470 -0.1314  0.5479
 8612SOL    HW127513   4.373   8.586   5.747 -2.1832 -0.1679 -1.0110
 8612SOL    HW227514   4.360   8.491   5.629  1.2688 -2.3128  0.2599
 8613SOL     OW27515   4.090   4.713   5.189 -0.0527  0.1586  0.3505
 8613SOL    HW127516   4.121   4.802   5.172  3.2343 -0.8421  0.7456
 8613SOL    HW227517   4.093   4.670   5.103  0.3501 -0.1447  0.5148
 8614SOL     OW27518   6.042   5.671   2.654  0.3116  0.0078  0.1789
 8614SOL    HW127519   6.047   5.623   2.736 -0.7486 -0.9786 -0.3182
 8614SOL    HW227520   6.086   5.615   2.590  0.4017  0.3846 -0.0938
 8615SOL     OW27521   7.699   4.938   1.463  0.3687 -0.0807  0.0482
 8615SOL    HW127522   7.624   4.883   1.441  0.0674  0.3961 -0.1311
 8615SOL    HW227523   7.672   5.026   1.437  0.8863  0.1336  0.2361
 8616SOL     OW27524   6.348   6.369   0.654  0.1845  0.3978  0.4437
 8616SOL    HW127525   6.340   6.295   0.713 -2.6415 -0.8100 -1.3460
 8616SOL    HW227526   6.297   6.439   0.695  0.0373  0.2706  0.4758
 8617SOL     OW27527   2.041   6.592   0.250 -0.4349  0.3399  0.5670
 8617SOL    HW127528   2.118   6.648   0.246 -0.9286  1.1674  2.4474
 8617SOL    HW227529   2.021   6.573   0.158  0.5729  2.0869 -0.0283
 8618SOL     OW27530   2.547   7.720   8.256 -0.4858  0.2965  0.0676
 8618SOL    HW127531   2.620   7.778   8.280  0.3653 -0.4719 -0.5923
 8618SOL    HW227532   2.475   7.779   8.238  0.1726  1.1241  0.1008
 8619SOL     OW27533   8.922   9.234   1.647  0.3232  0.0026  0.2892
 8619SOL    HW127534   8.894   9.248   1.556  1.7523  0.8156 -0.0472
 8619SOL    HW227535   8.930   9.139   1.655  0.0355 -0.0822 -0.3892
 8620SOL     OW27536   1.264   8.080   7.207  0.0054  0.5105 -0.1187
 8620SOL    HW127537   1.209   8.068   7.285  1.2145  1.0715  0.8286
 8620SOL    HW227538   1.255   8.173   7.187 -0.1293  0.4076 -0.5252
 8621SOL     OW27539   1.805   0.288   3.065  0.3207 -0.4670 -0.0551
 8621SOL    HW127540   1.795   0.381   3.044  1.6595 -0.3376 -0.1285
 8621SOL    HW227541   1.717   0.252   3.052  0.1986  0.4151 -1.8216
 8622SOL     OW27542   2.609   5.807   1.072  0.5008  0.4069  0.9257
 8622SOL    HW127543   2.681   5.752   1.041  0.2124  0.0536  0.8738
 8622SOL    HW227544   2.643   5.896   1.066  1.0313  0.2280  1.1649
 8623SOL     OW27545   3.016   2.516   0.817  0.0123 -0.6006  0.0898
 8623SOL    HW127546   3.051   2.559   0.739 -0.1682 -0.1862  0.2361
 8623SOL    HW227547   3.064   2.434   0.823  1.8352  0.5289  1.0222
 8624SOL     OW27548   5.982   6.667   5.910  0.2794  0.0995  0.0839
 8624SOL    HW127549   5.986   6.758   5.939 -0.6262  0.6987 -1.6436
 8624SOL    HW227550   6.057   6.658   5.851 -0.0772 -0.0586 -0.3446
 8625SOL     OW27551   5.078   4.907   7.711  0.1456  1.0518 -0.0104
 8625SOL    HW127552   5.113   4.819   7.728  0.6381  1.0924 -0.7850
 8625SOL    HW227553   5.040   4.934   7.795  0.3753  0.2730  0.3517
 8626SOL     OW27554   1.315   5.990   0.774  0.1230 -0.1242  0.1470
 8626SOL    HW127555   1.324   5.973   0.868  0.6386  0.1598  0.1518
 8626SOL    HW227556   1.290   5.905   0.737 -3.2722  0.4163  0.9465
 8627SOL     OW27557   2.733   5.554   7.101  0.1986 -0.4520 -0.2319
 8627SOL    HW127558   2.713   5.628   7.157  2.3964 -0.8910  1.1669
 8627SOL    HW227559   2.653   5.540   7.050 -0.7444  1.8992  0.5628
 8628SOL     OW27560   3.707   1.157   3.939  0.2011 -1.0010  0.4543
 8628SOL    HW127561   3.727   1.081   3.993  2.0306 -0.2900  0.8115
 8628SOL    HW227562   3.793   1.191   3.913 -0.6127  0.4517 -0.3876
 8629SOL     OW27563   8.494   4.803   1.636 -0.1869 -0.1033  0.2022
 8629SOL    HW127564   8.462   4.713   1.644 -1.7377  0.3562 -0.5349
 8629SOL    HW227565   8.510   4.830   1.726  0.9414 -1.3285  0.3915
 8630SOL     OW27566   1.299   2.754   5.960 -0.2347  0.3235  0.2893
 8630SOL    HW127567   1.265   2.819   6.021 -0.2679  1.6585 -1.1284
 8630SOL    HW227568   1.373   2.798   5.918  0.9919 -1.2623  0.7265
 8631SOL     OW27569   4.273   3.487   0.170  0.0773 -0.4030  0.6790
 8631SOL    HW127570   4.181   3.467   0.184  0.0468 -0.5482  0.2980
 8631SOL    HW227571   4.286   3.471   0.076  0.2814  0.4587  0.5577
 8632SOL     OW27572   5.267   7.470   9.140  0.4697 -0.3126 -0.1693
 8632SOL    HW127573   5.352   7.488   9.182 -0.7209 -0.2151  2.2930
 8632SOL    HW227574   5.213   7.546   9.164 -1.3144 -1.9589  1.1025
 8633SOL     OW27575   8.415   7.685   5.715 -1.3628 -0.0002  0.4778
 8633SOL    HW127576   8.354   7.651   5.649 -2.0169  0.7129  0.6976
 8633SOL    HW227577   8.361   7.745   5.768 -0.2488  1.4150  0.0517
 8634SOL     OW27578   6.422   7.271   1.752  0.2570  0.6173 -0.2061
 8634SOL    HW127579   6.451   7.185   1.783 -0.5058  0.0647 -0.9752
 8634SOL    HW227580   6.391   7.316   1.830  1.5132  0.5482  0.3454
 8635SOL     OW27581   0.531   8.019   5.718  0.0869 -0.4561 -0.2141
 8635SOL    HW127582   0.560   8.109   5.707 -0.3381 -0.3127 -0.1604
 8635SOL    HW227583   0.436   8.022   5.706 -0.0860 -0.6962  1.0022
 8636SOL     OW27584   4.578   4.343   8.708 -0.2142  0.3854 -0.1873
 8636SOL    HW127585   4.486   4.330   8.686  0.3796 -1.1728 -1.8896
 8636SOL    HW227586   4.621   4.263   8.679  1.5551  0.7541  1.3621
 8637SOL     OW27587   7.909   4.814   2.360  0.4980  0.4522  0.3108
 8637SOL    HW127588   7.919   4.719   2.371 -0.6194  0.1302 -1.3501
 8637SOL    HW227589   7.816   4.830   2.378  0.9066  1.4030  1.6473
 8638SOL     OW27590   2.796   2.304   6.662  0.2712 -0.0993 -0.1333
 8638SOL    HW127591   2.741   2.250   6.719 -4.4689  1.9323 -2.5252
 8638SOL    HW227592   2.823   2.246   6.592 -1.3072 -0.4374 -0.4778
 8639SOL     OW27593   8.947   0.125   6.415 -0.0399 -0.1417 -0.4109
 8639SOL    HW127594   8.962   0.177   6.336  0.7635 -0.6922 -0.6296
 8639SOL    HW227595   8.993   0.043   6.398  1.8117  0.4834  1.4464
 8640SOL     OW27596   2.899   5.862   2.262  0.0911  0.0443  0.4833
 8640SOL    HW127597   2.921   5.848   2.354  0.3552 -0.6013  0.3293
 8640SOL    HW227598   2.983   5.873   2.218 -0.0522  0.6920  0.3735
 8641SOL     OW27599   0.841   9.040   8.492 -0.1170  0.4400  0.3276
 8641SOL    HW127600   0.782   9.044   8.567 -2.0450 -1.2388 -1.0324
 8641SOL    HW227601   0.822   9.120   8.443  1.0104  1.4475  1.5050
 8642SOL     OW27602   4.676   7.664   1.381 -0.3245  0.4554 -0.5451
 8642SOL    HW127603   4.754   7.678   1.326 -0.9408 -1.1029 -1.8493
 8642SOL    HW227604   4.617   7.612   1.327 -1.4300 -0.1509  1.1879
 8643SOL     OW27605   0.068   7.866   2.779  0.4512  0.1757 -0.1730
 8643SOL    HW127606  -0.008   7.867   2.721  0.6225 -2.5406 -0.4904
 8643SOL    HW227607   0.143   7.870   2.721  0.5868  0.1651 -0.0002
 8644SOL     OW27608   0.073   4.434   6.906  0.0986 -0.4802  0.5340
 8644SOL    HW127609  -0.013   4.394   6.896  0.0196 -0.5825  1.6028
 8644SOL    HW227610   0.112   4.429   6.818 -2.1694  2.3501 -0.7472
 8645SOL     OW27611   6.044   3.848   5.654  0.5268 -0.0053  0.1758
 8645SOL    HW127612   6.022   3.939   5.673  0.5113  0.0045  0.1120
 8645SOL    HW227613   6.044   3.843   5.558 -0.8798 -0.4095  0.1868
 8646SOL     OW27614   6.832   2.685   9.184 -0.7006 -0.3086 -0.6495
 8646SOL    HW127615   6.808   2.762   9.236  1.1302 -0.7652  0.9275
 8646SOL    HW227616   6.898   2.717   9.122 -0.4724 -0.4615 -0.4851
 8647SOL     OW27617   0.942   1.249   7.761 -0.6358 -0.4766  0.3420
 8647SOL    HW127618   0.850   1.227   7.779 -0.6352 -0.3563  0.4883
 8647SOL    HW227619   0.939   1.338   7.727 -0.4825 -0.1592  1.1671
 8648SOL     OW27620   4.993   1.922   7.842 -0.6713 -0.3107 -0.1930
 8648SOL    HW127621   4.972   1.973   7.764  1.0177 -0.9338 -1.0614
 8648SOL    HW227622   5.046   1.981   7.896  0.1549 -0.6869 -0.5923
 8649SOL     OW27623   7.584   1.216   4.455  0.1376 -0.8551 -0.2260
 8649SOL    HW127624   7.613   1.169   4.533 -1.0469 -0.2874  0.5542
 8649SOL    HW227625   7.662   1.264   4.426  0.3602 -0.4007  1.0921
 8650SOL     OW27626   5.356   2.508   0.208 -0.3160  0.3932  0.3274
 8650SOL    HW127627   5.296   2.442   0.245  1.3894 -0.6752  1.2830
 8650SOL    HW227628   5.384   2.560   0.284  1.1514 -0.1210  0.1667
 8651SOL     OW27629   7.330   5.110   5.631  0.2449 -0.2939  0.2673
 8651SOL    HW127630   7.237   5.104   5.652 -0.7532 -2.6471 -4.3285
 8651SOL    HW227631   7.364   5.021   5.644  1.0564 -0.2440 -1.3602
 8652SOL     OW27632   5.070   0.838   2.029 -0.7016 -0.5063 -0.0961
 8652SOL    HW127633   5.033   0.768   1.975  1.5295  1.1766 -4.0738
 8652SOL    HW227634   5.155   0.804   2.058 -0.6490 -0.3431 -0.0590
 8653SOL     OW27635   5.324   2.221   4.478 -0.2853 -0.4707 -0.1228
 8653SOL    HW127636   5.244   2.219   4.425 -0.8389 -2.0271  0.7499
 8653SOL    HW227637   5.372   2.297   4.445 -2.1160  0.4807 -0.6773
 8654SOL     OW27638   2.538   0.042   1.075  0.1116 -0.2807 -0.0877
 8654SOL    HW127639   2.504   0.119   1.121 -3.1754 -2.1491  0.8225
 8654SOL    HW227640   2.599   0.002   1.137  1.3988  1.2418 -0.3412
 8655SOL     OW27641   3.511   1.614   8.006 -0.2459 -0.6930  0.0835
 8655SOL    HW127642   3.585   1.672   8.026  0.0324 -1.3220  0.9102
 8655SOL    HW227643   3.434   1.665   8.031  0.0063 -0.7447  1.0021
 8656SOL     OW27644   5.585   7.551   2.745  0.0092  0.6471 -0.3627
 8656SOL    HW127645   5.580   7.493   2.821  0.5445 -0.1288 -0.9095
 8656SOL    HW227646   5.630   7.499   2.679 -3.1628  0.2017 -2.2561
 8657SOL     OW27647   8.621   3.501   1.517 -0.1916  0.1489 -0.2822
 8657SOL    HW127648   8.700   3.520   1.467  0.4420 -0.9058  0.2891
 8657SOL    HW227649   8.634   3.411   1.549 -1.9560 -0.3179 -0.8208
 8658SOL     OW27650   5.248   4.239   6.352 -0.0788  0.9889  0.1720
 8658SOL    HW127651   5.278   4.300   6.284 -1.7016  0.8492 -0.7078
 8658SOL    HW227652   5.244   4.292   6.431  0.0414  1.6294 -0.2434
 8659SOL     OW27653   2.290   5.084   0.130 -0.0570 -0.6366  0.3483
 8659SOL    HW127654   2.264   5.042   0.048  1.1182 -0.3224 -0.1872
 8659SOL    HW227655   2.357   5.026   0.166  0.4020 -0.0641  0.4144
 8660SOL     OW27656   5.635   3.629   2.728 -0.0216  0.5451 -0.5513
 8660SOL    HW127657   5.713   3.597   2.684  0.2388  3.2690 -2.1639
 8660SOL    HW227658   5.663   3.645   2.818  0.9707  0.4134 -0.8356
 8661SOL     OW27659   2.168   4.582   7.718 -0.4265  0.0629 -0.0281
 8661SOL    HW127660   2.225   4.623   7.784  0.4818 -0.5444 -0.4212
 8661SOL    HW227661   2.084   4.570   7.763  0.4340 -1.1683  1.3231
 8662SOL     OW27662   5.150   3.106   0.874 -0.2698 -0.0419  0.5219
 8662SOL    HW127663   5.107   3.187   0.845 -1.0968 -0.8048 -0.4444
 8662SOL    HW227664   5.086   3.037   0.855  0.5701 -0.9669  0.9979
 8663SOL     OW27665   4.060   7.504   9.087 -0.3033  0.3573 -0.1245
 8663SOL    HW127666   4.080   7.594   9.061 -1.5665  0.6464 -0.0906
 8663SOL    HW227667   4.013   7.512   9.170  0.1654 -0.3693  0.2151
 8664SOL     OW27668   3.168   3.141   2.849  0.3921 -0.6727  0.7441
 8664SOL    HW127669   3.189   3.077   2.918  0.0551 -1.1194  0.4384
 8664SOL    HW227670   3.252   3.163   2.810  0.7516  0.6210  2.1984
 8665SOL     OW27671   1.312   0.233   6.780  0.9457  0.8084  0.6316
 8665SOL    HW127672   1.366   0.309   6.802 -0.0471  1.3194  1.3535
 8665SOL    HW227673   1.243   0.269   6.724  0.3606  0.4764  1.1331
 8666SOL     OW27674   3.613   0.258   4.278 -0.3444  0.1966 -0.4270
 8666SOL    HW127675   3.648   0.347   4.278 -0.3218  0.1916  0.6118
 8666SOL    HW227676   3.680   0.205   4.235  2.8410 -0.5338  4.9466
 8667SOL     OW27677   2.246   1.785   3.993  0.2705 -0.3504 -0.2368
 8667SOL    HW127678   2.184   1.787   4.066 -0.2331 -0.5218 -0.6618
 8667SOL    HW227679   2.208   1.725   3.929  1.0435 -0.7268 -0.3519
 8668SOL     OW27680   7.586   4.054   1.840 -0.3224  0.1760  0.6793
 8668SOL    HW127681   7.637   3.999   1.899 -1.1984 -0.5113  0.8190
 8668SOL    HW227682   7.573   4.000   1.762  0.6340  0.9962 -0.0518
 8669SOL     OW27683   6.673   6.607   4.351  0.1695  0.0069 -0.3808
 8669SOL    HW127684   6.762   6.582   4.377  0.6593  2.2718  0.2510
 8669SOL    HW227685   6.617   6.577   4.423  0.4372 -1.1242 -0.6248
 8670SOL     OW27686   8.736   3.139   3.530  0.9852 -0.0262  0.1166
 8670SOL    HW127687   8.810   3.195   3.507  0.4768  0.1755 -1.0813
 8670SOL    HW227688   8.698   3.114   3.446 -0.0502 -0.4773  0.7063
 8671SOL     OW27689   0.834   4.544   5.123 -0.1984 -0.3278 -0.3196
 8671SOL    HW127690   0.925   4.572   5.116 -0.4861  0.4657 -0.9674
 8671SOL    HW227691   0.812   4.554   5.216  0.6287 -1.3417 -0.0069
 8672SOL     OW27692   8.218   6.980   3.309  0.6095  0.5055  0.1788
 8672SOL    HW127693   8.131   6.942   3.322  0.9450 -0.6815 -0.9355
 8672SOL    HW227694   8.202   7.074   3.306 -1.2224  0.2021 -3.7090
 8673SOL     OW27695   2.249   5.553   7.167  0.3021  0.1509  0.2857
 8673SOL    HW127696   2.295   5.469   7.174 -0.1745  0.0348  2.1271
 8673SOL    HW227697   2.163   5.537   7.206 -0.9593  0.6650 -2.1666
 8674SOL     OW27698   6.104   4.933   2.007 -0.9276 -0.4255  0.2293
 8674SOL    HW127699   6.127   4.943   2.100  1.6081 -2.9297 -0.0524
 8674SOL    HW227700   6.121   5.019   1.969  1.5954 -0.3443  1.4164
 8675SOL     OW27701   5.361   6.129   9.153  0.0502  0.3280 -0.6294
 8675SOL    HW127702   5.442   6.080   9.163 -0.2010 -0.4461 -2.2086
 8675SOL    HW227703   5.314   6.116   9.235  1.2431  0.2667  0.0448
 8676SOL     OW27704   6.816   4.018   4.425  0.4977 -0.1197  0.1888
 8676SOL    HW127705   6.868   3.990   4.349  0.1029 -0.2387 -0.0399
 8676SOL    HW227706   6.760   4.088   4.391 -1.8246 -2.1651 -0.3941
 8677SOL     OW27707   7.850   8.106   0.118 -0.2993  0.2188 -0.1854
 8677SOL    HW127708   7.786   8.045   0.154 -0.7395 -0.7874 -2.5860
 8677SOL    HW227709   7.888   8.060   0.043  2.1779  1.3668  0.2932
 8678SOL     OW27710   2.156   0.744   2.202  0.0007  0.2816  0.2277
 8678SOL    HW127711   2.247   0.771   2.214  0.3615 -0.5201 -0.6202
 8678SOL    HW227712   2.117   0.749   2.289  0.6407  1.3975  0.4509
 8679SOL     OW27713   7.911   4.796   0.402  0.4318 -0.2396 -0.0592
 8679SOL    HW127714   7.978   4.802   0.470  0.3447  1.6178 -0.1121
 8679SOL    HW227715   7.959   4.773   0.323  0.8485 -0.1131  0.1566
 8680SOL     OW27716   2.818   0.130   8.138  0.1258 -0.8658 -0.5052
 8680SOL    HW127717   2.782   0.164   8.056 -0.1397 -0.4444 -0.2194
 8680SOL    HW227718   2.813   0.205   8.198 -0.0161 -1.2763 -0.0042
 8681SOL     OW27719   2.438   1.853   1.963  0.0403 -0.6272  0.0730
 8681SOL    HW127720   2.411   1.901   2.042  1.1965  2.8649 -1.5578
 8681SOL    HW227721   2.530   1.833   1.978  0.2862  0.1248 -0.4075
 8682SOL     OW27722   6.088   6.969   4.244 -0.0302 -0.1539  0.5638
 8682SOL    HW127723   6.096   6.939   4.154 -0.8659  1.3419 -0.0143
 8682SOL    HW227724   5.994   6.966   4.262  0.1809 -1.1144  1.6347
 8683SOL     OW27725   2.611   6.708   7.324  0.0274  0.3899  0.7976
 8683SOL    HW127726   2.563   6.785   7.354 -0.5089  0.6447 -0.6744
 8683SOL    HW227727   2.648   6.670   7.404 -0.0606  1.9268  1.5799
 8684SOL     OW27728   0.976   7.012   0.722 -0.0563  0.4623 -0.0661
 8684SOL    HW127729   0.925   6.943   0.766  0.6913 -0.8075 -1.1538
 8684SOL    HW227730   1.049   7.029   0.781  0.0369 -0.0485 -0.0326
 8685SOL     OW27731   0.615   4.705   7.183 -0.2769 -0.5511  0.2488
 8685SOL    HW127732   0.574   4.680   7.266 -1.5110 -1.1120 -0.5197
 8685SOL    HW227733   0.573   4.649   7.118  0.1713  0.3870 -0.8576
 8686SOL     OW27734   0.830   6.392   1.955  0.2099 -0.0108 -0.3351
 8686SOL    HW127735   0.792   6.366   1.871  0.1652  1.3710 -0.7554
 8686SOL    HW227736   0.868   6.311   1.990  1.8476 -0.2581 -2.5356
 8687SOL     OW27737   7.748   4.323   5.239  0.0635  0.4447 -0.1829
 8687SOL    HW127738   7.834   4.335   5.199 -0.9200 -0.1144 -2.5712
 8687SOL    HW227739   7.739   4.228   5.248 -0.3496  0.4970 -0.0431
 8688SOL     OW27740   8.356   3.171   1.596 -0.9033 -0.4925 -0.0980
 8688SOL    HW127741   8.400   3.093   1.562 -0.8839 -0.3305 -0.4433
 8688SOL    HW227742   8.264   3.159   1.571 -0.9101 -0.4273 -0.1023
 8689SOL     OW27743   4.090   8.956   9.010  0.3064  0.1831 -0.2284
 8689SOL    HW127744   4.124   8.866   9.012 -4.9040 -1.9462 -1.1961
 8689SOL    HW227745   4.109   8.986   8.921  1.2988 -0.2298 -0.1712
 8690SOL     OW27746   3.822   2.909   9.114  0.0550 -0.2652 -0.4563
 8690SOL    HW127747   3.742   2.875   9.075  0.1365 -0.2538 -0.6341
 8690SOL    HW227748   3.886   2.906   9.044  0.2162 -0.2953 -0.3071
 8691SOL     OW27749   8.520   3.188   6.036 -0.0532 -0.5359  0.2316
 8691SOL    HW127750   8.592   3.249   6.022 -0.6490  0.5778  1.8712
 8691SOL    HW227751   8.486   3.170   5.949  0.4741  1.0716 -0.3191
 8692SOL     OW27752   2.095   3.871   8.244 -0.5547 -0.6405  0.8036
 8692SOL    HW127753   2.033   3.850   8.174 -0.6574 -2.3488  1.3976
 8692SOL    HW227754   2.045   3.859   8.324  0.0114 -0.1521  1.2358
 8693SOL     OW27755   6.316   5.897   7.969 -0.4841 -0.2404 -0.3981
 8693SOL    HW127756   6.399   5.869   8.005  0.8062  1.0121 -2.3104
 8693SOL    HW227757   6.295   5.833   7.901 -0.4278  0.1474 -0.7882
 8694SOL     OW27758   1.627   7.340   8.673 -0.3404  0.8223  0.3422
 8694SOL    HW127759   1.641   7.434   8.691 -0.0809  1.0609 -1.0833
 8694SOL    HW227760   1.707   7.313   8.628  0.1887 -0.4326  1.9895
 8695SOL     OW27761   3.870   2.345   4.059 -0.4652 -0.3751  0.2004
 8695SOL    HW127762   3.826   2.322   4.140 -1.0450 -0.8219 -0.2356
 8695SOL    HW227763   3.920   2.268   4.035  0.9860  0.3124  0.9660
 8696SOL     OW27764   2.257   2.624   5.670  0.3671 -0.3264 -0.1819
 8696SOL    HW127765   2.230   2.576   5.591  0.1694 -1.1213  0.3653
 8696SOL    HW227766   2.235   2.565   5.742  0.9813  0.2063  0.4406
 8697SOL     OW27767   4.040   7.112   0.813  0.5618 -0.5781 -0.2514
 8697SOL    HW127768   4.116   7.091   0.758  1.8875 -0.0921  1.3458
 8697SOL    HW227769   3.987   7.171   0.759  1.7500 -0.2289 -1.0716
 8698SOL     OW27770   3.873   1.330   5.820 -0.7966  0.1638  0.8434
 8698SOL    HW127771   3.932   1.311   5.747 -2.4555 -0.7528 -0.3090
 8698SOL    HW227772   3.831   1.413   5.796 -1.3838 -0.1675  0.6955
 8699SOL     OW27773   0.681   5.096   4.375 -0.1796 -0.7129  0.1881
 8699SOL    HW127774   0.717   5.184   4.384  0.0750 -0.8636  0.7356
 8699SOL    HW227775   0.591   5.102   4.406 -0.3802 -0.4964 -0.4418
 8700SOL     OW27776   6.928   3.181   6.407 -0.1082  0.1742 -0.0043
 8700SOL    HW127777   6.987   3.170   6.482 -1.6560 -0.3518  1.1807
 8700SOL    HW227778   6.884   3.264   6.423  0.9868  1.0304 -1.3775
 8701SOL     OW27779   4.452   4.480   7.100 -0.0865  0.3879 -0.1515
 8701SOL    HW127780   4.385   4.472   7.033  0.0240 -0.1364 -0.1953
 8701SOL    HW227781   4.535   4.469   7.054 -0.0460 -0.8534  0.2171
 8702SOL     OW27782   1.526   1.150   3.721 -0.2556  0.1236  0.2731
 8702SOL    HW127783   1.459   1.100   3.768  0.1998  0.0281  0.8177
 8702SOL    HW227784   1.606   1.099   3.733  0.5018  1.6771  1.9651
 8703SOL     OW27785   8.183   0.403   4.015  0.4926  0.3320  0.2873
 8703SOL    HW127786   8.250   0.434   3.953  1.0494  0.0785  0.7566
 8703SOL    HW227787   8.108   0.460   3.999  1.9796  2.9416  2.1158
 8704SOL     OW27788   5.684   7.755   1.307 -0.2998 -0.0846 -0.1107
 8704SOL    HW127789   5.697   7.753   1.212  0.1061  1.0052 -0.0842
 8704SOL    HW227790   5.736   7.830   1.337 -0.6377 -0.2589  0.9389
 8705SOL     OW27791   5.924   5.516   3.193  0.6789  0.1954  0.4724
 8705SOL    HW127792   5.847   5.557   3.232  1.1939  0.1132  1.6084
 8705SOL    HW227793   5.906   5.423   3.194  0.9146  0.1525  1.0265
 8706SOL     OW27794   3.117   7.008   3.392  0.0427 -0.2458  0.2349
 8706SOL    HW127795   3.138   6.996   3.299  1.6275 -0.5350  0.6090
 8706SOL    HW227796   3.095   6.920   3.423  2.0862 -0.6037  0.7245
 8707SOL     OW27797   1.298   1.277   7.037 -0.0569 -0.3162 -1.0389
 8707SOL    HW127798   1.281   1.346   7.101  1.7591 -1.1459  0.3885
 8707SOL    HW227799   1.293   1.196   7.087  0.9135 -1.0179 -2.0377
 8708SOL     OW27800   5.025   6.505   8.411 -0.8203  0.0082  0.8028
 8708SOL    HW127801   5.103   6.538   8.366 -2.3104  0.2454 -1.7381
 8708SOL    HW227802   5.040   6.411   8.421 -0.9859 -0.2864 -1.4364
 8709SOL     OW27803   4.491   7.724   7.400  0.5654 -0.4444 -0.3333
 8709SOL    HW127804   4.534   7.801   7.438 -2.5754  1.5168 -0.5105
 8709SOL    HW227805   4.507   7.732   7.306 -1.2937  1.1225 -0.5707
 8710SOL     OW27806   0.637   2.794   6.305  0.0128  0.2642 -0.6382
 8710SOL    HW127807   0.688   2.869   6.275  0.3766 -0.0500 -0.8225
 8710SOL    HW227808   0.624   2.741   6.226 -0.7967  0.4573 -0.6346
 8711SOL     OW27809   7.081   9.000   8.024  0.3678 -0.3320 -0.3134
 8711SOL    HW127810   7.012   9.065   8.016  0.7797 -0.2089 -3.2438
 8711SOL    HW227811   7.157   9.049   8.055 -0.2732 -0.1103  0.9587
 8712SOL     OW27812   6.130   4.945   7.707 -0.2051 -0.0934  0.0206
 8712SOL    HW127813   6.213   4.915   7.743 -0.0567  1.1957  0.7891
 8712SOL    HW227814   6.108   5.022   7.759 -0.5256  1.1766 -1.9227
 8713SOL     OW27815   7.814   7.631   0.029 -0.3430  0.2105  0.4437
 8713SOL    HW127816   7.734   7.615   0.079 -1.5401 -1.0301 -1.8070
 8713SOL    HW227817   7.788   7.694  -0.038  0.0713 -1.5541 -1.4196
 8714SOL     OW27818   1.843   2.721   8.887  0.0626  0.4722  0.4437
 8714SOL    HW127819   1.780   2.741   8.956 -1.5968 -0.5492 -0.7569
 8714SOL    HW227820   1.884   2.639   8.914 -0.4505  0.1735  0.3231
 8715SOL     OW27821   3.737   7.224   4.892  0.3215  0.5738  0.5315
 8715SOL    HW127822   3.717   7.218   4.985  1.6385 -0.2000  0.7695
 8715SOL    HW227823   3.695   7.147   4.854 -2.5173  2.2779  0.0369
 8716SOL     OW27824   2.272   8.603   5.197  0.0606 -0.4906  0.2008
 8716SOL    HW127825   2.223   8.662   5.255  0.6817  1.1654 -0.9023
 8716SOL    HW227826   2.230   8.614   5.111  0.5054 -1.2742 -0.1209
 8717SOL     OW27827   2.570   6.461   0.716 -0.6291  0.1630  0.0619
 8717SOL    HW127828   2.514   6.514   0.659  1.3822 -0.4191 -2.5571
 8717SOL    HW227829   2.594   6.520   0.787 -3.4357  0.8231  0.5522
 8718SOL     OW27830   7.749   2.353   4.416 -0.3991 -0.6341 -0.8576
 8718SOL    HW127831   7.715   2.391   4.335 -3.4024 -0.5928  0.3716
 8718SOL    HW227832   7.683   2.290   4.444  1.7934 -2.5419  0.2306
 8719SOL     OW27833   3.862   8.888   0.284 -0.2177  0.4728  1.0503
 8719SOL    HW127834   3.911   8.967   0.262  0.1862  0.5412  2.2002
 8719SOL    HW227835   3.845   8.895   0.378  0.6673 -1.2773  1.3600
 8720SOL     OW27836   1.160   7.196   0.105  0.4210  0.0933  0.2650
 8720SOL    HW127837   1.112   7.173   0.026  0.7367  1.2979 -0.2857
 8720SOL    HW227838   1.218   7.267   0.078 -0.9945  1.9874  2.0608
 8721SOL     OW27839   4.071   3.474   1.249 -0.2071  0.7112 -1.2707
 8721SOL    HW127840   3.992   3.430   1.218 -0.2442  0.5133 -0.9035
 8721SOL    HW227841   4.077   3.449   1.341  1.2030 -0.6250 -1.7126
 8722SOL     OW27842   6.126   7.293   0.010  0.2484 -0.1760  0.3173
 8722SOL    HW127843   6.131   7.388   0.014 -0.4076 -0.1203 -0.1445
 8722SOL    HW227844   6.196   7.268  -0.051  0.1300  0.0408  0.0902
 8723SOL     OW27845   6.613   5.872   0.164 -0.0274  0.0532  0.1408
 8723SOL    HW127846   6.616   5.909   0.076 -0.6623 -2.7877 -1.1224
 8723SOL    HW227847   6.609   5.948   0.222  3.4745  2.1014 -2.0942
 8724SOL     OW27848   6.063   1.781   4.631 -0.4371  0.5320 -0.0241
 8724SOL    HW127849   6.039   1.827   4.711  2.9184 -1.0767  2.0204
 8724SOL    HW227850   6.008   1.703   4.630 -0.5132  0.5735  0.7035
 8725SOL     OW27851   4.299   5.502   5.973 -0.1936 -0.1089  0.3535
 8725SOL    HW127852   4.326   5.540   6.057  0.1237  1.2460 -0.3613
 8725SOL    HW227853   4.203   5.507   5.975 -0.1274  1.7764 -0.2058
 8726SOL     OW27854   1.003   4.735   2.083 -0.4007  0.5508  0.2051
 8726SOL    HW127855   0.973   4.645   2.074 -1.4371  0.4488  3.7541
 8726SOL    HW227856   1.090   4.727   2.122 -1.2540  1.0499  2.3080
 8727SOL     OW27857   1.307   6.718   8.922 -0.0700 -0.3403 -0.0998
 8727SOL    HW127858   1.383   6.777   8.923 -0.5590  0.3983 -2.4312
 8727SOL    HW227859   1.311   6.676   8.836 -1.9409 -0.7580  0.0007
 8728SOL     OW27860   6.724   1.852   6.146  0.4008 -0.1966  0.3934
 8728SOL    HW127861   6.655   1.914   6.168  1.4947  1.2361 -0.2015
 8728SOL    HW227862   6.742   1.868   6.053  1.1314 -0.9824  0.3921
 8729SOL     OW27863   7.666   5.883   5.956  0.4398  0.3522 -0.3609
 8729SOL    HW127864   7.668   5.789   5.976 -0.7988  0.1338 -1.1975
 8729SOL    HW227865   7.641   5.887   5.863  3.1627  1.4323 -1.0874
 8730SOL     OW27866   2.425   5.516   1.228  0.1146 -0.3684  0.0558
 8730SOL    HW127867   2.492   5.492   1.163 -0.4031 -0.6061 -0.3962
 8730SOL    HW227868   2.457   5.479   1.310  0.0452 -1.3329 -0.3530
 8731SOL     OW27869   6.890   4.295   0.653  0.2168  0.3884 -0.1415
 8731SOL    HW127870   6.854   4.341   0.577 -2.4765 -1.5641 -0.0916
 8731SOL    HW227871   6.838   4.327   0.726 -0.4731 -1.3731  0.1518
 8732SOL     OW27872   5.411   9.230   8.335  0.0449  0.0067 -0.3851
 8732SOL    HW127873   5.357   9.307   8.354  0.6055 -0.1692  2.2242
 8732SOL    HW227874   5.419   9.185   8.420  0.7261 -2.2853 -1.6038
 8733SOL     OW27875   8.307   3.764   7.631  0.2124  0.3589  0.6497
 8733SOL    HW127876   8.212   3.767   7.624  0.2217  0.9237  0.7932
 8733SOL    HW227877   8.337   3.743   7.543 -0.1597 -2.3197  1.1149
 8734SOL     OW27878   5.280   3.497   3.561  0.4124 -0.0647  0.2640
 8734SOL    HW127879   5.225   3.427   3.526  0.0716 -0.4674  1.5926
 8734SOL    HW227880   5.229   3.534   3.632  1.2309  0.5534  0.5287
 8735SOL     OW27881   1.274   2.418   2.079  0.2970  0.0967 -0.5424
 8735SOL    HW127882   1.310   2.499   2.116  1.6905 -1.3468  1.3720
 8735SOL    HW227883   1.180   2.434   2.071  0.4612  1.6521  0.5060
 8736SOL     OW27884   2.696   6.972   8.770 -0.1650  0.7503  0.0507
 8736SOL    HW127885   2.696   6.883   8.736  0.3012  0.9727 -0.5363
 8736SOL    HW227886   2.610   7.007   8.747 -0.6164  0.2223  0.9060
 8737SOL     OW27887   0.798   4.310   7.092  0.0508 -0.0823  0.7225
 8737SOL    HW127888   0.717   4.283   7.049  0.0422  0.5705  0.3248
 8737SOL    HW227889   0.772   4.332   7.181 -0.6677  2.4935 -0.0710
 8738SOL     OW27890   4.292   1.793   5.714 -0.1933  0.1953  0.1885
 8738SOL    HW127891   4.320   1.880   5.742 -0.7322  0.5853 -0.4668
 8738SOL    HW227892   4.293   1.797   5.618  3.0189 -1.5695  0.0999
 8739SOL     OW27893   0.280   8.625   3.762 -0.3320  0.0813  0.3778
 8739SOL    HW127894   0.253   8.716   3.773  2.3077  0.8290  1.0757
 8739SOL    HW227895   0.318   8.621   3.674  0.1083 -0.2079  0.5779
 8740SOL     OW27896   7.548   1.764   0.432  0.2053  0.8737  0.0661
 8740SOL    HW127897   7.571   1.672   0.419  0.4241  0.6807  1.7133
 8740SOL    HW227898   7.625   1.813   0.405  0.4099  0.5219  0.0261
 8741SOL     OW27899   7.490   7.109   5.392 -0.0058  0.5054 -0.7623
 8741SOL    HW127900   7.475   7.025   5.349 -1.5288  0.7060 -0.6561
 8741SOL    HW227901   7.585   7.120   5.390  0.3015 -1.6122 -0.0261
 8742SOL     OW27902   6.897   5.129   7.609  0.2296 -0.1816  0.4749
 8742SOL    HW127903   6.872   5.101   7.697 -0.9626  0.0545  0.2243
 8742SOL    HW227904   6.814   5.150   7.567  0.5662 -2.7802 -1.5765
 8743SOL     OW27905   6.764   2.845   0.281 -0.3207 -0.4213 -0.0689
 8743SOL    HW127906   6.827   2.906   0.320 -0.7985 -0.3240  0.5662
 8743SOL    HW227907   6.714   2.812   0.356 -1.5247  0.0883 -0.6459
 8744SOL     OW27908   6.350   0.368   1.698  0.4184 -0.2711  0.0905
 8744SOL    HW127909   6.287   0.359   1.627  1.1808 -0.4609 -0.5785
 8744SOL    HW227910   6.319   0.442   1.749  0.4564  0.5596 -1.0701
 8745SOL     OW27911   4.795   8.991   2.113  0.2272  0.4174  0.1093
 8745SOL    HW127912   4.758   9.004   2.026  1.4680 -1.4207 -0.7222
 8745SOL    HW227913   4.725   8.947   2.162  0.4994 -0.9994 -0.7716
 8746SOL     OW27914   3.119   5.247   7.528  0.1910 -0.2441 -0.3867
 8746SOL    HW127915   3.150   5.162   7.560  1.2477 -0.8063 -2.8111
 8746SOL    HW227916   3.034   5.228   7.489 -1.1508  0.4628  2.0730
 8747SOL     OW27917   1.830   2.499   5.395 -0.0934 -0.7841  0.0679
 8747SOL    HW127918   1.769   2.490   5.468  0.9905  0.1307  1.1002
 8747SOL    HW227919   1.779   2.472   5.318 -2.1114  0.8976  0.7599
 8748SOL     OW27920   3.942   0.177   5.756 -0.0843 -0.1322 -0.3079
 8748SOL    HW127921   4.007   0.116   5.791 -0.4230 -0.1223  0.3492
 8748SOL    HW227922   3.877   0.121   5.713 -0.0396 -0.1877 -0.3032
 8749SOL     OW27923   5.019   7.286   0.651 -0.3292  0.7808  0.2986
 8749SOL    HW127924   4.958   7.221   0.617  0.0743 -0.2461  1.5097
 8749SOL    HW227925   4.967   7.366   0.658 -1.0764  0.3556 -0.3056
 8750SOL     OW27926   6.720   3.361   5.108 -0.2989 -0.1184 -0.4495
 8750SOL    HW127927   6.639   3.400   5.077  0.5180  0.7751 -1.4717
 8750SOL    HW227928   6.743   3.297   5.041  1.0008  1.1909 -1.2801
 8751SOL     OW27929   5.020   3.816   6.314 -0.1194  0.0736 -0.5694
 8751SOL    HW127930   4.927   3.795   6.305 -0.0931  0.0758 -0.8617
 8751SOL    HW227931   5.024   3.911   6.302 -0.2118  0.2175  0.5501
 8752SOL     OW27932   7.235   0.944   1.970 -0.2794  0.0029 -0.0556
 8752SOL    HW127933   7.185   1.015   2.008 -1.2977 -0.1197 -1.1426
 8752SOL    HW227934   7.176   0.905   1.905  0.7616 -0.9478 -0.4458
 8753SOL     OW27935   0.069   3.064   1.533  0.2466 -0.1393 -0.0569
 8753SOL    HW127936   0.009   3.126   1.574 -0.1107 -0.3013 -0.3330
 8753SOL    HW227937   0.062   2.984   1.586  1.8692  0.5522  1.2339
 8754SOL     OW27938   6.722   7.640   4.527 -0.2346  0.7316 -0.2896
 8754SOL    HW127939   6.692   7.718   4.573 -0.6266 -0.1946  1.0716
 8754SOL    HW227940   6.705   7.568   4.588  2.3707 -0.1506 -0.5090
 8755SOL     OW27941   5.954   1.362   4.961 -0.2353 -0.1807 -0.0079
 8755SOL    HW127942   6.013   1.421   5.008  0.0187 -0.4820  0.0504
 8755SOL    HW227943   5.885   1.342   5.024  0.2861 -0.8594  0.3591
 8756SOL     OW27944   8.324   1.836   7.081  0.0541 -0.6456  0.4082
 8756SOL    HW127945   8.283   1.807   7.162 -2.2379 -0.6081 -0.6811
 8756SOL    HW227946   8.387   1.768   7.060 -0.0678 -1.1625  1.6859
 8757SOL     OW27947   7.555   1.189   0.740  0.1658  0.0381  0.2916
 8757SOL    HW127948   7.506   1.223   0.665  0.9769 -0.8438 -0.6523
 8757SOL    HW227949   7.601   1.266   0.774  0.6441  0.2496 -0.7859
 8758SOL     OW27950   3.173   4.116   4.316  0.5815 -0.5083 -0.1819
 8758SOL    HW127951   3.215   4.145   4.235  0.8813 -1.0047 -0.2054
 8758SOL    HW227952   3.167   4.020   4.307 -0.3244 -0.4694 -0.0723
 8759SOL     OW27953   8.907   0.814   6.435 -0.2295 -0.1798 -0.0760
 8759SOL    HW127954   8.891   0.720   6.433  0.4508 -0.3075  0.4924
 8759SOL    HW227955   8.853   0.849   6.364  0.6921 -1.1618 -1.2659
 8760SOL     OW27956   2.650   4.641   3.646 -0.3606  0.2293  0.4383
 8760SOL    HW127957   2.691   4.597   3.721  1.8266 -1.6072 -1.7601
 8760SOL    HW227958   2.556   4.633   3.663  0.0704  1.2601  3.7407
 8761SOL     OW27959   5.946   4.285   7.804  0.2746  0.1582 -0.1191
 8761SOL    HW127960   5.870   4.295   7.745 -0.1303 -0.2163  0.3351
 8761SOL    HW227961   5.948   4.192   7.824  0.8004  0.1857 -0.0423
 8762SOL     OW27962   0.992   2.411   8.188 -0.8982  0.6974  0.0487
 8762SOL    HW127963   1.006   2.493   8.139  1.4657  1.3745  1.7620
 8762SOL    HW227964   0.960   2.440   8.274  1.3129 -0.0502  1.1656
 8763SOL     OW27965   0.554   4.313   5.553 -0.0948 -0.0090  0.2010
 8763SOL    HW127966   0.530   4.400   5.521  0.1381 -0.1515 -0.3767
 8763SOL    HW227967   0.539   4.255   5.477  1.0763 -0.2591  0.1520
 8764SOL     OW27968   2.309   0.234   9.289 -0.1470  0.1913  0.0725
 8764SOL    HW127969   2.317   0.293   9.364 -2.4471 -3.7388  3.6169
 8764SOL    HW227970   2.386   0.178   9.295 -0.2574 -0.0277 -0.5867
 8765SOL     OW27971   9.026   5.899   2.053  0.1805  0.0901  0.1767
 8765SOL    HW127972   9.111   5.856   2.049  0.1443  0.1689 -2.5431
 8765SOL    HW227973   9.038   5.971   2.114  1.7345 -0.5848  0.6989
 8766SOL     OW27974   1.474   6.150   5.546 -0.8023 -0.2565  0.1830
 8766SOL    HW127975   1.512   6.181   5.628 -2.8849  1.1373  0.6674
 8766SOL    HW227976   1.437   6.064   5.568  1.2409 -1.2315 -0.0802
 8767SOL     OW27977   0.814   2.655   3.206 -0.2996 -0.5223  0.1792
 8767SOL    HW127978   0.896   2.661   3.255 -0.5734 -0.2241  0.6079
 8767SOL    HW227979   0.831   2.591   3.137  0.6089  0.3015 -0.3631
 8768SOL     OW27980   5.303   7.146   8.754  1.0991  0.0806  0.3907
 8768SOL    HW127981   5.282   7.231   8.793 -1.5212 -1.3432  2.2388
 8768SOL    HW227982   5.273   7.154   8.663  0.1457  0.8956  0.7612
 8769SOL     OW27983   2.223   3.316   9.071  0.5115  0.0078 -0.1486
 8769SOL    HW127984   2.266   3.377   9.131  0.6077 -0.0756 -0.1314
 8769SOL    HW227985   2.270   3.233   9.084  0.3572 -0.0796 -0.1425
 8770SOL     OW27986   9.162   8.142   2.242  0.5483  0.2124  0.1922
 8770SOL    HW127987   9.176   8.190   2.160  0.3504 -0.1521 -0.0560
 8770SOL    HW227988   9.090   8.188   2.285 -0.6862 -0.8167 -0.7824
 8771SOL     OW27989   9.273   0.629   2.316 -0.4878 -0.1347 -0.0813
 8771SOL    HW127990   9.221   0.619   2.237  0.2068 -2.7427 -0.2531
 8771SOL    HW227991   9.224   0.582   2.383  0.8778 -1.3481  0.0944
 8772SOL     OW27992   8.484   3.621   8.300 -0.2726 -0.1308 -0.4866
 8772SOL    HW127993   8.390   3.632   8.310 -0.3616 -1.9326  0.9023
 8772SOL    HW227994   8.519   3.635   8.388  0.6455 -0.5030 -0.7908
 8773SOL     OW27995   4.033   7.614   2.736  0.2863  0.1530 -0.1658
 8773SOL    HW127996   3.938   7.608   2.728  0.2690 -0.0995  0.2143
 8773SOL    HW227997   4.047   7.679   2.805  0.3623 -0.7763  0.7147
 8774SOL     OW27998   0.341   2.017   0.682  0.7567  0.7693  0.4767
 8774SOL    HW127999   0.319   1.965   0.605  1.8966  0.2656  0.4908
 8774SOL    HW228000   0.296   1.973   0.754 -1.9485  2.3574 -0.1542
 8775SOL     OW28001   2.453   0.496   8.908  0.2316 -0.2491  0.4230
 8775SOL    HW128002   2.494   0.411   8.925  1.2099  0.2330  0.5442
 8775SOL    HW228003   2.421   0.490   8.818  2.5333  0.1007 -0.4619
 8776SOL     OW28004   7.668   4.674   8.206  0.6264 -0.0503 -0.5167
 8776SOL    HW128005   7.647   4.650   8.115  1.1761  2.6511 -1.4119
 8776SOL    HW228006   7.764   4.671   8.209  0.6919  1.5319 -0.5514
 8777SOL     OW28007   5.924   5.902   5.390 -0.1897  0.3273 -0.0543
 8777SOL    HW128008   5.931   5.809   5.409  2.3338  0.7662  1.3005
 8777SOL    HW228009   5.843   5.929   5.434 -0.8233 -1.1532 -0.2776
 8778SOL     OW28010   2.746   4.498   5.691 -0.5637 -0.1851  0.5071
 8778SOL    HW128011   2.679   4.490   5.623 -0.3342  0.6141  0.1801
 8778SOL    HW228012   2.760   4.593   5.700  0.8592 -0.3497  0.2259
 8779SOL     OW28013   6.002   4.224   4.145 -0.6506  0.1077  0.3972
 8779SOL    HW128014   5.929   4.266   4.099 -1.4733  0.4994  2.0193
 8779SOL    HW228015   6.063   4.296   4.161 -1.3421  0.3946  1.7887
 8780SOL     OW28016   5.339   1.809   1.100 -0.4154 -0.0080  0.1877
 8780SOL    HW128017   5.424   1.766   1.097  0.6490  2.0686 -0.1382
 8780SOL    HW228018   5.326   1.844   1.011 -1.5897 -0.2526  0.2474
 8781SOL     OW28019   1.253   2.676   4.869  0.5161  0.2554  0.2154
 8781SOL    HW128020   1.170   2.716   4.895  0.3001 -0.1616  0.1838
 8781SOL    HW228021   1.280   2.724   4.791  0.1979  0.2580  0.1078
 8782SOL     OW28022   7.817   4.132   4.518  0.5440 -0.1942 -0.3765
 8782SOL    HW128023   7.761   4.072   4.468  1.0038 -0.4702 -0.5731
 8782SOL    HW228024   7.872   4.174   4.452 -0.3076  1.0299 -0.3177
 8783SOL     OW28025   1.194   3.242   6.159 -0.0133  0.1927  0.0567
 8783SOL    HW128026   1.159   3.324   6.194  0.6401  0.0041  1.1661
 8783SOL    HW228027   1.280   3.267   6.123 -0.5814  0.3407 -1.2402
 8784SOL     OW28028   7.959   2.061   4.612  0.0585 -0.4856 -0.4011
 8784SOL    HW128029   7.979   2.153   4.628 -0.8460  0.0274 -2.0898
 8784SOL    HW228030   8.014   2.013   4.674  3.9331  0.9828 -2.5634
 8785SOL     OW28031   3.019   5.862   6.313 -0.4239 -0.3214 -0.1219
 8785SOL    HW128032   3.087   5.820   6.366  1.0724  1.8811 -0.2346
 8785SOL    HW228033   2.958   5.900   6.376  1.7801  2.9920  0.1591
 8786SOL     OW28034   2.893   0.271   7.482 -0.2586  0.1709  0.1528
 8786SOL    HW128035   2.882   0.176   7.473  0.1960  0.0182  1.1260
 8786SOL    HW228036   2.836   0.309   7.415  0.1652 -0.8135 -0.7737
 8787SOL     OW28037   8.134   6.407   9.035  0.0415  0.2558 -0.1212
 8787SOL    HW128038   8.101   6.441   9.118  0.9586  0.2752  0.2453
 8787SOL    HW228039   8.069   6.343   9.007 -0.0267 -0.1082  0.8659
 8788SOL     OW28040   4.974   3.942   4.000 -0.3672 -0.2287  0.0485
 8788SOL    HW128041   5.034   4.016   4.003 -2.2150  1.2984 -0.2112
 8788SOL    HW228042   4.965   3.922   3.907  1.3032 -1.8075  0.1766
 8789SOL     OW28043   3.733   1.554   4.154 -0.3362 -0.0281 -0.1952
 8789SOL    HW128044   3.819   1.569   4.115  0.1471 -0.2066  0.7923
 8789SOL    HW228045   3.684   1.635   4.135  0.5141  0.6459  0.4809
 8790SOL     OW28046   5.948   5.302   7.640  0.0403  0.7798  0.0257
 8790SOL    HW128047   6.020   5.355   7.674  0.3257  1.9428 -2.2529
 8790SOL    HW228048   5.906   5.359   7.575 -0.6612 -1.2151 -1.2992
 8791SOL     OW28049   8.169   2.119   0.277 -0.2792  0.3255  0.1569
 8791SOL    HW128050   8.128   2.165   0.350  0.6553  1.0756  0.2190
 8791SOL    HW228051   8.179   2.185   0.209  2.6302  0.6980  0.8568
 8792SOL     OW28052   4.538   7.377   8.528 -0.3135  0.0940 -0.0005
 8792SOL    HW128053   4.499   7.456   8.490 -2.0472 -0.9140 -0.3147
 8792SOL    HW228054   4.488   7.361   8.608  1.9216  0.9595  1.6302
 8793SOL     OW28055   5.831   0.667   2.884 -0.4362  0.2631  0.1246
 8793SOL    HW128056   5.870   0.648   2.799 -1.5587  2.3102 -0.8905
 8793SOL    HW228057   5.889   0.625   2.947 -0.3588 -2.5271 -1.7058
 8794SOL     OW28058   3.138   2.842   4.848 -0.7290 -0.6861  0.4661
 8794SOL    HW128059   3.210   2.820   4.789 -2.1490 -1.0337 -1.1779
 8794SOL    HW228060   3.156   2.792   4.927  2.2153  1.2297  1.0925
 8795SOL     OW28061   9.208   1.856   5.832  0.3638 -0.1179  0.1690
 8795SOL    HW128062   9.187   1.764   5.852  0.7770 -0.4257 -0.8310
 8795SOL    HW228063   9.153   1.906   5.893 -0.1760 -1.0157  0.4288
 8796SOL     OW28064   8.019   6.059   3.325  0.0033 -0.6251 -0.3939
 8796SOL    HW128065   8.060   6.029   3.244  1.9717 -0.1403  0.3827
 8796SOL    HW228066   7.984   6.145   3.304  1.0232 -0.2495 -0.5973
 8797SOL     OW28067   6.509   0.983   6.732  0.1172  0.0625 -0.3959
 8797SOL    HW128068   6.427   0.944   6.764 -0.2540  0.7984 -0.4179
 8797SOL    HW228069   6.512   0.961   6.639 -1.6750  2.6947 -1.1376
 8798SOL     OW28070   5.849   1.585   7.475  0.3264 -0.1598 -0.2061
 8798SOL    HW128071   5.779   1.611   7.416 -1.0080 -1.0900  0.9447
 8798SOL    HW228072   5.866   1.663   7.528 -1.1953 -0.5048  0.8194
 8799SOL     OW28073   0.444   7.355   6.560 -0.8255 -0.3804 -0.4914
 8799SOL    HW128074   0.470   7.385   6.646  0.3026 -1.0607 -0.5884
 8799SOL    HW228075   0.496   7.407   6.499 -0.3447 -1.1014 -0.7082
 8800SOL     OW28076   7.768   4.005   0.246 -0.2511 -0.0923 -0.4600
 8800SOL    HW128077   7.805   4.093   0.251  2.0320 -0.9894 -0.9330
 8800SOL    HW228078   7.791   3.964   0.329 -0.0240 -0.7053 -0.8161
 8801SOL     OW28079   8.213   6.023   1.533 -0.3036  0.4890 -0.2347
 8801SOL    HW128080   8.125   6.062   1.533 -0.1808  0.7811  1.2796
 8801SOL    HW228081   8.272   6.098   1.531 -0.0713  0.2974 -0.7508
 8802SOL     OW28082   2.495   6.581   1.272 -0.4882 -0.2282 -0.4090
 8802SOL    HW128083   2.423   6.643   1.262 -0.2662  0.1294  0.1625
 8802SOL    HW228084   2.573   6.636   1.278 -0.2490 -0.5804 -0.2750
 8803SOL     OW28085   3.779   5.791   7.833  0.2612 -0.1054  0.2014
 8803SOL    HW128086   3.813   5.702   7.837  2.0873  0.5692  0.4398
 8803SOL    HW228087   3.714   5.789   7.763  0.4416 -1.5656  0.0589
 8804SOL     OW28088   2.630   2.403   7.559  0.1736 -0.8490  0.1866
 8804SOL    HW128089   2.575   2.328   7.581 -0.4549 -0.0472  1.3994
 8804SOL    HW228090   2.573   2.479   7.574  1.4248 -0.0415  0.8606
 8805SOL     OW28091   1.942   9.033   4.768  0.1588  1.1758  0.1233
 8805SOL    HW128092   1.906   9.089   4.699  1.5133  1.2844 -0.5080
 8805SOL    HW228093   2.032   9.063   4.778  0.9252 -0.9416 -0.2744
 8806SOL     OW28094   9.101   0.379   0.356  0.2272 -0.4549  0.6133
 8806SOL    HW128095   9.011   0.355   0.379  0.3749 -1.0256  0.6114
 8806SOL    HW228096   9.156   0.326   0.414  0.5769 -0.9474 -0.1510
 8807SOL     OW28097   7.878   5.881   0.839  0.7669 -0.3077  0.3243
 8807SOL    HW128098   7.967   5.915   0.843  0.3031  1.0240 -0.4286
 8807SOL    HW228099   7.838   5.910   0.921  0.1545  1.6254 -0.6323
 8808SOL     OW28100   4.136   6.381   5.599  0.0444  0.4540 -0.3004
 8808SOL    HW128101   4.190   6.310   5.632  1.1535  2.0254  1.3958
 8808SOL    HW228102   4.046   6.349   5.608  0.5420 -0.8688  0.0731
 8809SOL     OW28103   0.022   3.736   4.142  0.1863  0.2826  0.1133
 8809SOL    HW128104  -0.068   3.719   4.113 -0.1334  1.2329  0.5034
 8809SOL    HW228105   0.039   3.826   4.113  0.9846  0.1319  0.1174
 8810SOL     OW28106   7.841   5.431   0.370  0.3138 -0.2223  0.0826
 8810SOL    HW128107   7.836   5.463   0.280 -0.0318  0.4781  0.3469
 8810SOL    HW228108   7.935   5.421   0.386  0.3258 -1.5681 -0.7687
 8811SOL     OW28109   7.598   3.772   7.287  0.0717 -0.2138  0.4504
 8811SOL    HW128110   7.579   3.731   7.372  1.4996  0.3780  1.0674
 8811SOL    HW228111   7.582   3.702   7.223 -3.1465 -0.0642  0.9742
 8812SOL     OW28112   2.200   9.215   1.616  0.2489 -0.1050  0.7567
 8812SOL    HW128113   2.264   9.218   1.688  0.5336  2.1790  0.4261
 8812SOL    HW228114   2.164   9.303   1.612 -1.1073 -0.7045 -0.7322
 8813SOL     OW28115   0.269   4.052   2.462 -0.4221 -0.2078  0.0457
 8813SOL    HW128116   0.337   4.082   2.523 -0.9888  1.3659 -0.0797
 8813SOL    HW228117   0.223   4.132   2.436 -1.3186 -1.0771 -1.0885
 8814SOL     OW28118   6.550   5.305   0.444 -0.2161 -0.7429  0.2633
 8814SOL    HW128119   6.634   5.349   0.439 -0.4253 -0.0916  2.0963
 8814SOL    HW228120   6.558   5.230   0.384  0.5726  1.0298 -1.9300
 8815SOL     OW28121   1.460   7.194   0.202 -0.0144 -0.4336 -0.0451
 8815SOL    HW128122   1.397   7.260   0.231  1.0712  0.0809  1.1926
 8815SOL    HW228123   1.443   7.118   0.257  0.4200 -0.2931  0.2944
 8816SOL     OW28124   2.799   1.227   2.594 -0.8900 -0.6717  0.1217
 8816SOL    HW128125   2.766   1.246   2.506 -0.8479 -0.3769  0.1679
 8816SOL    HW228126   2.720   1.209   2.645 -1.1138  1.3761  0.5577
 8817SOL     OW28127   6.145   4.746   8.523  0.0553  0.2085 -0.2857
 8817SOL    HW128128   6.082   4.771   8.456  1.0774 -0.4127 -1.4908
 8817SOL    HW228129   6.230   4.752   8.480  0.7861  0.5038  1.1582
 8818SOL     OW28130   5.935   4.087   3.869  0.0126 -0.1880  0.0257
 8818SOL    HW128131   5.859   4.138   3.896  0.2260  0.1221  0.0388
 8818SOL    HW228132   5.906   3.996   3.876 -0.4205 -0.0657 -0.1566
 8819SOL     OW28133   2.841   0.799   0.125  0.2936  0.4562 -0.3945
 8819SOL    HW128134   2.866   0.849   0.202  1.9190  1.0826 -1.3174
 8819SOL    HW228135   2.786   0.728   0.159 -0.1835  1.5545  1.1622
 8820SOL     OW28136   7.333   0.560   0.923 -0.7466 -0.2458  1.3276
 8820SOL    HW128137   7.365   0.538   1.011 -0.4058 -0.2192  1.2105
 8820SOL    HW228138   7.280   0.639   0.936 -0.1692  0.1330  1.4150
 8821SOL     OW28139   2.151   3.330   8.158  0.3842 -0.3541  0.5051
 8821SOL    HW128140   2.179   3.360   8.244 -0.2592  1.9318 -0.0460
 8821SOL    HW228141   2.081   3.391   8.133 -0.6440 -2.0653 -0.8748
 8822SOL     OW28142   8.919   4.257   6.485 -0.3354 -0.0871  0.1025
 8822SOL    HW128143   8.955   4.174   6.518 -0.8940 -0.3144  0.1556
 8822SOL    HW228144   8.833   4.233   6.451 -0.1906  0.3397 -0.5736
 8823SOL     OW28145   0.030   3.579   7.647  0.5606 -0.0832  0.3254
 8823SOL    HW128146   0.115   3.623   7.645  0.7519 -0.5036 -0.9359
 8823SOL    HW228147   0.051   3.486   7.641 -0.1069 -0.0568 -3.2937
 8824SOL     OW28148   7.264   1.177   5.662 -0.5108  0.2051  0.3816
 8824SOL    HW128149   7.267   1.273   5.660  0.2983  0.1498 -1.5666
 8824SOL    HW228150   7.206   1.154   5.590 -2.1756 -0.7257  2.0010
 8825SOL     OW28151   7.493   6.830   5.870  0.6640 -0.3464 -0.6028
 8825SOL    HW128152   7.433   6.771   5.915  1.2019 -0.0573  0.5218
 8825SOL    HW228153   7.489   6.804   5.778  0.1244 -1.4468 -0.2706
 8826SOL     OW28154   1.769   0.579   7.263 -0.0450 -0.3519 -0.1392
 8826SOL    HW128155   1.807   0.597   7.348 -0.6960  0.8734 -0.0922
 8826SOL    HW228156   1.756   0.484   7.262  0.2099 -0.4060  1.0194
 8827SOL     OW28157   7.197   2.990   5.932  0.3921  0.1973  0.2097
 8827SOL    HW128158   7.135   3.013   6.001  0.9826  1.2134  0.4075
 8827SOL    HW228159   7.280   2.977   5.977  0.8217  1.0420 -0.3166
 8828SOL     OW28160   0.818   6.511   5.591 -0.0589 -0.3293 -0.2571
 8828SOL    HW128161   0.899   6.488   5.544 -0.6696  0.9350 -1.9688
 8828SOL    HW228162   0.751   6.455   5.553 -0.0609 -1.1747  0.9654
 8829SOL     OW28163   1.500   4.745   8.391  0.2571 -0.0696  0.1757
 8829SOL    HW128164   1.479   4.656   8.418  0.0398 -0.4100 -1.0807
 8829SOL    HW228165   1.415   4.790   8.388  0.3925  0.2492  1.0436
 8830SOL     OW28166   6.050   1.260   7.725  0.2946 -0.1204 -0.3451
 8830SOL    HW128167   6.013   1.335   7.772  0.2104  0.0481 -0.6704
 8830SOL    HW228168   6.059   1.292   7.635  0.1908 -0.5249 -0.4989
 8831SOL     OW28169   2.024   2.241   1.476 -0.0832  0.1771  0.7372
 8831SOL    HW128170   1.960   2.304   1.445  0.4796 -0.1581 -1.1550
 8831SOL    HW228171   1.972   2.169   1.512 -0.7438  0.6046  0.6351
 8832SOL     OW28172   3.390   2.302   8.738  0.3907 -0.1153 -0.1458
 8832SOL    HW128173   3.423   2.229   8.684 -1.4179 -1.3019  0.3186
 8832SOL    HW228174   3.373   2.372   8.675  2.7640  0.1591 -0.5171
 8833SOL     OW28175   5.060   2.707   6.260  0.2619 -0.2727 -0.1106
 8833SOL    HW128176   4.984   2.650   6.273 -0.2846  0.4420 -0.1563
 8833SOL    HW228177   5.135   2.653   6.284 -0.3436 -0.6319  0.9905
 8834SOL     OW28178   6.369   7.932   1.117 -0.4847  0.1924 -0.5163
 8834SOL    HW128179   6.307   7.872   1.157 -0.2127  1.0244  1.2075
 8834SOL    HW228180   6.324   8.017   1.117 -0.6065  0.1535 -2.2937
 8835SOL     OW28181   2.819   1.798   2.636  0.5898  0.0951 -0.3916
 8835SOL    HW128182   2.848   1.767   2.722  1.6214  1.1185 -0.3540
 8835SOL    HW228183   2.791   1.719   2.590  2.5450 -0.7950 -0.0716
 8836SOL     OW28184   3.033   0.260   6.417  0.2461 -0.0301 -0.0300
 8836SOL    HW128185   3.000   0.171   6.429 -3.1138  1.0432 -0.9470
 8836SOL    HW228186   2.958   0.317   6.433  2.3399  2.6938  0.6235
 8837SOL     OW28187   6.432   5.887   1.012  0.7435 -0.4464 -0.0115
 8837SOL    HW128188   6.359   5.842   1.055  0.1573  1.1023  0.6425
 8837SOL    HW228189   6.400   5.976   0.995  2.6631  0.4488  0.8492
 8838SOL     OW28190   5.872   2.438   1.402  0.7638  0.4903 -0.2882
 8838SOL    HW128191   5.872   2.528   1.370 -2.8607  0.3439 -0.8892
 8838SOL    HW228192   5.870   2.447   1.497 -1.7993  1.1259 -0.3680
 8839SOL     OW28193   5.488   4.843   0.318  0.3406  0.4290  0.2984
 8839SOL    HW128194   5.407   4.792   0.316  0.8567 -0.3793 -0.2672
 8839SOL    HW228195   5.552   4.784   0.357  1.5331 -0.2432 -2.5329
 8840SOL     OW28196   5.515   5.694   8.327 -0.3326  0.0999  0.3639
 8840SOL    HW128197   5.425   5.727   8.338 -0.7289 -1.0492  0.7023
 8840SOL    HW228198   5.534   5.651   8.410  0.8776  1.1111  0.6177
 8841SOL     OW28199   1.523   1.754   4.625 -0.1913  0.0172 -0.0850
 8841SOL    HW128200   1.478   1.734   4.542 -1.3288 -2.0720  0.9848
 8841SOL    HW228201   1.603   1.702   4.622 -0.6946 -0.8035  0.5217
 8842SOL     OW28202   2.693   2.526   7.910 -0.0776 -0.0559  0.1047
 8842SOL    HW128203   2.735   2.516   7.825  1.6374 -1.0422  1.0276
 8842SOL    HW228204   2.608   2.565   7.891  0.8432  1.0365 -1.9349
 8843SOL     OW28205   1.264   8.788   7.669  0.2032  0.9601 -0.1232
 8843SOL    HW128206   1.319   8.724   7.714 -1.1181  0.9092  1.4712
 8843SOL    HW228207   1.249   8.750   7.583 -0.0721 -0.5880  0.5927
 8844SOL     OW28208   9.193   3.744   1.848  0.3125 -0.5583  0.1911
 8844SOL    HW128209   9.282   3.711   1.837  0.2268 -1.0780  0.9912
 8844SOL    HW228210   9.168   3.718   1.937  0.4874  2.3085  1.1231
 8845SOL     OW28211   4.463   8.071   8.846  0.2955 -0.1770 -0.1464
 8845SOL    HW128212   4.499   7.982   8.849 -0.0221 -0.3160 -0.4311
 8845SOL    HW228213   4.469   8.095   8.753  1.7703  0.6693  0.1547
 8846SOL     OW28214   1.242   1.759   1.576 -0.4626 -0.3449  0.2817
 8846SOL    HW128215   1.229   1.793   1.488  1.2020 -2.9016 -1.0088
 8846SOL    HW228216   1.175   1.691   1.586 -1.8902  1.2532  1.7310
 8847SOL     OW28217   6.612   3.320   1.249 -0.2429 -0.2278 -0.1816
 8847SOL    HW128218   6.625   3.318   1.344  1.1817  0.7917 -0.3354
 8847SOL    HW228219   6.520   3.300   1.237 -0.3611 -0.6760  1.4110
 8848SOL     OW28220   0.890   8.678   7.212  0.2723 -0.2792  0.2710
 8848SOL    HW128221   0.801   8.707   7.232  0.5289 -0.1407  1.2828
 8848SOL    HW228222   0.934   8.757   7.181 -0.1866 -0.5343 -1.0319
 8849SOL     OW28223   7.274   1.664   0.357  0.2031  0.1790 -0.3316
 8849SOL    HW128224   7.208   1.731   0.339 -0.0582  0.0077 -0.0022
 8849SOL    HW228225   7.356   1.713   0.361  0.0208  0.4728 -0.1569
 8850SOL     OW28226   7.534   0.063   5.651  0.0550  0.3626 -0.5267
 8850SOL    HW128227   7.588   0.083   5.728 -0.1504 -3.0613  0.5909
 8850SOL    HW228228   7.446   0.094   5.675  0.4005  1.1190 -0.2071
 8851SOL     OW28229   9.023   9.154   3.813  0.1562 -0.3952 -0.0796
 8851SOL    HW128230   9.104   9.197   3.841 -0.9151  1.4215  0.2952
 8851SOL    HW228231   9.003   9.092   3.882 -0.5490  1.5186  1.4640
 8852SOL     OW28232   0.048   1.274   2.830  0.0102 -0.2687  0.2556
 8852SOL    HW128233  -0.018   1.291   2.763 -0.8985 -0.2191  1.1437
 8852SOL    HW228234   0.083   1.187   2.809 -0.2661 -0.2500 -0.2796
 8853SOL     OW28235   8.686   0.793   5.034 -0.0533 -0.3788  0.4300
 8853SOL    HW128236   8.596   0.802   5.002  0.4903  1.5766 -0.6082
 8853SOL    HW228237   8.686   0.839   5.118  0.1917  0.4556 -0.0181
 8854SOL     OW28238   4.163   8.632   8.144 -0.6409 -0.4960  0.1961
 8854SOL    HW128239   4.235   8.604   8.201 -0.4847 -1.7885 -0.5920
 8854SOL    HW228240   4.169   8.727   8.142 -0.3507 -0.4571  1.9271
 8855SOL     OW28241   5.479   3.890   6.278 -0.2033 -0.2386  0.0973
 8855SOL    HW128242   5.440   3.837   6.347  0.9063 -1.8781 -0.4881
 8855SOL    HW228243   5.535   3.953   6.323 -1.2524  0.1901  0.7919
 8856SOL     OW28244   6.620   2.106   6.899 -0.5251  0.2589 -0.1003
 8856SOL    HW128245   6.657   2.018   6.900  1.3217  1.0094  1.9356
 8856SOL    HW228246   6.623   2.132   6.807  2.8912 -0.2262 -0.1933
 8857SOL     OW28247   6.031   8.305   0.071 -0.0590 -0.4509 -0.0091
 8857SOL    HW128248   6.110   8.271   0.113  0.2440  0.3783  0.1011
 8857SOL    HW228249   6.053   8.310  -0.022  0.7199  1.6018  0.2375
 8858SOL     OW28250   4.000   1.282   8.202  0.0530 -0.0580  0.0771
 8858SOL    HW128251   4.023   1.222   8.273  1.1351  0.6359  0.3192
 8858SOL    HW228252   4.084   1.308   8.163 -0.4128  1.0674 -0.2083
 8859SOL     OW28253   8.062   1.597   6.104 -0.1190  0.0502  0.1617
 8859SOL    HW128254   8.066   1.534   6.032  0.5837  0.6004 -0.2852
 8859SOL    HW228255   7.969   1.617   6.113 -0.3304 -0.9425  0.2103
 8860SOL     OW28256   7.241   8.474   2.276  0.0475 -0.1965 -0.3614
 8860SOL    HW128257   7.156   8.431   2.288  1.0053 -2.5147 -1.6106
 8860SOL    HW228258   7.305   8.407   2.299  1.5790  1.1891 -0.4952
 8861SOL     OW28259   4.992   3.409   1.980  0.0635 -0.1767 -0.1116
 8861SOL    HW128260   4.930   3.473   1.945  2.3040  2.3312  0.3559
 8861SOL    HW228261   5.047   3.384   1.905  0.6749  0.2175  0.2004
 8862SOL     OW28262   2.184   0.187   1.718  0.3721 -0.0788 -0.1515
 8862SOL    HW128263   2.270   0.199   1.760 -0.1818 -0.5987  1.1841
 8862SOL    HW228264   2.134   0.136   1.782 -1.0495  0.5142 -0.7724
 8863SOL     OW28265   3.426   0.589   5.799  0.1620  0.2844 -0.1750
 8863SOL    HW128266   3.349   0.535   5.819  0.0150  0.7820  0.6467
 8863SOL    HW228267   3.429   0.593   5.704  0.5803 -1.7640 -0.2808
 8864SOL     OW28268   4.247   4.775   2.798  0.4150 -0.4248 -0.8193
 8864SOL    HW128269   4.282   4.691   2.826  1.0147  0.1537  0.2211
 8864SOL    HW228270   4.322   4.834   2.800  0.4099 -0.2724 -3.3900
 8865SOL     OW28271   1.037   8.137   5.460  0.0044  0.4825 -0.5325
 8865SOL    HW128272   1.119   8.179   5.432  0.2710 -1.1866 -2.3432
 8865SOL    HW228273   0.987   8.126   5.380  0.4565 -3.7101 -0.3467
 8866SOL     OW28274   3.866   4.258   2.969  0.6735 -0.3016  0.0348
 8866SOL    HW128275   3.876   4.244   3.063 -0.0068  0.9909  0.3201
 8866SOL    HW228276   3.930   4.325   2.947  0.3124 -0.0524 -0.2711
 8867SOL     OW28277   2.939   6.628   6.385  0.3870 -0.1073 -0.2454
 8867SOL    HW128278   2.928   6.533   6.377  1.0473 -0.1999 -0.0370
 8867SOL    HW228279   2.956   6.657   6.295 -0.3995 -0.1042 -0.4022
 8868SOL     OW28280   8.452   2.319   9.220 -0.4272 -0.4554 -0.1277
 8868SOL    HW128281   8.424   2.260   9.150 -0.8379 -1.3895  0.8042
 8868SOL    HW228282   8.394   2.298   9.293 -0.7857  1.3214  0.1319
 8869SOL     OW28283   6.052   8.124   8.422 -0.4731  0.8253  0.0590
 8869SOL    HW128284   6.057   8.200   8.365 -3.2265  1.3475  0.4718
 8869SOL    HW228285   6.011   8.156   8.502  0.9814 -0.4800  1.3679
 8870SOL     OW28286   8.273   7.830   8.817  0.3611  0.7772 -0.4065
 8870SOL    HW128287   8.223   7.837   8.736  0.2023 -0.4845 -0.4257
 8870SOL    HW228288   8.343   7.768   8.797  1.2656  1.6630 -0.0452
 8871SOL     OW28289   6.047   2.463   1.940 -0.3303  0.0261  0.8553
 8871SOL    HW128290   6.063   2.370   1.958  1.5645  0.3756  1.0651
 8871SOL    HW228291   6.130   2.506   1.961 -0.3504  1.4213 -1.7325
 8872SOL     OW28292   1.248   7.199   5.532 -0.0602 -0.1160  0.4795
 8872SOL    HW128293   1.276   7.252   5.456 -0.5959 -0.3617  0.1067
 8872SOL    HW228294   1.280   7.111   5.512 -0.1408 -0.1657  0.5723
 8873SOL     OW28295   1.439   3.556   3.314 -0.2082 -0.3548  0.3091
 8873SOL    HW128296   1.438   3.579   3.221  1.2344 -1.1121  0.0969
 8873SOL    HW228297   1.354   3.585   3.346 -0.2406  1.0241 -0.9719
 8874SOL     OW28298   9.152   7.819   1.001 -0.3629 -0.0142  0.4588
 8874SOL    HW128299   9.173   7.728   1.019  0.7404  0.1725  0.1512
 8874SOL    HW228300   9.139   7.858   1.088 -2.0802 -0.7471  0.5333
 8875SOL     OW28301   5.579   7.917   5.717 -0.1522 -0.1359 -0.5462
 8875SOL    HW128302   5.491   7.942   5.744 -0.7502 -0.5823 -2.0028
 8875SOL    HW228303   5.625   8.001   5.703  0.0541  0.0928  1.3948
 8876SOL     OW28304   7.172   6.202   1.988 -0.5853  0.4309 -0.0028
 8876SOL    HW128305   7.253   6.156   1.965 -0.6447  0.2614  0.1300
 8876SOL    HW228306   7.202   6.277   2.040 -0.6855 -0.9234  2.0295
 8877SOL     OW28307   7.290   2.901   2.757 -0.3290 -0.4386  0.3548
 8877SOL    HW128308   7.277   2.867   2.846 -1.4626 -0.2814  0.2525
 8877SOL    HW228309   7.285   2.996   2.767  0.5255 -0.3746  0.2662
 8878SOL     OW28310   7.368   0.312   4.258  0.1566  0.2435  0.2866
 8878SOL    HW128311   7.435   0.309   4.326  0.6749 -1.3781 -0.2745
 8878SOL    HW228312   7.406   0.366   4.189  0.3020  0.5307  0.5935
 8879SOL     OW28313   9.261   5.439   2.405  0.4410 -0.4441  0.0059
 8879SOL    HW128314   9.214   5.518   2.433  0.6614 -0.2073 -0.2821
 8879SOL    HW228315   9.278   5.391   2.486 -1.3716 -1.1405 -0.0150
 8880SOL     OW28316   1.338   8.381   7.449 -0.0455  0.4529  0.2044
 8880SOL    HW128317   1.289   8.343   7.522  0.7619 -0.9597  0.0120
 8880SOL    HW228318   1.413   8.323   7.436 -0.2683  0.5880 -1.8706
 8881SOL     OW28319   1.287   5.921   5.326 -0.0322  0.4253  0.1570
 8881SOL    HW128320   1.194   5.935   5.309 -0.3968 -3.2485 -1.2154
 8881SOL    HW228321   1.303   5.965   5.410 -2.7936  1.7119  0.0576
 8882SOL     OW28322   8.733   0.103   6.673  0.0274  0.1327 -0.3917
 8882SOL    HW128323   8.768   0.162   6.740 -0.4141 -0.7520  0.6300
 8882SOL    HW228324   8.765   0.139   6.590  0.5409  1.2637  0.2890
 8883SOL     OW28325   0.104   8.113   7.389  0.4120  0.4622  0.0739
 8883SOL    HW128326   0.193   8.126   7.420  1.3250  1.7816 -2.8685
 8883SOL    HW228327   0.113   8.053   7.314 -1.0717  1.1552 -0.6874
 8884SOL     OW28328   6.717   5.818   0.591 -0.2429 -0.2825  0.7376
 8884SOL    HW128329   6.706   5.856   0.678 -0.9133  1.2890 -0.0248
 8884SOL    HW228330   6.756   5.887   0.539  0.0014 -1.1631 -0.2684
 8885SOL     OW28331   5.115   9.017   9.061 -0.6579 -0.0321  0.2073
 8885SOL    HW128332   5.158   9.096   9.029  1.2148 -1.0330  0.1517
 8885SOL    HW228333   5.130   8.952   8.992 -1.2874 -0.7145  0.6985
 8886SOL     OW28334   8.623   8.378   0.713  0.2649  0.4807 -0.1813
 8886SOL    HW128335   8.555   8.333   0.763  0.0340 -0.2401 -1.1316
 8886SOL    HW228336   8.704   8.332   0.735  0.1728  0.1984 -0.4332
 8887SOL     OW28337   3.406   4.489   8.202  0.0781  0.3021  0.3208
 8887SOL    HW128338   3.429   4.396   8.195 -0.2282  0.1278  1.5791
 8887SOL    HW228339   3.352   4.495   8.281 -3.4145  0.8587 -1.9719
 8888SOL     OW28340   6.070   6.522   8.437 -0.7010 -0.8799 -0.0079
 8888SOL    HW128341   5.975   6.516   8.449 -0.5962 -1.9580  0.2824
 8888SOL    HW228342   6.081   6.583   8.363 -1.6366 -1.3458 -0.5318
 8889SOL     OW28343   5.888   5.890   7.228 -0.3031 -0.1789  0.2418
 8889SOL    HW128344   5.921   5.971   7.267 -0.6279  1.3252 -2.5108
 8889SOL    HW228345   5.794   5.889   7.250 -0.1308 -0.2480  0.9888
 8890SOL     OW28346   8.771   1.866   2.956 -0.5490  0.2088  0.5831
 8890SOL    HW128347   8.738   1.952   2.980 -0.3477 -0.0692  1.9174
 8890SOL    HW228348   8.860   1.882   2.925 -0.6610  0.5280  0.4266
 8891SOL     OW28349   0.416   1.332   7.814  0.1374 -0.1554  0.5075
 8891SOL    HW128350   0.392   1.240   7.810  1.9729 -0.6235 -0.0008
 8891SOL    HW228351   0.493   1.335   7.870 -0.4068  1.1856  1.2098
 8892SOL     OW28352   5.071   1.555   5.334 -0.6775  0.1124  0.0607
 8892SOL    HW128353   5.054   1.587   5.246 -1.6215  1.0907  0.5827
 8892SOL    HW228354   5.117   1.626   5.378 -1.0580  0.0073  0.6432
 8893SOL     OW28355   6.881   3.186   4.292 -0.4582  0.4529  0.2929
 8893SOL    HW128356   6.976   3.199   4.297 -0.2848 -1.4475  3.1559
 8893SOL    HW228357   6.844   3.272   4.310  0.7044  0.8276  0.9821
 8894SOL     OW28358   1.565   3.045   5.498  0.0790 -0.0348  0.2702
 8894SOL    HW128359   1.606   2.979   5.442  2.5254  0.7980  1.0076
 8894SOL    HW228360   1.635   3.108   5.516 -2.0514  2.4727  0.0523
 8895SOL     OW28361   5.682   7.082   1.012 -0.5173 -0.5005 -0.4095
 8895SOL    HW128362   5.747   7.062   1.078  1.4791  1.6085 -1.6906
 8895SOL    HW228363   5.670   6.999   0.965  0.8726 -1.0432  0.1726
 8896SOL     OW28364   4.768   1.878   4.506  0.0606  0.0363 -0.4925
 8896SOL    HW128365   4.795   1.800   4.555 -0.4434  0.7866  0.9891
 8896SOL    HW228366   4.850   1.914   4.471  0.4800 -0.2231  0.2144
 8897SOL     OW28367   6.201   9.078   0.786 -0.4322 -0.3908 -0.2753
 8897SOL    HW128368   6.143   9.140   0.743  0.4792  0.6335 -0.0406
 8897SOL    HW228369   6.278   9.129   0.810 -0.5208 -1.1516  1.7516
 8898SOL     OW28370   5.677   5.309   1.803 -0.2058  0.2373 -0.1732
 8898SOL    HW128371   5.771   5.322   1.792  0.0771 -1.1155  0.4871
 8898SOL    HW228372   5.649   5.263   1.724 -0.3436  0.7805 -0.4415
 8899SOL     OW28373   0.542   4.462   6.885  0.3307  0.3607  0.1444
 8899SOL    HW128374   0.492   4.485   6.807  0.7447 -0.5200 -0.3892
 8899SOL    HW228375   0.480   4.472   6.957 -0.7130 -1.0177 -0.5434
 8900SOL     OW28376   3.910   4.526   3.364  0.0336 -0.2567 -0.0936
 8900SOL    HW128377   3.935   4.615   3.339 -0.5934  0.1197  0.6097
 8900SOL    HW228378   3.969   4.505   3.437  1.7572 -1.2959 -1.7297
 8901SOL     OW28379   3.659   5.492   6.302  0.2524  0.0630 -0.4211
 8901SOL    HW128380   3.724   5.490   6.372  1.9754  4.1339 -1.7303
 8901SOL    HW228381   3.710   5.476   6.222 -0.7431  1.0647 -1.2692
 8902SOL     OW28382   2.168   7.878   4.464 -0.0464  0.2618 -0.0610
 8902SOL    HW128383   2.182   7.786   4.441  2.6526  1.0376 -1.6715
 8902SOL    HW228384   2.196   7.927   4.388 -0.7922  2.4980  1.0560
 8903SOL     OW28385   8.197   7.601   8.239  0.6737 -0.4297 -0.0678
 8903SOL    HW128386   8.216   7.521   8.288  1.0212 -0.3500 -0.0716
 8903SOL    HW228387   8.222   7.671   8.299  0.5177 -0.3251 -0.1266
 8904SOL     OW28388   4.168   1.030   3.458 -0.1037 -0.1332 -0.0689
 8904SOL    HW128389   4.109   1.074   3.396 -0.2316 -0.2335 -0.0199
 8904SOL    HW228390   4.147   0.937   3.448  2.0598 -0.4426 -2.1622
 8905SOL     OW28391   8.445   1.751   3.823  0.3452  0.1226  0.2531
 8905SOL    HW128392   8.505   1.684   3.857 -0.0622 -0.1884  0.3603
 8905SOL    HW228393   8.380   1.702   3.772  1.8302  0.6947 -2.3093
 8906SOL     OW28394   5.568   0.780   8.922  0.1461 -0.1890  0.2720
 8906SOL    HW128395   5.513   0.846   8.881  3.4358  1.6303 -1.4196
 8906SOL    HW228396   5.580   0.713   8.855 -0.7989 -1.1022  0.9917
 8907SOL     OW28397   2.593   4.757   7.545 -0.4140  0.2283 -0.3874
 8907SOL    HW128398   2.580   4.711   7.628  0.3485  0.9590  0.1464
 8907SOL    HW228399   2.524   4.824   7.544  0.6009  1.2867  0.4230
 8908SOL     OW28400   0.388   0.977   5.011  0.0521  0.1926 -0.3518
 8908SOL    HW128401   0.402   0.883   5.021  0.1044  0.2508  0.1290
 8908SOL    HW228402   0.474   1.016   5.028 -0.5953  0.5376  2.3716
 8909SOL     OW28403   2.877   0.209   0.005  0.2510  0.0932  0.7620
 8909SOL    HW128404   2.790   0.237  -0.024 -0.0426 -0.2634  1.3053
 8909SOL    HW228405   2.868   0.196   0.099  1.0993  0.8293  0.9439
 8910SOL     OW28406   6.115   1.669   8.686  0.1532  0.3462  0.3283
 8910SOL    HW128407   6.101   1.732   8.615  1.3753  1.0997  0.7528
 8910SOL    HW228408   6.082   1.712   8.764 -3.4624 -1.4265 -0.1122
 8911SOL     OW28409   4.043   5.576   7.258  0.4535  0.1423  0.0906
 8911SOL    HW128410   4.040   5.496   7.206 -0.2405  0.4846 -0.4111
 8911SOL    HW228411   3.966   5.570   7.316  0.7468  0.1612  0.4884
 8912SOL     OW28412   8.857   3.103   5.094  0.5155 -0.1562  0.4833
 8912SOL    HW128413   8.784   3.151   5.134  0.6588  0.0895  0.4555
 8912SOL    HW228414   8.818   3.056   5.021  0.4062  0.0818  0.3871
 8913SOL     OW28415   4.728   4.742   3.264 -0.2270 -0.0738 -0.5915
 8913SOL    HW128416   4.818   4.762   3.292 -0.1906 -1.5029  0.3751
 8913SOL    HW228417   4.738   4.667   3.206 -0.6001  1.0970 -2.1987
 8914SOL     OW28418   8.178   3.331   5.593  0.0070  0.4282  0.1969
 8914SOL    HW128419   8.097   3.350   5.547 -0.3938  0.6011  0.9566
 8914SOL    HW228420   8.157   3.257   5.650 -0.1557  1.6563  1.7734
 8915SOL     OW28421   7.464   6.566   5.238 -0.4428 -0.0576 -0.4664
 8915SOL    HW128422   7.493   6.657   5.245 -0.3053 -0.0379 -1.3244
 8915SOL    HW228423   7.369   6.570   5.244 -0.3209 -0.1028  2.1524
 8916SOL     OW28424   3.966   2.151   4.821  0.5566 -0.1146  0.0052
 8916SOL    HW128425   4.003   2.191   4.741 -0.6638 -1.5030 -1.2758
 8916SOL    HW228426   4.032   2.089   4.850  1.2860  0.8609  0.4569
 8917SOL     OW28427   5.306   0.049   8.612  0.4095  0.4605 -0.1515
 8917SOL    HW128428   5.237   0.110   8.589  0.1409  1.4740  3.0670
 8917SOL    HW228429   5.266  -0.038   8.603 -1.1102  1.0126  1.0034
 8918SOL     OW28430   3.695   9.143   2.456 -0.2735 -0.1998  0.3272
 8918SOL    HW128431   3.744   9.074   2.411 -1.9442 -2.0208  1.1962
 8918SOL    HW228432   3.754   9.218   2.458  0.1511 -0.2987 -4.1847
 8919SOL     OW28433   5.607   7.455   4.894  0.3911 -0.0236  1.2829
 8919SOL    HW128434   5.523   7.500   4.885 -0.1625 -0.6317  3.2889
 8919SOL    HW228435   5.594   7.393   4.965  1.8237 -1.8447 -0.0161
 8920SOL     OW28436   6.234   3.080   0.627 -0.4080 -0.0082  0.1166
 8920SOL    HW128437   6.170   3.010   0.609  0.0973 -0.2324 -0.8491
 8920SOL    HW228438   6.318   3.035   0.627 -0.1895  0.4035  0.7316
 8921SOL     OW28439   3.501   5.084   7.452 -0.0742 -0.4680 -0.0327
 8921SOL    HW128440   3.473   5.085   7.360 -1.3878 -1.6254  0.3239
 8921SOL    HW228441   3.595   5.067   7.448  0.1185  0.8422 -1.2057
 8922SOL     OW28442   2.929   0.699   6.992  0.3756 -0.2256 -0.5536
 8922SOL    HW128443   2.976   0.778   7.017  0.9203 -0.8337  0.3871
 8922SOL    HW228444   2.980   0.627   7.030  0.1353 -1.0536 -1.7700
 8923SOL     OW28445   1.026   7.858   6.724  1.0673  0.1684  0.6066
 8923SOL    HW128446   1.012   7.855   6.629  0.6801  1.8665  0.5963
 8923SOL    HW228447   1.121   7.854   6.735  1.0312 -2.7990  0.2916
 8924SOL     OW28448   6.245   6.074   4.510  0.2280  0.0610  0.0075
 8924SOL    HW128449   6.274   6.161   4.537  1.0955  0.4458 -2.0218
 8924SOL    HW228450   6.150   6.081   4.503  0.3551  1.0412 -0.7714
 8925SOL     OW28451   8.691   5.018   1.719 -0.3672 -0.1048  0.5748
 8925SOL    HW128452   8.698   5.004   1.813  0.3343 -0.7599  0.4311
 8925SOL    HW228453   8.743   5.097   1.703  0.8489 -0.9093  0.5161
 8926SOL     OW28454   2.273   2.464   3.619  0.6176 -0.0577 -0.2904
 8926SOL    HW128455   2.280   2.371   3.598 -2.1757 -0.6627  1.0947
 8926SOL    HW228456   2.348   2.482   3.675  1.3604 -1.4041 -0.8370
 8927SOL     OW28457   8.044   2.455   2.123 -1.0853 -0.2388 -0.3640
 8927SOL    HW128458   8.106   2.392   2.087  0.2200  1.9264 -2.0717
 8927SOL    HW228459   8.038   2.434   2.216  1.3357 -1.2245 -0.4121
 8928SOL     OW28460   4.843   5.060   2.186  0.5583 -0.6188  0.2642
 8928SOL    HW128461   4.824   5.079   2.094  0.5197 -0.3668  0.3240
 8928SOL    HW228462   4.938   5.067   2.193  0.5211 -0.2196  0.3390
 8929SOL     OW28463   0.793   4.720   0.477 -0.2113 -0.3773  0.5975
 8929SOL    HW128464   0.825   4.767   0.554  2.6482  1.0231 -1.3450
 8929SOL    HW228465   0.866   4.665   0.449 -0.9343 -0.3284 -1.5333
 8930SOL     OW28466   2.101   4.637   1.847  0.2254  0.3011  0.1571
 8930SOL    HW128467   2.020   4.686   1.859 -0.1664 -0.2852 -0.1070
 8930SOL    HW228468   2.162   4.701   1.811  0.4215  1.2144  2.0448
 8931SOL     OW28469   3.861   1.927   0.659 -0.0504 -0.1449 -0.1252
 8931SOL    HW128470   3.888   1.895   0.745  0.5403 -1.2849 -0.7243
 8931SOL    HW228471   3.858   2.022   0.668  0.8011 -0.2174  0.9283
 8932SOL     OW28472   1.954   8.868   7.668  0.3017 -0.2598 -0.3183
 8932SOL    HW128473   1.872   8.874   7.619 -0.1285  1.1435  0.5227
 8932SOL    HW228474   1.930   8.822   7.749 -0.0113  1.4159  0.5792
 8933SOL     OW28475   1.124   7.449   5.003 -0.1191  0.5275  0.5625
 8933SOL    HW128476   1.123   7.486   4.915 -1.3354  0.7276  0.6506
 8933SOL    HW228477   1.049   7.389   5.004  1.3696 -1.4080  0.6461
 8934SOL     OW28478   1.853   5.736   8.139  0.5190 -0.6582 -0.1700
 8934SOL    HW128479   1.871   5.805   8.202  0.6303 -0.3993 -0.4836
 8934SOL    HW228480   1.771   5.762   8.096 -0.0689 -1.3126  0.5279
 8935SOL     OW28481   0.916   4.441   8.031  0.3326 -0.0551 -0.3267
 8935SOL    HW128482   0.975   4.511   8.002  2.1707 -1.0973  0.8112
 8935SOL    HW228483   0.957   4.361   8.000 -0.0568 -0.8508  1.1756
 8936SOL     OW28484   2.300   6.747   3.174 -0.3095  0.5725  0.2810
 8936SOL    HW128485   2.370   6.682   3.178 -2.2853 -1.6589 -0.1124
 8936SOL    HW228486   2.270   6.757   3.264 -0.2191  0.6864  0.2980
 8937SOL     OW28487   8.994   0.620   6.024 -0.1369  0.2865 -0.3597
 8937SOL    HW128488   8.898   0.623   6.015 -0.0049  1.0858 -1.6870
 8937SOL    HW228489   9.021   0.553   5.961  0.0339 -1.3235  1.4002
 8938SOL     OW28490   5.511   4.076   3.139  0.3157 -0.2887 -0.4987
 8938SOL    HW128491   5.489   4.159   3.097  1.2975  0.3844  0.2949
 8938SOL    HW228492   5.560   4.028   3.073 -0.6566 -0.4399 -1.1247
 8939SOL     OW28493   3.451   3.540   3.505 -0.2602 -0.1303 -0.2367
 8939SOL    HW128494   3.542   3.566   3.510 -0.5863  1.1165 -0.6697
 8939SOL    HW228495   3.444   3.465   3.564  0.5241  1.2554  1.6429
 8940SOL     OW28496   6.759   8.462   1.370  0.7606  0.7029 -0.1159
 8940SOL    HW128497   6.700   8.521   1.417 -0.4440 -0.3581 -0.2432
 8940SOL    HW228498   6.735   8.374   1.401  1.8138  0.1985 -0.6769
 8941SOL     OW28499   8.867   1.707   1.596  0.1433  0.1524 -1.1947
 8941SOL    HW128500   8.875   1.650   1.520 -1.4224 -0.3626 -0.9899
 8941SOL    HW228501   8.856   1.647   1.670  1.7604  0.6449 -0.5362
 8942SOL     OW28502   6.634   8.072   2.807  0.2731 -0.4571  0.0039
 8942SOL    HW128503   6.606   7.985   2.777 -0.2777  0.2281 -1.5289
 8942SOL    HW228504   6.724   8.080   2.776 -0.0450 -0.0489 -0.8313
 8943SOL     OW28505   5.926   6.682   3.180 -0.4739  0.0389 -0.5846
 8943SOL    HW128506   5.853   6.623   3.198  0.3639 -0.7260  0.3745
 8943SOL    HW228507   5.987   6.630   3.128 -1.1100  1.0289 -2.3605
 8944SOL     OW28508   3.164   3.716   6.927  0.8994 -0.5758 -0.0049
 8944SOL    HW128509   3.209   3.647   6.975  3.0248  0.8461  0.0644
 8944SOL    HW228510   3.113   3.763   6.993  0.0621 -1.5678  0.0677
 8945SOL     OW28511   6.817   3.268   5.850  0.1306  0.3531  0.2970
 8945SOL    HW128512   6.806   3.327   5.925  0.1168  0.6567  0.0574
 8945SOL    HW228513   6.779   3.185   5.879  0.4877  0.3508  0.7735
 8946SOL     OW28514   5.849   4.303   0.095  0.7344  0.4889  0.9985
 8946SOL    HW128515   5.898   4.221   0.101  0.5123  0.4467  2.3901
 8946SOL    HW228516   5.852   4.326   0.002  1.6545 -0.5686  0.7558
 8947SOL     OW28517   1.983   1.531   5.377  0.1261 -0.2743 -0.5365
 8947SOL    HW128518   2.052   1.539   5.312 -1.1357 -1.8551 -2.1310
 8947SOL    HW228519   1.903   1.557   5.331 -0.7876 -1.4090  0.3698
 8948SOL     OW28520   2.571   8.030   6.266  0.0695  0.0657  0.0791
 8948SOL    HW128521   2.628   7.955   6.280 -0.2359 -0.1229  0.3119
 8948SOL    HW228522   2.579   8.050   6.173  1.2181  0.6057  0.2779
 8949SOL     OW28523   5.047   8.455   2.722  0.0180  0.4829 -0.1467
 8949SOL    HW128524   4.958   8.422   2.725  1.0783 -2.4110  0.5892
 8949SOL    HW228525   5.055   8.511   2.799 -1.1681  0.8677 -0.2904
 8950SOL     OW28526   8.303   4.207   5.756 -0.1333 -0.8609 -0.1681
 8950SOL    HW128527   8.314   4.269   5.684 -0.7078 -0.3196  0.2131
 8950SOL    HW228528   8.226   4.238   5.803  2.0363  0.5730  2.5488
 8951SOL     OW28529   1.092   1.050   6.148  0.3920  0.5459 -0.1329
 8951SOL    HW128530   1.089   1.068   6.242 -2.1582 -0.4854  0.0273
 8951SOL    HW228531   1.159   0.983   6.138 -0.6210 -0.6820  1.1996
 8952SOL     OW28532   1.632   0.740   4.608 -0.2206  0.6117  0.2467
 8952SOL    HW128533   1.609   0.824   4.569  0.2465  1.3261  1.4612
 8952SOL    HW228534   1.726   0.747   4.624 -0.0190 -0.4903 -0.4489
 8953SOL     OW28535   2.194   1.260   1.912  0.0244  0.0829  0.1309
 8953SOL    HW128536   2.147   1.337   1.880  2.0893  1.7467  0.9795
 8953SOL    HW228537   2.283   1.269   1.877  0.3177 -1.8821  0.2974
 8954SOL     OW28538   7.577   8.225   3.921 -0.5915 -0.9421  0.0988
 8954SOL    HW128539   7.626   8.148   3.889 -1.0214 -1.2064  0.0691
 8954SOL    HW228540   7.524   8.191   3.993 -0.4512 -0.5766  0.3756
 8955SOL     OW28541   0.609   2.062   3.038  0.3080  0.1424 -0.4636
 8955SOL    HW128542   0.556   2.009   3.098  1.2911 -0.8506 -0.4510
 8955SOL    HW228543   0.614   2.148   3.079 -0.3425 -0.0842  0.0923
 8956SOL     OW28544   6.691   0.859   1.732  0.3006  0.0441 -0.4296
 8956SOL    HW128545   6.628   0.852   1.660 -0.1688 -1.3770  0.0885
 8956SOL    HW228546   6.732   0.944   1.720 -1.4421  0.8339 -1.0255
 8957SOL     OW28547   3.366   3.806   4.462  0.0706  0.1811  0.1925
 8957SOL    HW128548   3.314   3.809   4.382 -0.3281 -1.1962  0.3744
 8957SOL    HW228549   3.369   3.713   4.485  1.7937  0.3465  0.7313
 8958SOL     OW28550   1.583   3.022   0.564 -0.2570  0.0430 -0.7578
 8958SOL    HW128551   1.593   2.934   0.529 -0.5832 -0.2856 -0.0394
 8958SOL    HW228552   1.505   3.057   0.521 -0.1147 -0.0154 -1.0590
 8959SOL     OW28553   5.567   5.199   4.687  0.0056  0.3988 -0.2383
 8959SOL    HW128554   5.596   5.127   4.744 -3.0281  1.4517  2.8033
 8959SOL    HW228555   5.623   5.273   4.713 -0.7298  0.6255  0.7180
 8960SOL     OW28556   6.497   1.601   3.761  0.0846 -0.2101  0.0977
 8960SOL    HW128557   6.445   1.536   3.808  0.8108 -0.0805  1.1039
 8960SOL    HW228558   6.549   1.644   3.829  1.6647 -0.4835 -0.8900
 8961SOL     OW28559   7.223   6.913   6.735 -0.0748 -0.3170  0.6216
 8961SOL    HW128560   7.143   6.958   6.705  0.0042 -0.6431 -0.0784
 8961SOL    HW228561   7.251   6.963   6.812  0.9667  1.8854 -1.1372
 8962SOL     OW28562   6.014   0.186   1.740  0.2551 -0.8124 -0.2920
 8962SOL    HW128563   6.091   0.141   1.774 -0.0491 -1.3334 -0.2801
 8962SOL    HW228564   6.002   0.149   1.652  0.5483 -0.0829 -0.6407
 8963SOL     OW28565   5.248   8.730   1.401  0.1527 -0.0945 -0.2799
 8963SOL    HW128566   5.221   8.821   1.388  1.3030  0.0555 -1.8320
 8963SOL    HW228567   5.215   8.685   1.323  2.2927 -0.3609 -1.0682
 8964SOL     OW28568   6.918   7.122   0.997 -0.6692 -0.1270  0.5135
 8964SOL    HW128569   6.843   7.109   1.055 -1.7913  0.6377 -0.7339
 8964SOL    HW228570   6.899   7.066   0.921 -0.4726  0.8066 -0.2406
 8965SOL     OW28571   1.618   8.555   3.785  0.2492  0.6102 -0.0391
 8965SOL    HW128572   1.619   8.550   3.689  2.1968  1.4127 -0.0694
 8965SOL    HW228573   1.628   8.648   3.805  1.3195  0.2892  0.9607
 8966SOL     OW28574   1.558   8.899   4.582  0.4746 -0.1952  0.1871
 8966SOL    HW128575   1.629   8.962   4.572  1.0482 -0.7361  0.8502
 8966SOL    HW228576   1.548   8.888   4.677  0.0522 -0.7378  0.0858
 8967SOL     OW28577   8.503   0.171   0.799  0.0707  0.3836 -0.2347
 8967SOL    HW128578   8.471   0.105   0.861 -1.0230  1.4430  0.3263
 8967SOL    HW228579   8.428   0.192   0.745  0.0783  2.0859  0.3873
 8968SOL     OW28580   1.169   1.559   0.061 -0.3136 -0.2620 -0.5221
 8968SOL    HW128581   1.213   1.595  -0.016  0.7028 -1.5598 -0.5780
 8968SOL    HW228582   1.196   1.615   0.133 -0.8067  0.6114 -1.0088
 8969SOL     OW28583   4.647   7.760   9.202 -0.2884 -0.5339 -0.1808
 8969SOL    HW128584   4.698   7.840   9.216  2.3252 -1.6519 -2.7512
 8969SOL    HW228585   4.680   7.698   9.268  0.9935 -0.9121 -1.1506
 8970SOL     OW28586   4.346   3.586   6.247 -0.1100  0.1800 -0.5040
 8970SOL    HW128587   4.408   3.556   6.314 -0.0233 -0.7425 -0.9905
 8970SOL    HW228588   4.361   3.680   6.241 -1.1835  0.5570  1.8918
 8971SOL     OW28589   4.285   3.026   1.181  0.1220  0.2900 -0.6577
 8971SOL    HW128590   4.308   3.088   1.250 -1.6970  1.3063 -0.9414
 8971SOL    HW228591   4.190   3.016   1.188  0.1438 -0.9989 -1.8536
 8972SOL     OW28592   5.755   2.051   3.709  0.0499 -0.4004  0.1912
 8972SOL    HW128593   5.747   2.115   3.638 -1.4966 -0.0206  0.6953
 8972SOL    HW228594   5.811   2.095   3.773  0.7577 -0.4125 -0.4093
 8973SOL     OW28595   6.345   1.518   7.945  0.1943 -0.3514 -0.0177
 8973SOL    HW128596   6.404   1.577   7.899 -0.2103  0.8404  0.9650
 8973SOL    HW228597   6.259   1.534   7.906 -0.1580  0.6977  1.1625
 8974SOL     OW28598   3.740   6.920   7.094 -0.5459 -0.2064  0.2776
 8974SOL    HW128599   3.741   6.881   7.007 -1.3985 -0.9111  0.5831
 8974SOL    HW228600   3.763   7.012   7.079  1.2906 -0.7628 -0.4683
 8975SOL     OW28601   4.694   1.528   5.008 -0.0876 -0.2396  0.7049
 8975SOL    HW128602   4.733   1.473   4.940  0.9124  0.8195  0.4025
 8975SOL    HW228603   4.685   1.470   5.083  1.8343 -0.5985  0.6941
 8976SOL     OW28604   3.027   1.081   5.931  0.3822  0.8063  0.0741
 8976SOL    HW128605   3.053   1.153   5.873  3.0480 -1.2643 -1.4514
 8976SOL    HW228606   3.084   1.090   6.008  0.6713  0.4054 -0.0880
 8977SOL     OW28607   2.432   7.065   8.387  0.7594 -0.7878 -0.0023
 8977SOL    HW128608   2.373   6.989   8.382 -1.0929  0.6546 -0.6448
 8977SOL    HW228609   2.463   7.077   8.297  0.2506 -0.1877 -0.1029
 8978SOL     OW28610   3.006   8.583   3.264 -0.3715  0.0364  0.0024
 8978SOL    HW128611   3.093   8.554   3.238 -0.5494 -1.8053  1.3254
 8978SOL    HW228612   3.016   8.676   3.283  0.8629  0.2652 -1.6644
 8979SOL     OW28613   2.306   3.719   4.394 -0.2328  0.3865 -0.3683
 8979SOL    HW128614   2.336   3.730   4.485  1.1968  1.2723 -0.9196
 8979SOL    HW228615   2.222   3.674   4.402  1.0134 -1.7611  1.2912
 8980SOL     OW28616   5.313   5.310   1.200 -0.1645  0.1449  0.5918
 8980SOL    HW128617   5.368   5.363   1.142  0.3546 -0.6908  0.3219
 8980SOL    HW228618   5.242   5.278   1.143 -1.0892  1.4347  0.9954
 8981SOL     OW28619   8.555   6.465   6.503  0.0356  0.2928 -0.0800
 8981SOL    HW128620   8.616   6.500   6.437 -0.1412  2.0778  0.6652
 8981SOL    HW228621   8.476   6.518   6.493 -0.5405 -0.4519  0.5308
 8982SOL     OW28622   1.527   4.967   3.790 -0.7119  0.1584 -0.7732
 8982SOL    HW128623   1.621   4.959   3.801 -0.6959  0.3605 -0.7542
 8982SOL    HW228624   1.489   4.905   3.852 -0.6025  0.4645 -0.4028
 8983SOL     OW28625   1.194   0.534   5.036 -0.3686 -0.4055 -0.1434
 8983SOL    HW128626   1.164   0.444   5.027 -0.3221 -0.3005 -1.4500
 8983SOL    HW228627   1.178   0.574   4.950 -1.1516  1.0633  0.6494
 8984SOL     OW28628   2.726   8.319   1.685  0.8602 -0.1019 -0.4135
 8984SOL    HW128629   2.636   8.304   1.655  0.4885  1.0644  0.1025
 8984SOL    HW228630   2.780   8.305   1.607  0.2065 -0.5211 -0.7941
 8985SOL     OW28631   0.697   1.258   0.445 -0.2872  0.1728  0.3564
 8985SOL    HW128632   0.695   1.271   0.350  0.3108  1.1425  0.4685
 8985SOL    HW228633   0.769   1.196   0.459  0.4448  0.9933  0.2750
 8986SOL     OW28634   5.125   0.081   7.338 -0.4776 -0.0775  0.1213
 8986SOL    HW128635   5.047   0.136   7.335 -2.1441 -2.3904 -0.9335
 8986SOL    HW228636   5.161   0.084   7.250 -0.7027 -0.8452  0.0014
 8987SOL     OW28637   7.844   0.579   6.715 -0.3145 -0.6417 -0.5466
 8987SOL    HW128638   7.762   0.580   6.667  0.9932 -1.7881 -2.8662
 8987SOL    HW228639   7.844   0.495   6.761 -0.2723 -0.7882 -0.8173
 8988SOL     OW28640   7.978   5.527   0.630  0.1597 -0.3229 -0.3170
 8988SOL    HW128641   8.040   5.468   0.671  1.2327  0.8544 -0.2094
 8988SOL    HW228642   7.900   5.524   0.686  1.5902  1.2476  1.8247
 8989SOL     OW28643   8.197   9.261   5.827 -0.3315  0.6616  0.3828
 8989SOL    HW128644   8.208   9.341   5.775 -2.1752  0.0304 -1.0267
 8989SOL    HW228645   8.238   9.192   5.774  1.8882  0.7550  1.9202
 8990SOL     OW28646   2.297   5.258   4.302  0.4327  0.2471 -0.4620
 8990SOL    HW128647   2.353   5.319   4.350 -1.6378  0.7895  1.3482
 8990SOL    HW228648   2.212   5.263   4.346  0.1512 -3.9074 -0.2833
 8991SOL     OW28649   8.928   8.220   4.104 -0.6527 -0.2413  0.2419
 8991SOL    HW128650   9.012   8.264   4.088 -0.1469 -0.7880  1.3612
 8991SOL    HW228651   8.865   8.271   4.052 -0.1376  1.9984  1.7269
 8992SOL     OW28652   6.830   1.413   1.449  0.5377  0.0850 -0.6260
 8992SOL    HW128653   6.747   1.439   1.409  1.3360  0.7522 -1.9374
 8992SOL    HW228654   6.825   1.318   1.458 -0.0935  0.0437 -1.3571
 8993SOL     OW28655   4.182   1.671   1.987 -0.2951  0.2751  0.0672
 8993SOL    HW128656   4.260   1.700   1.939 -1.0387  1.3364 -0.5165
 8993SOL    HW228657   4.164   1.742   2.049 -1.2603  0.4036 -0.3497
 8994SOL     OW28658   5.180   7.745   4.535 -0.5343 -0.7519 -0.1880
 8994SOL    HW128659   5.106   7.733   4.475 -1.5831 -2.2154  1.3475
 8994SOL    HW228660   5.140   7.770   4.618  0.8039 -0.2877  0.3398
 8995SOL     OW28661   2.482   2.033   4.951  0.0754  0.1697  0.5096
 8995SOL    HW128662   2.531   1.966   4.905 -0.9063  0.9803 -1.7592
 8995SOL    HW228663   2.406   2.051   4.896 -0.0583  2.6364  1.4036
 8996SOL     OW28664   1.993   3.168   7.861  0.3933 -0.0102 -0.1769
 8996SOL    HW128665   1.928   3.233   7.833 -0.1094 -0.5978 -0.3749
 8996SOL    HW228666   2.017   3.195   7.950 -0.4241 -0.0349  0.0468
 8997SOL     OW28667   6.165   1.541   3.459  0.3455  0.5663  0.1216
 8997SOL    HW128668   6.103   1.495   3.515  0.6530  0.3522  0.2931
 8997SOL    HW228669   6.250   1.502   3.482  0.5538  0.9312 -0.0307
 8998SOL     OW28670   5.967   7.560   5.774  0.1029 -0.2612  0.0257
 8998SOL    HW128671   6.033   7.629   5.769 -1.0709  0.7678 -1.5109
 8998SOL    HW228672   5.894   7.600   5.821 -0.8281 -0.2567 -1.4185
 8999SOL     OW28673   4.866   1.129   3.522 -0.3850  0.0949 -0.0700
 8999SOL    HW128674   4.959   1.116   3.501 -0.5325  0.0634 -0.7261
 8999SOL    HW228675   4.854   1.224   3.521  0.0198  0.1899  1.7426
 9000SOL     OW28676   2.699   4.918   2.354 -0.4686  0.2949 -0.2451
 9000SOL    HW128677   2.696   4.853   2.424 -0.7612 -0.7293 -1.1962
 9000SOL    HW228678   2.791   4.944   2.350 -0.9922  2.8753  2.7729
 9001SOL     OW28679   3.559   6.432   7.133 -0.0703 -0.0156  0.2175
 9001SOL    HW128680   3.528   6.477   7.055  2.5217  1.1304 -0.1992
 9001SOL    HW228681   3.643   6.394   7.107  0.0667 -0.9663  1.9858
 9002SOL     OW28682   4.131   4.574   0.143 -0.7348  0.8443 -0.4938
 9002SOL    HW128683   4.115   4.488   0.181 -1.9166  1.8327  1.2814
 9002SOL    HW228684   4.102   4.565   0.052 -0.7214 -0.6696 -0.3641
 9003SOL     OW28685   4.178   5.615   8.931 -0.2871 -0.2485  0.1637
 9003SOL    HW128686   4.267   5.624   8.964 -0.0505  0.0179 -0.5417
 9003SOL    HW228687   4.127   5.676   8.984  0.1088  0.2465 -0.0239
 9004SOL     OW28688   6.900   1.772   1.604  0.3808  0.1786  0.4693
 9004SOL    HW128689   6.939   1.810   1.525  0.2342  0.1827  0.3984
 9004SOL    HW228690   6.926   1.680   1.603 -1.2018 -0.2732 -0.5858
 9005SOL     OW28691   5.255   0.430   3.607 -0.0829 -0.5302 -0.6964
 9005SOL    HW128692   5.307   0.373   3.550  0.8160  0.2578 -0.6852
 9005SOL    HW228693   5.267   0.393   3.694  0.3345 -0.4574 -0.7180
 9006SOL     OW28694   7.457   6.742   8.017 -0.4654 -0.7367  0.3059
 9006SOL    HW128695   7.477   6.833   8.040 -0.8787 -0.6492  0.3190
 9006SOL    HW228696   7.517   6.690   8.069  0.1288 -0.4497 -0.0863
 9007SOL     OW28697   8.552   6.441   3.051 -0.0413  0.1304  0.0650
 9007SOL    HW128698   8.610   6.487   2.990 -0.4024  0.6666  0.1203
 9007SOL    HW228699   8.560   6.349   3.027  2.1804 -0.0151  1.1840
 9008SOL     OW28700   7.703   0.597   3.398  0.2638 -0.5102 -0.0731
 9008SOL    HW128701   7.647   0.641   3.334 -0.2256  0.0941  0.7612
 9008SOL    HW228702   7.709   0.659   3.471 -0.0036 -1.6166  0.8985
 9009SOL     OW28703   4.643   2.992   8.790 -0.0163 -0.0650  0.1655
 9009SOL    HW128704   4.719   3.034   8.749  1.4001 -2.5377  0.1274
 9009SOL    HW228705   4.640   3.028   8.878 -0.2663  1.8188 -0.5851
 9010SOL     OW28706   6.813   5.885   3.792 -0.0280  0.3904  0.6502
 9010SOL    HW128707   6.869   5.813   3.765 -1.7423 -0.9764  0.6886
 9010SOL    HW228708   6.850   5.914   3.876  0.3227 -0.8214  0.9180
 9011SOL     OW28709   4.256   0.714   8.123  0.1789  0.0415  0.3876
 9011SOL    HW128710   4.203   0.741   8.198 -1.0598 -0.8451 -0.1512
 9011SOL    HW228711   4.343   0.750   8.141 -0.4373  0.9655  1.6000
 9012SOL     OW28712   1.485   8.671   5.589 -0.4795  0.4080  0.1135
 9012SOL    HW128713   1.437   8.730   5.530 -0.6403  0.8298  0.6584
 9012SOL    HW228714   1.574   8.669   5.554 -1.3837 -2.0649 -2.1715
 9013SOL     OW28715   4.670   3.984   8.343  0.1166  0.5922 -0.0276
 9013SOL    HW128716   4.646   4.061   8.395  0.8877  0.0956  1.1024
 9013SOL    HW228717   4.744   4.013   8.289  0.1337  0.7656  0.0896
 9014SOL     OW28718   5.010   5.623   9.116  0.6868  0.0575  0.7028
 9014SOL    HW128719   4.923   5.623   9.077  0.3313 -0.6940  1.4710
 9014SOL    HW228720   5.061   5.562   9.063  0.9369  1.0126 -0.1539
 9015SOL     OW28721   0.238   0.714   5.313  0.1656  0.5998  0.3649
 9015SOL    HW128722   0.218   0.665   5.393 -1.2424  1.4172  0.5220
 9015SOL    HW228723   0.232   0.806   5.339  0.6300  0.8639 -0.4563
 9016SOL     OW28724   2.176   5.626   8.571 -0.1802 -0.1444  0.4884
 9016SOL    HW128725   2.203   5.694   8.509  2.2426  0.6045  2.2857
 9016SOL    HW228726   2.218   5.546   8.539 -2.4383 -0.7076 -1.2096
 9017SOL     OW28727   1.658   4.581   5.273 -0.0905  0.5368 -0.1691
 9017SOL    HW128728   1.650   4.637   5.350  1.6706  0.6700 -0.0578
 9017SOL    HW228729   1.680   4.495   5.309 -0.3604  0.3400 -0.4715
 9018SOL     OW28730   5.017   8.124   6.878 -0.1879  0.3022 -0.4284
 9018SOL    HW128731   4.980   8.146   6.793  1.4236  5.0261 -0.0694
 9018SOL    HW228732   4.989   8.196   6.936  1.2639 -1.2180  2.2831
 9019SOL     OW28733   3.239   1.188   4.662 -0.0663  0.1364  0.5778
 9019SOL    HW128734   3.255   1.248   4.588  0.6202 -0.3432  0.3336
 9019SOL    HW228735   3.151   1.154   4.646  1.4524 -2.7654 -2.0235
 9020SOL     OW28736   3.121   3.168   1.511  0.3089  0.2297  0.6236
 9020SOL    HW128737   3.077   3.121   1.440 -1.1232  3.8328 -1.0160
 9020SOL    HW228738   3.214   3.165   1.489 -0.0278  0.3438 -0.8219
 9021SOL     OW28739   7.839   1.410   9.163  0.3079  0.0209 -0.0125
 9021SOL    HW128740   7.826   1.497   9.125 -0.0822  0.3039  0.7605
 9021SOL    HW228741   7.891   1.363   9.098  1.2954  1.1217 -0.0271
 9022SOL     OW28742   0.962   6.449   5.001 -0.1218 -0.1238 -0.0091
 9022SOL    HW128743   0.953   6.529   4.949  2.2713 -0.7560 -1.4556
 9022SOL    HW228744   1.055   6.445   5.024 -0.0327 -2.9338 -0.6994
 9023SOL     OW28745   5.356   1.366   7.437 -0.5360  0.4713  0.2415
 9023SOL    HW128746   5.323   1.337   7.522 -0.1118  0.2228  0.3187
 9023SOL    HW228747   5.347   1.290   7.380 -1.8507  0.9584 -0.2296
 9024SOL     OW28748   2.346   3.185   3.860 -0.4458 -0.6093  0.3687
 9024SOL    HW128749   2.297   3.248   3.913  1.6960 -0.1530  1.8724
 9024SOL    HW228750   2.287   3.164   3.788 -1.5828  2.3942  0.3315
 9025SOL     OW28751   7.271   3.871   4.975 -0.0383 -0.2920 -0.1136
 9025SOL    HW128752   7.186   3.845   5.012 -0.5326  1.2990 -0.0815
 9025SOL    HW228753   7.264   3.852   4.882 -0.4394 -0.1570 -0.1121
 9026SOL     OW28754   6.785   1.401   8.057  0.7209  0.1721 -0.1706
 9026SOL    HW128755   6.697   1.376   8.084  0.1315 -0.6213 -2.6718
 9026SOL    HW228756   6.815   1.461   8.125 -1.0970 -0.8532  1.5803
 9027SOL     OW28757   3.143   1.250   5.431 -0.1603 -0.3633  0.1709
 9027SOL    HW128758   3.069   1.194   5.455 -0.8002  0.0653 -0.7713
 9027SOL    HW228759   3.168   1.293   5.513 -1.1580 -0.2678  0.4347
 9028SOL     OW28760   0.231   4.902   0.069  0.9486 -0.4221  0.0447
 9028SOL    HW128761   0.228   4.870   0.159 -0.2221 -0.4690  0.0008
 9028SOL    HW228762   0.236   4.823   0.015  0.8208 -0.4274  0.0403
 9029SOL     OW28763   5.648   1.571   5.479  0.1001  0.5406  0.6347
 9029SOL    HW128764   5.699   1.635   5.528 -0.1902  1.4493 -0.2328
 9029SOL    HW228765   5.682   1.577   5.389 -1.7888  1.4385 -0.0353
 9030SOL     OW28766   8.656   5.957   2.322 -0.0987 -0.2455 -0.4704
 9030SOL    HW128767   8.688   5.982   2.235  1.9882  1.1805  0.6657
 9030SOL    HW228768   8.625   6.039   2.361 -1.2746 -0.9185  0.0340
 9031SOL     OW28769   5.628   7.861   2.472  0.0206 -0.0987  0.2411
 9031SOL    HW128770   5.535   7.842   2.466 -0.0078 -0.2883  1.2850
 9031SOL    HW228771   5.642   7.933   2.409 -2.0263  4.3722  4.5526
 9032SOL     OW28772   5.023   0.827   6.487 -0.2487 -0.1807  0.0410
 9032SOL    HW128773   4.957   0.775   6.533 -1.0717 -1.6669 -2.7459
 9032SOL    HW228774   5.097   0.767   6.474 -0.2629  0.0383 -1.0953
 9033SOL     OW28775   6.204   1.204   8.331 -0.5438  0.3293 -0.3888
 9033SOL    HW128776   6.205   1.299   8.341  1.2772  0.4173 -1.3283
 9033SOL    HW228777   6.225   1.189   8.239  0.0718 -1.0149 -0.0331
 9034SOL     OW28778   8.762   5.861   7.537  0.2774  0.5251  0.5721
 9034SOL    HW128779   8.753   5.814   7.620  0.0660  0.2671  0.4038
 9034SOL    HW228780   8.812   5.939   7.559  0.6296  0.2227  0.8570
 9035SOL     OW28781   8.074   7.346   0.971 -0.2031  0.3103  0.1788
 9035SOL    HW128782   8.142   7.397   0.926 -0.6865  0.9259  0.1404
 9035SOL    HW228783   8.038   7.406   1.036 -0.5626 -0.0814  0.3394
 9036SOL     OW28784   2.390   0.809   2.306  0.2519  0.1318  0.3875
 9036SOL    HW128785   2.413   0.764   2.387  0.7293  0.0194  0.1911
 9036SOL    HW228786   2.433   0.759   2.237 -1.6141 -0.8138 -0.1167
 9037SOL     OW28787   2.136   3.784   6.280  0.1861 -0.1728  0.2315
 9037SOL    HW128788   2.164   3.736   6.203  1.1661  0.5591  0.1219
 9037SOL    HW228789   2.064   3.840   6.249 -1.2998 -1.8968  0.4716
 9038SOL     OW28790   4.465   3.116   3.602  0.0375  0.3428 -0.1082
 9038SOL    HW128791   4.478   3.022   3.616 -1.8679  0.2867  1.4078
 9038SOL    HW228792   4.507   3.133   3.517 -1.8964 -2.4034 -1.7038
 9039SOL     OW28793   8.419   4.781   4.335 -0.6901 -0.7750 -0.9390
 9039SOL    HW128794   8.463   4.826   4.407 -0.5293 -3.6543  0.8331
 9039SOL    HW228795   8.331   4.762   4.367 -1.0404 -0.9751 -1.9770
 9040SOL     OW28796   5.888   0.699   2.059 -0.4125  0.4587 -0.1613
 9040SOL    HW128797   5.951   0.657   2.118  0.5311  1.3170 -0.5281
 9040SOL    HW228798   5.892   0.648   1.979 -0.7100  0.0901  0.0564
 9041SOL     OW28799   7.228   7.730   2.859  0.1507 -0.1690 -0.5750
 9041SOL    HW128800   7.245   7.824   2.871 -0.1990 -0.1553 -0.1918
 9041SOL    HW228801   7.259   7.690   2.940  0.3712 -0.3924 -0.7724
 9042SOL     OW28802   3.614   5.469   0.518 -0.0855 -0.3676 -0.5165
 9042SOL    HW128803   3.586   5.396   0.573 -0.2588  0.9875  1.2438
 9042SOL    HW228804   3.549   5.538   0.534  0.9350  0.7217 -0.9576
 9043SOL     OW28805   4.168   3.573   5.273  0.3348  0.9482 -0.2133
 9043SOL    HW128806   4.206   3.661   5.279  0.8795  0.6641  0.6545
 9043SOL    HW228807   4.205   3.536   5.193  0.9579  1.1230 -0.0104
 9044SOL     OW28808   4.706   4.052   3.731 -0.2545  0.0799 -0.4096
 9044SOL    HW128809   4.769   4.001   3.781  0.7509  0.7187 -0.9952
 9044SOL    HW228810   4.640   4.080   3.794  0.2453 -0.2948  0.2730
 9045SOL     OW28811   5.551   6.317   8.651 -0.3174 -0.3443 -0.2091
 9045SOL    HW128812   5.540   6.370   8.572 -1.1487 -0.2465 -0.0248
 9045SOL    HW228813   5.621   6.361   8.700  1.6968 -1.5823 -1.8778
 9046SOL     OW28814   2.625   1.855   8.144 -0.0466  0.1994 -0.3825
 9046SOL    HW128815   2.665   1.870   8.058  1.2382  0.4046  0.2413
 9046SOL    HW228816   2.563   1.928   8.154 -0.3997  0.0334 -1.2274
 9047SOL     OW28817   2.104   5.131   8.318  0.1598  0.2265 -0.1684
 9047SOL    HW128818   2.113   5.138   8.223 -1.0699 -1.5342 -0.4348
 9047SOL    HW228819   2.062   5.046   8.332  1.8740 -0.3200  2.0391
 9048SOL     OW28820   3.131   8.995   1.096 -0.1797  0.1295 -0.3386
 9048SOL    HW128821   3.184   8.916   1.097 -0.9840 -0.4043  0.8267
 9048SOL    HW228822   3.190   9.064   1.126  0.5098 -0.0127 -1.3138
 9049SOL     OW28823   5.752   4.769   2.522 -0.2970  0.1095 -0.6189
 9049SOL    HW128824   5.712   4.781   2.608  0.6805 -0.8905 -0.0153
 9049SOL    HW228825   5.731   4.850   2.474  0.3276  1.2470  1.0150
 9050SOL     OW28826   4.977   0.399   7.602 -0.0630  0.6212 -0.0077
 9050SOL    HW128827   4.902   0.343   7.584  0.3523  0.5664 -1.6559
 9050SOL    HW228828   5.023   0.405   7.518  1.4445  1.1370  0.8329
 9051SOL     OW28829   4.709   0.145   9.049  0.2716  0.1006 -0.1266
 9051SOL    HW128830   4.670   0.161   8.963  0.7642  2.1153  0.0015
 9051SOL    HW228831   4.654   0.193   9.110 -0.5330 -1.9750  0.7955
 9052SOL     OW28832   4.056   5.001   1.638  0.4385 -0.7600 -0.7145
 9052SOL    HW128833   4.122   5.035   1.577  0.8955  0.9800  0.7106
 9052SOL    HW228834   3.989   5.069   1.640  1.8326  0.6413  2.9281
 9053SOL     OW28835   4.486   5.289   7.330 -0.7570 -0.1780 -0.3010
 9053SOL    HW128836   4.556   5.334   7.283 -0.1966 -0.8242 -0.0928
 9053SOL    HW228837   4.461   5.217   7.272  0.1027 -1.1233  0.4859
 9054SOL     OW28838   7.129   8.571   0.522  0.7363  0.0083  0.2923
 9054SOL    HW128839   7.036   8.579   0.501  0.3590  0.6192  2.1152
 9054SOL    HW228840   7.164   8.659   0.512  0.7182  0.1474  1.4400
 9055SOL     OW28841   2.773   6.513   5.131 -0.4800  0.6681  0.5058
 9055SOL    HW128842   2.863   6.528   5.102 -0.7392 -0.6161 -1.0124
 9055SOL    HW228843   2.779   6.441   5.194 -0.5650 -0.1104 -0.3705
 9056SOL     OW28844   4.166   3.821   0.908 -0.0956 -0.3869  0.6757
 9056SOL    HW128845   4.140   3.733   0.936 -0.0322 -0.4312  0.5958
 9056SOL    HW228846   4.086   3.861   0.874 -0.3590 -0.0194  1.7304
 9057SOL     OW28847   5.615   0.261   5.061  0.6624 -0.1804  0.2620
 9057SOL    HW128848   5.550   0.197   5.032  0.4560 -0.3802  1.1673
 9057SOL    HW228849   5.650   0.297   4.979 -0.0831 -0.5717 -0.2421
 9058SOL     OW28850   3.060   2.374   7.870  0.0252  0.5407  0.0394
 9058SOL    HW128851   3.068   2.360   7.776 -0.1753 -2.4216  0.4364
 9058SOL    HW228852   2.999   2.306   7.900  1.4033  0.3416  2.5727
 9059SOL     OW28853   1.441   4.901   0.479 -0.9016  0.2178 -0.5436
 9059SOL    HW128854   1.467   4.880   0.569  0.6720 -1.0964 -1.2861
 9059SOL    HW228855   1.349   4.876   0.474 -0.1212 -2.9918 -0.2520
 9060SOL     OW28856   2.854   1.773   7.301 -0.0461 -0.2407 -0.6634
 9060SOL    HW128857   2.861   1.783   7.396 -3.3292  0.7725 -0.4769
 9060SOL    HW228858   2.851   1.678   7.287  2.5012 -0.4704  0.0085
 9061SOL     OW28859   8.282   2.607   3.556  0.1819 -0.2472  0.7871
 9061SOL    HW128860   8.226   2.581   3.629 -0.0855 -0.7532  0.4070
 9061SOL    HW228861   8.324   2.688   3.585 -1.9399  1.0004  0.4891
 9062SOL     OW28862   0.524   3.275   7.595  0.3271  0.2015  0.0009
 9062SOL    HW128863   0.582   3.225   7.653 -1.3762 -0.0231  1.5467
 9062SOL    HW228864   0.443   3.225   7.592 -0.6185  1.7121 -0.2719
 9063SOL     OW28865   6.706   2.555   2.962 -0.2668  0.4790  0.0816
 9063SOL    HW128866   6.780   2.496   2.952  0.2359  0.8846  1.2672
 9063SOL    HW228867   6.710   2.612   2.886  0.0889 -0.0965 -0.3317
 9064SOL     OW28868   5.561   8.154   0.163  0.0574  0.0032 -0.2211
 9064SOL    HW128869   5.498   8.085   0.142  0.5956 -0.0782 -1.6043
 9064SOL    HW228870   5.644   8.124   0.125  1.0393 -0.0706  1.9098
 9065SOL     OW28871   5.704   3.962   5.504  0.3966 -0.1784 -0.6195
 9065SOL    HW128872   5.775   4.009   5.460  2.2854 -1.2814  1.1711
 9065SOL    HW228873   5.717   3.980   5.597 -1.1751 -1.1081 -0.1882
 9066SOL     OW28874   4.659   5.679   6.389  0.7147 -0.4048  0.2487
 9066SOL    HW128875   4.631   5.759   6.344 -1.2965 -1.0201  0.3651
 9066SOL    HW228876   4.657   5.702   6.482  2.3287  0.0709  0.1832
 9067SOL     OW28877   1.602   1.473   3.973 -0.0676  0.4277  0.0199
 9067SOL    HW128878   1.534   1.464   4.039 -0.0549 -0.6762 -0.1052
 9067SOL    HW228879   1.651   1.390   3.978  0.1033  0.4490 -1.1678
 9068SOL     OW28880   6.344   0.473   0.880  0.0366 -0.3751  0.3047
 9068SOL    HW128881   6.288   0.548   0.858 -0.2734 -0.6973 -0.0112
 9068SOL    HW228882   6.330   0.411   0.809  0.4560 -0.6453  0.4587
 9069SOL     OW28883   6.824   5.970   8.371  0.2531 -0.7794  0.9084
 9069SOL    HW128884   6.803   6.046   8.425 -1.3758 -0.3593 -0.2784
 9069SOL    HW228885   6.876   6.004   8.299  0.3288 -0.9375  0.8889
 9070SOL     OW28886   0.453   2.575   8.672 -0.1539  0.0933 -0.8372
 9070SOL    HW128887   0.372   2.582   8.622  0.2183  0.7120 -1.3627
 9070SOL    HW228888   0.521   2.558   8.607  0.2020 -0.0120 -0.4476
 9071SOL     OW28889   1.923   1.210   4.792  0.1263 -0.3086  0.1938
 9071SOL    HW128890   1.913   1.207   4.887  0.5962  0.5091  0.2770
 9071SOL    HW228891   1.863   1.144   4.759 -0.7236  0.0483  1.0140
 9072SOL     OW28892   6.058   8.852   2.354  0.4367 -0.1288 -0.1315
 9072SOL    HW128893   6.120   8.913   2.313  0.1895  1.1757  1.3754
 9072SOL    HW228894   6.112   8.777   2.379  1.1435  0.3847 -0.0993
 9073SOL     OW28895   6.071   8.909   5.808 -0.0353 -0.3129 -0.1609
 9073SOL    HW128896   6.017   8.981   5.841  1.0283  1.1429 -1.5591
 9073SOL    HW228897   6.011   8.855   5.756 -0.2732  0.9760 -1.2312
 9074SOL     OW28898   1.590   3.936   9.157 -0.1824 -0.4232 -0.2011
 9074SOL    HW128899   1.682   3.947   9.131 -0.2937  1.1453  0.0125
 9074SOL    HW228900   1.591   3.862   9.217  0.8842 -0.7114 -0.5583
 9075SOL     OW28901   4.565   1.678   0.413 -0.1427 -0.0210  0.0358
 9075SOL    HW128902   4.497   1.614   0.392  1.0222 -1.7319  1.4001
 9075SOL    HW228903   4.584   1.721   0.329 -2.0585 -0.3255 -0.5756
 9076SOL     OW28904   6.731   3.470   8.915 -0.5189  0.7440  0.3417
 9076SOL    HW128905   6.769   3.464   8.827  0.6420 -0.4974  0.9191
 9076SOL    HW228906   6.652   3.415   8.910  1.2016 -1.8860  0.9078
 9077SOL     OW28907   3.382   8.243   1.446  0.4452 -0.2611  0.2631
 9077SOL    HW128908   3.360   8.149   1.448  1.3078 -0.4659  0.2211
 9077SOL    HW228909   3.472   8.247   1.478  0.8207  0.4333 -0.8644
 9078SOL     OW28910   4.832   4.948   6.036 -0.2970  0.2841 -0.2358
 9078SOL    HW128911   4.824   5.016   5.969  0.1560  0.5844  0.0097
 9078SOL    HW228912   4.751   4.954   6.086 -0.5358  0.2147 -0.6119
 9079SOL     OW28913   3.615   4.762   6.214 -0.4607  0.0816 -0.0231
 9079SOL    HW128914   3.535   4.814   6.214 -1.0579 -0.8041  1.1540
 9079SOL    HW228915   3.597   4.690   6.154  0.5816  1.5337 -2.1081
 9080SOL     OW28916   4.620   0.758   3.924 -0.3760 -0.0072  0.0275
 9080SOL    HW128917   4.676   0.680   3.924 -0.8941 -0.3869  0.5781
 9080SOL    HW228918   4.663   0.818   3.985 -0.8414 -0.5124  0.8780
 9081SOL     OW28919   6.876   0.965   8.398  0.2572 -0.0495 -0.2156
 9081SOL    HW128920   6.945   0.933   8.456  0.1617 -0.4003 -0.2946
 9081SOL    HW228921   6.834   1.035   8.448  0.3432 -0.1743  0.0359
 9082SOL     OW28922   4.787   1.199   3.983 -0.1501  0.1198  0.2934
 9082SOL    HW128923   4.763   1.171   3.895  0.2412  1.6432 -0.3114
 9082SOL    HW228924   4.812   1.291   3.973 -1.0381  0.5763  2.1565
 9083SOL     OW28925   0.715   3.654   7.573  0.0705 -0.2480  0.3447
 9083SOL    HW128926   0.684   3.621   7.658  0.5215 -0.0210  0.5978
 9083SOL    HW228927   0.635   3.678   7.526 -0.1406  0.3235  0.9916
 9084SOL     OW28928   0.185   7.058   8.644  0.0727 -0.6930  0.7753
 9084SOL    HW128929   0.126   7.074   8.571 -0.2295 -1.6901  0.7886
 9084SOL    HW228930   0.248   6.993   8.611 -0.6156 -1.8475  1.6656
 9085SOL     OW28931   5.450   0.069   4.000  0.4936  0.4042 -0.1972
 9085SOL    HW128932   5.372   0.015   4.011  0.0597  1.1206  0.2615
 9085SOL    HW228933   5.450   0.128   4.075  2.1602 -0.4209  0.4989
 9086SOL     OW28934   5.442   4.019   5.759  0.0466 -0.0662  0.4578
 9086SOL    HW128935   5.452   3.925   5.772  0.8382 -0.0523 -0.0206
 9086SOL    HW228936   5.440   4.030   5.664  1.3967  0.5351  0.4851
 9087SOL     OW28937   8.386   3.305   5.336  0.2324  0.0889 -0.0771
 9087SOL    HW128938   8.308   3.325   5.389 -0.6510 -3.1666 -0.0505
 9087SOL    HW228939   8.359   3.322   5.246 -0.6936 -1.4786 -0.1086
 9088SOL     OW28940   0.011   3.078   0.467 -0.3607  0.1558  0.2399
 9088SOL    HW128941  -0.072   3.107   0.431  0.8251  2.6817 -0.5611
 9088SOL    HW228942   0.011   3.110   0.557 -0.1245  0.3877  0.1559
 9089SOL     OW28943   2.746   0.124   8.721  0.6905 -0.1365  0.0820
 9089SOL    HW128944   2.667   0.140   8.668  0.1116  0.9546  1.2485
 9089SOL    HW228945   2.814   0.105   8.657 -0.1518  0.4921 -1.0294
 9090SOL     OW28946   3.892   4.974   6.688 -0.0142 -0.3207  0.5248
 9090SOL    HW128947   3.839   4.900   6.718 -1.1015  0.1649 -0.1952
 9090SOL    HW228948   3.976   4.934   6.664  0.1588 -1.0203  2.1500
 9091SOL     OW28949   6.476   0.325   8.661  0.2299 -0.0596  0.2429
 9091SOL    HW128950   6.506   0.415   8.673 -1.5163  0.3906  1.4399
 9091SOL    HW228951   6.392   0.321   8.706 -0.1415 -2.0597 -0.5441
 9092SOL     OW28952   4.704   2.813   6.385 -0.5585 -0.3595  0.3004
 9092SOL    HW128953   4.696   2.733   6.333  3.0024 -0.3767 -0.3921
 9092SOL    HW228954   4.748   2.785   6.465 -0.1753  0.7252  0.4844
 9093SOL     OW28955   1.872   0.827   8.176 -0.2439 -0.1648  0.0573
 9093SOL    HW128956   1.899   0.917   8.158 -1.0235 -0.3163 -1.9860
 9093SOL    HW228957   1.941   0.791   8.231  0.6659  1.3060 -0.1103
 9094SOL     OW28958   6.453   6.564   8.195 -0.2869  0.5311 -0.5458
 9094SOL    HW128959   6.440   6.564   8.290 -0.5248  0.9591 -0.5786
 9094SOL    HW228960   6.495   6.648   8.177 -0.7153  0.6723 -0.8844
 9095SOL     OW28961   3.689   7.535   7.983 -0.0435  0.2814 -0.7098
 9095SOL    HW128962   3.710   7.627   7.995 -2.1480  0.8674 -1.3907
 9095SOL    HW228963   3.600   7.534   7.948 -0.8520 -2.0812  1.2416
 9096SOL     OW28964   7.789   4.155   6.666  0.6122  0.0438  0.4822
 9096SOL    HW128965   7.864   4.203   6.630  0.6326  0.1422  0.6536
 9096SOL    HW228966   7.810   4.063   6.652  0.7111  0.0748  0.4222
 9097SOL     OW28967   9.026   2.316   8.801 -0.7255 -0.1173  0.0994
 9097SOL    HW128968   8.958   2.292   8.865 -1.2845 -0.5823 -0.6599
 9097SOL    HW228969   9.091   2.247   8.810 -0.7297 -0.0986  0.2761
 9098SOL     OW28970   3.221   4.602   7.802 -0.7660  0.4048 -0.3337
 9098SOL    HW128971   3.205   4.636   7.714 -0.2133  1.3938 -0.0662
 9098SOL    HW228972   3.317   4.606   7.812 -0.9280  1.8512  0.9062
 9099SOL     OW28973   2.203   8.960   4.501  0.1676 -0.1216  0.5882
 9099SOL    HW128974   2.220   8.986   4.592  0.9320  0.4150  0.2990
 9099SOL    HW228975   2.247   9.027   4.449 -0.6379 -0.1874 -0.1812
 9100SOL     OW28976   2.402   7.607   0.007  1.3708  0.0194 -0.1269
 9100SOL    HW128977   2.451   7.689   0.018  1.0921 -0.0386  1.6657
 9100SOL    HW228978   2.310   7.633   0.018  1.1167 -0.1622 -1.7630
 9101SOL     OW28979   5.071   6.961   8.806  0.4451  0.4586  0.7991
 9101SOL    HW128980   5.164   6.981   8.795  0.5071 -0.2792 -0.0907
 9101SOL    HW228981   5.036   7.035   8.856  1.5746  0.5806  1.4348
 9102SOL     OW28982   4.552   4.167   3.226 -0.7011 -0.1206  0.0954
 9102SOL    HW128983   4.602   4.176   3.307  0.9860 -0.2785 -0.9004
 9102SOL    HW228984   4.617   4.179   3.156 -2.1884  0.4155 -1.2386
 9103SOL     OW28985   2.989   5.698   8.379  0.1072  0.2133  0.0428
 9103SOL    HW128986   2.989   5.784   8.336  0.5660  0.1354 -0.1254
 9103SOL    HW228987   2.954   5.714   8.466  1.8066  0.9043  0.6330
 9104SOL     OW28988   8.410   4.488   7.251  0.3383  0.0328  0.2686
 9104SOL    HW128989   8.466   4.416   7.277  1.0362  0.6513  0.4717
 9104SOL    HW228990   8.435   4.507   7.160  0.7897  0.6166  0.5119
 9105SOL     OW28991   0.014   1.648   2.323  0.4202  0.3520 -0.4374
 9105SOL    HW128992   0.032   1.741   2.336 -1.4826  0.6554  0.0822
 9105SOL    HW228993   0.094   1.604   2.353  2.7993  1.9654 -4.0203
 9106SOL     OW28994   8.979   3.947   1.918  0.3652 -0.6768 -0.4485
 9106SOL    HW128995   8.886   3.960   1.936  0.4299  0.3340 -0.7886
 9106SOL    HW228996   8.990   3.853   1.910 -0.6740 -0.7811 -0.6242
 9107SOL     OW28997   0.735   8.798   8.915  0.0022 -0.0547 -0.0061
 9107SOL    HW128998   0.813   8.798   8.971  1.0112 -1.7935 -1.3585
 9107SOL    HW228999   0.693   8.714   8.933 -0.5814  0.1018 -0.6333
 9108SOL     OW29000   7.919   2.896   9.262 -0.3310  0.3555 -0.1730
 9108SOL    HW129001   7.980   2.968   9.242  1.3006 -1.4248 -1.8709
 9108SOL    HW229002   7.895   2.861   9.176 -1.1628 -1.0855  0.6346
 9109SOL     OW29003   8.659   7.219   8.669  0.7289  0.3376  0.4037
 9109SOL    HW129004   8.691   7.230   8.758  1.7262 -2.4479  0.4707
 9109SOL    HW229005   8.723   7.160   8.628 -2.3235 -2.4693 -0.5848
 9110SOL     OW29006   0.413   6.903   2.076 -0.1859  0.0540 -0.0051
 9110SOL    HW129007   0.508   6.904   2.069 -0.0081 -1.4385  1.7282
 9110SOL    HW229008   0.395   6.932   2.166 -1.4249  1.3765 -0.6541
 9111SOL     OW29009   9.098   6.057   7.572 -0.8053  0.4447 -0.3741
 9111SOL    HW129010   9.011   6.064   7.532 -1.0055  2.7558  0.3911
 9111SOL    HW229011   9.127   6.148   7.582  1.8155 -0.2981 -0.8390
 9112SOL     OW29012   4.265   3.927   8.079 -0.7038  0.3734  0.0155
 9112SOL    HW129013   4.325   3.979   8.025 -0.4222 -0.7230 -0.7394
 9112SOL    HW229014   4.292   3.946   8.169  0.0679  0.7429 -0.2887
 9113SOL     OW29015   4.456   2.741   1.526  0.5815 -0.3248  0.0148
 9113SOL    HW129016   4.394   2.685   1.572  0.9781 -1.4071 -0.7304
 9113SOL    HW229017   4.402   2.795   1.468 -0.0189  1.8355  2.4958
 9114SOL     OW29018   0.430   1.048   7.424  0.7328  0.2165  0.1330
 9114SOL    HW129019   0.364   1.093   7.476  1.3851 -1.2932  2.3524
 9114SOL    HW229020   0.506   1.042   7.482  1.6907 -0.9901 -1.2106
 9115SOL     OW29021   1.284   7.466   1.090  0.0692  0.5660 -0.0282
 9115SOL    HW129022   1.211   7.417   1.051 -0.3823  0.8211  0.4956
 9115SOL    HW229023   1.327   7.403   1.147  0.6744  0.2180 -0.8522
 9116SOL     OW29024   8.866   8.576   7.143 -0.3024  0.3063  0.0535
 9116SOL    HW129025   8.900   8.497   7.101 -0.9210  0.3483 -0.5469
 9116SOL    HW229026   8.934   8.642   7.129  0.4045 -0.2364  0.9348
 9117SOL     OW29027   4.512   2.883   1.236 -0.7659  0.4628 -0.0688
 9117SOL    HW129028   4.579   2.952   1.235 -0.8891  0.6034 -2.1883
 9117SOL    HW229029   4.429   2.930   1.237 -0.8377  0.3377 -0.1077
 9118SOL     OW29030   7.741   3.437   7.533 -0.1615 -1.0467  0.0178
 9118SOL    HW129031   7.815   3.488   7.569 -0.3962 -1.6030  1.3304
 9118SOL    HW229032   7.672   3.502   7.518  0.2374 -0.6799 -0.2287
 9119SOL     OW29033   1.136   5.117   5.100  0.5229  0.4017 -0.2193
 9119SOL    HW129034   1.044   5.134   5.122  0.3029  2.0805 -2.3390
 9119SOL    HW229035   1.175   5.203   5.088  2.3987 -0.2973  0.6353
 9120SOL     OW29036   6.773   1.713   0.382 -0.2277  0.0467  0.4380
 9120SOL    HW129037   6.850   1.759   0.348  0.5457 -0.8726  0.9405
 9120SOL    HW229038   6.807   1.657   0.452 -1.3266 -0.4931  0.5487
 9121SOL     OW29039   4.735   1.554   6.839 -0.4438 -0.6323  0.6032
 9121SOL    HW129040   4.764   1.644   6.823 -0.8537 -0.1737  2.3569
 9121SOL    HW229041   4.810   1.510   6.877 -0.1287 -1.1468 -0.5922
 9122SOL     OW29042   9.130   5.580   5.160  0.3156  0.4836  0.1837
 9122SOL    HW129043   9.063   5.555   5.223  0.1596 -0.0033 -0.1745
 9122SOL    HW229044   9.213   5.554   5.202  0.2377  0.4483  0.3156
 9123SOL     OW29045   5.181   0.768   3.147  0.2985  0.9231 -0.2648
 9123SOL    HW129046   5.180   0.673   3.148  1.2533  0.9161  1.0059
 9123SOL    HW229047   5.150   0.794   3.234 -1.0366  1.7938 -0.9780
 9124SOL     OW29048   7.272   1.924   7.561 -0.0893 -0.3880  0.0658
 9124SOL    HW129049   7.199   1.976   7.593 -1.2609 -1.9801  0.0405
 9124SOL    HW229050   7.232   1.860   7.502  0.9152 -3.0508  2.1674
 9125SOL     OW29051   8.549   3.206   8.685  0.3348  0.3242  0.2410
 9125SOL    HW129052   8.478   3.270   8.682 -0.0828 -0.1758 -1.4366
 9125SOL    HW229053   8.507   3.123   8.661  1.4956  0.0319 -0.8161
 9126SOL     OW29054   7.082   8.470   9.173 -0.5003  0.2195  0.7956
 9126SOL    HW129055   7.058   8.529   9.102 -0.7498  0.2057  0.8665
 9126SOL    HW229056   7.060   8.518   9.253 -1.3987 -0.2484  0.8463
 9127SOL     OW29057   4.440   5.369   4.496  0.3338  0.2378 -0.1209
 9127SOL    HW129058   4.491   5.301   4.541 -1.6103 -2.2196 -1.5060
 9127SOL    HW229059   4.503   5.411   4.438  1.4171 -0.8760  0.2100
 9128SOL     OW29060   5.636   5.365   7.080 -0.2054 -0.6700  0.1885
 9128SOL    HW129061   5.649   5.442   7.024  0.7478  0.3891  1.8150
 9128SOL    HW229062   5.633   5.291   7.019  2.0128  0.3123 -1.1871
 9129SOL     OW29063   6.853   4.844   8.113  0.1781  0.4031 -0.4371
 9129SOL    HW129064   6.931   4.894   8.091  0.2088 -0.0131 -1.2802
 9129SOL    HW229065   6.882   4.782   8.180  0.9253 -0.7287 -1.7692
 9130SOL     OW29066   5.074   5.409   1.946 -0.9321  0.2102  0.0531
 9130SOL    HW129067   5.108   5.465   1.877 -0.3021  0.9679  0.9595
 9130SOL    HW229068   5.020   5.468   2.000 -1.1890 -0.3000  0.3588
 9131SOL     OW29069   3.904   4.260   3.233 -0.6472  0.1754 -0.0306
 9131SOL    HW129070   3.894   4.342   3.280 -1.6314 -0.2713  0.5499
 9131SOL    HW229071   3.907   4.193   3.302  0.5655 -0.2359 -0.4750
 9132SOL     OW29072   7.115   4.031   1.126  0.1388 -0.3130 -0.4654
 9132SOL    HW129073   7.076   4.074   1.050  1.1699 -1.8806 -1.9179
 9132SOL    HW229074   7.059   3.956   1.144  0.4080 -0.4670 -0.2544
 9133SOL     OW29075   8.564   8.725   1.095  0.1830  0.1740 -0.5932
 9133SOL    HW129076   8.515   8.694   1.019  0.4557 -2.0116  0.1033
 9133SOL    HW229077   8.499   8.773   1.147 -0.2255  0.8403 -1.6855
 9134SOL     OW29078   0.778   7.989   5.862 -0.2292  0.1738  0.0320
 9134SOL    HW129079   0.821   7.935   5.796  0.6996 -0.7816  1.3681
 9134SOL    HW229080   0.686   7.990   5.837 -0.4528 -2.8972  0.4965
 9135SOL     OW29081   1.322   0.856   7.058 -0.4566  0.4825 -0.1990
 9135SOL    HW129082   1.389   0.789   7.071 -1.0036 -0.0862 -0.3119
 9135SOL    HW229083   1.369   0.939   7.066  0.2486  0.0829 -0.2110
 9136SOL     OW29084   6.862   3.589   5.050  0.0028  0.4689 -0.1637
 9136SOL    HW129085   6.794   3.651   5.024  0.1507  0.7322  0.0777
 9136SOL    HW229086   6.820   3.503   5.045 -0.4775  0.6709  0.4261
 9137SOL     OW29087   7.379   4.800   6.969 -0.5028 -0.1466 -0.8198
 9137SOL    HW129088   7.415   4.731   6.913 -1.4876 -0.9775 -0.4611
 9137SOL    HW229089   7.426   4.789   7.052  0.1283  0.3380 -1.1052
 9138SOL     OW29090   2.061   8.579   0.814 -0.0115 -0.0572  0.0975
 9138SOL    HW129091   2.049   8.500   0.865  1.5051 -0.0789  0.4504
 9138SOL    HW229092   2.086   8.646   0.878  0.3584  0.2926 -0.4015
 9139SOL     OW29093   3.263   6.886   4.571 -0.3455 -0.1114 -0.7874
 9139SOL    HW129094   3.273   6.906   4.478 -1.6915  0.6515 -0.7759
 9139SOL    HW229095   3.251   6.971   4.613 -0.9445 -0.5403 -0.0818
 9140SOL     OW29096   6.018   1.876   3.161  0.2723 -0.6565 -0.2181
 9140SOL    HW129097   5.970   1.801   3.194  0.2361 -0.6400 -0.2326
 9140SOL    HW229098   6.055   1.846   3.078 -0.7338 -0.2810 -0.8050
 9141SOL     OW29099   6.963   0.781   5.115 -0.1511 -0.0666  0.3016
 9141SOL    HW129100   7.017   0.711   5.080 -0.0834 -0.9038  2.0240
 9141SOL    HW229101   7.025   0.851   5.137  0.0530 -0.3885  0.7556
 9142SOL     OW29102   1.049   3.035   2.658 -0.2909 -0.0387 -0.4650
 9142SOL    HW129103   1.041   3.072   2.746 -1.0833 -0.3946 -0.3909
 9142SOL    HW229104   1.027   2.943   2.668 -0.0134 -0.1667 -0.9736
 9143SOL     OW29105   6.220   9.257   5.465  0.4165  0.5811 -0.2356
 9143SOL    HW129106   6.195   9.173   5.503  0.4629  0.5820 -0.2014
 9143SOL    HW229107   6.158   9.320   5.501  0.7383  0.6569  0.1932
 9144SOL     OW29108   1.851   2.582   2.331 -0.2950  0.1500  0.3323
 9144SOL    HW129109   1.870   2.543   2.245 -2.4564  0.8196 -0.4900
 9144SOL    HW229110   1.930   2.632   2.352  0.2807 -0.0480 -1.2620
 9145SOL     OW29111   3.000   7.632   1.012  0.1410 -0.0025 -0.4847
 9145SOL    HW129112   2.977   7.615   0.921  0.2436 -0.9155 -0.3381
 9145SOL    HW229113   3.096   7.634   1.013  0.1495 -0.4094 -0.3231
 9146SOL     OW29114   6.867   8.037   9.252  0.6015  0.3928 -0.3995
 9146SOL    HW129115   6.836   8.123   9.281  0.2055 -0.0076  0.3685
 9146SOL    HW229116   6.957   8.054   9.223  0.4529  1.1122 -0.4607
 9147SOL     OW29117   5.856   8.714   4.747 -0.4523  0.1165 -1.1472
 9147SOL    HW129118   5.887   8.638   4.796 -1.3334 -0.6887 -1.8365
 9147SOL    HW229119   5.903   8.788   4.785 -1.5478 -0.4156  1.3411
 9148SOL     OW29120   3.399   6.392   1.297  0.0012  0.0690 -0.1613
 9148SOL    HW129121   3.317   6.441   1.293 -0.1784 -0.2816 -0.8150
 9148SOL    HW229122   3.463   6.452   1.258  0.1444  0.5082  0.7339
 9149SOL     OW29123   2.345   1.264   2.985  0.5173 -0.1166 -0.0988
 9149SOL    HW129124   2.424   1.265   3.039 -0.8240 -0.5352  1.9042
 9149SOL    HW229125   2.344   1.177   2.945  0.5217 -0.4880  0.7054
 9150SOL     OW29126   1.489   5.027   5.743  0.2138 -0.0743  0.4255
 9150SOL    HW129127   1.479   4.948   5.796  0.5618 -0.8793 -0.6782
 9150SOL    HW229128   1.583   5.043   5.741  0.0696  0.9461  1.4552
 9151SOL     OW29129   3.075   4.593   0.735 -0.0764 -0.0805 -0.3315
 9151SOL    HW129130   3.093   4.517   0.791 -0.7523 -0.9566 -1.2794
 9151SOL    HW229131   3.151   4.650   0.747  0.4615 -0.9231  0.3685
 9152SOL     OW29132   2.452   8.677   4.781 -0.1649  0.0427 -0.3436
 9152SOL    HW129133   2.457   8.771   4.764 -0.5565  0.2017  0.4298
 9152SOL    HW229134   2.359   8.658   4.788 -0.0588 -0.2653  0.2876
 9153SOL     OW29135   9.252   2.326   3.727 -0.5810  0.3429 -0.8059
 9153SOL    HW129136   9.327   2.267   3.738 -1.2805 -0.8252 -2.1272
 9153SOL    HW229137   9.205   2.319   3.811  0.5031  0.6837 -0.1646
 9154SOL     OW29138   2.288   2.556   4.960 -0.0233  0.1638  0.3426
 9154SOL    HW129139   2.300   2.569   5.054  0.5964 -0.8505  0.4094
 9154SOL    HW229140   2.236   2.631   4.932 -1.2253 -0.1496  1.7065
 9155SOL     OW29141   2.421   8.329   8.017  0.1549 -0.0487 -0.3493
 9155SOL    HW129142   2.503   8.347   7.971 -1.2087  1.5629 -2.2187
 9155SOL    HW229143   2.398   8.412   8.058  0.2984 -0.9420  1.6194
 9156SOL     OW29144   2.350   6.572   3.753  0.1922  0.2912 -0.6944
 9156SOL    HW129145   2.423   6.521   3.719  1.3494  1.2497  0.3145
 9156SOL    HW229146   2.292   6.585   3.678  0.7935 -0.9308 -1.3703
 9157SOL     OW29147   5.582   5.267   5.565  0.0080  0.1221  0.3292
 9157SOL    HW129148   5.607   5.178   5.538 -1.3495  0.5320 -2.4417
 9157SOL    HW229149   5.493   5.256   5.601  0.3014  0.1958  1.0907
 9158SOL     OW29150   2.715   8.055   3.363  0.3699  0.1563 -0.5058
 9158SOL    HW129151   2.683   7.964   3.370  0.6666 -0.0254 -1.4670
 9158SOL    HW229152   2.640   8.104   3.330  0.0895  0.3353  0.3937
 9159SOL     OW29153   9.072   6.630   4.371  0.1053  0.1845 -0.1726
 9159SOL    HW129154   9.155   6.603   4.411 -0.8732 -1.3144  0.8773
 9159SOL    HW229155   9.068   6.581   4.289 -0.2411 -0.5852  0.2964
 9160SOL     OW29156   7.774   6.717   4.477 -0.4777 -0.4918 -0.3735
 9160SOL    HW129157   7.837   6.661   4.522  1.2832  1.2472 -0.6168
 9160SOL    HW229158   7.711   6.740   4.545  0.2195 -0.6916  0.3549
 9161SOL     OW29159   1.516   1.344   6.879  0.1363  0.1019  0.2160
 9161SOL    HW129160   1.456   1.354   6.806  0.2228 -3.5885 -0.4781
 9161SOL    HW229161   1.461   1.316   6.952  0.4557  0.9230  0.7884
 9162SOL     OW29162   5.835   7.192   1.925 -0.2354  0.2458 -0.0845
 9162SOL    HW129163   5.924   7.224   1.914  0.2270 -0.8687  0.3479
 9162SOL    HW229164   5.797   7.250   1.991  1.3371 -1.4523  2.4145
 9163SOL     OW29165   5.537   0.173   8.700 -0.4331  0.3974  0.1579
 9163SOL    HW129166   5.560   0.104   8.763 -2.0751 -1.5494 -1.3138
 9163SOL    HW229167   5.454   0.145   8.663 -0.3158  2.3574 -1.6778
 9164SOL     OW29168   5.022   3.203   7.161 -0.2529 -0.0973 -0.0452
 9164SOL    HW129169   5.088   3.136   7.179 -0.0764  0.4114  1.1978
 9164SOL    HW229170   5.017   3.206   7.065  1.0335 -0.6131 -0.1384
 9165SOL     OW29171   0.333   6.559   5.073  0.6657  0.2134 -0.2711
 9165SOL    HW129172   0.278   6.522   5.003 -0.5964  1.0454  0.2503
 9165SOL    HW229173   0.270   6.590   5.138  1.7219  1.8581  0.0039
 9166SOL     OW29174   0.935   2.617   4.809 -0.2460  0.2696  0.1439
 9166SOL    HW129175   0.975   2.674   4.874 -0.0463  1.7441 -1.2422
 9166SOL    HW229176   0.843   2.643   4.807 -0.8537 -1.6494  1.7820
 9167SOL     OW29177   0.945   0.100   3.762 -0.9901 -0.1279  1.1218
 9167SOL    HW129178   0.851   0.085   3.770 -1.3299  1.8343  0.8241
 9167SOL    HW229179   0.958   0.127   3.672  0.2615 -3.0522  0.3493
 9168SOL     OW29180   4.221   0.153   7.882  0.0880 -0.5210  0.4205
 9168SOL    HW129181   4.272   0.072   7.880 -0.4460 -0.8986  1.6514
 9168SOL    HW229182   4.159   0.144   7.810  0.0160 -1.2226  0.5689
 9169SOL     OW29183   2.785   6.515   4.747 -0.2083  0.4122 -0.1621
 9169SOL    HW129184   2.708   6.510   4.803  0.6046 -0.6839  0.9121
 9169SOL    HW229185   2.856   6.541   4.807  0.3925  0.6948 -0.9844
 9170SOL     OW29186   2.992   8.883   6.506 -0.1906  0.2281 -0.2475
 9170SOL    HW129187   3.054   8.827   6.459 -0.7563 -0.3605 -0.2952
 9170SOL    HW229188   2.919   8.825   6.528  0.0597  0.4956  1.3368
 9171SOL     OW29189   0.976   3.526   2.291  0.5944 -0.2547 -0.4402
 9171SOL    HW129190   1.064   3.549   2.261  0.7068  1.5924  1.2126
 9171SOL    HW229191   0.920   3.541   2.214  1.4331  0.5840 -0.8925
 9172SOL     OW29192   6.371   3.543   1.417 -0.4175 -0.4677  0.0336
 9172SOL    HW129193   6.369   3.619   1.358 -1.1355  0.2552  0.9782
 9172SOL    HW229194   6.465   3.526   1.430 -0.1880 -2.4841 -3.6126
 9173SOL     OW29195   2.550   1.135   5.761 -0.3559  0.4436  0.1038
 9173SOL    HW129196   2.542   1.067   5.694  0.6496  2.4270 -2.1062
 9173SOL    HW229197   2.509   1.212   5.722  2.0788  2.2027  0.9166
 9174SOL     OW29198   5.988   5.041   6.262 -0.2619 -0.0100  0.4911
 9174SOL    HW129199   5.999   5.052   6.168  1.5853  0.6416  0.7605
 9174SOL    HW229200   5.996   4.947   6.277  2.0482  0.1273  0.2779
 9175SOL     OW29201   9.046   1.928   1.910  0.0659 -0.4435 -0.7501
 9175SOL    HW129202   9.089   1.844   1.926  1.2729  0.6007  1.6864
 9175SOL    HW229203   9.074   1.984   1.982 -1.3748  1.8241 -1.8836
 9176SOL     OW29204   4.648   7.873   2.846  0.2761 -0.8291  0.2403
 9176SOL    HW129205   4.596   7.800   2.881  0.7099 -1.6542 -0.7985
 9176SOL    HW229206   4.658   7.853   2.753  2.1603 -0.5103  0.3488
 9177SOL     OW29207   5.188   5.082   1.689  0.1638  0.1155 -0.4535
 9177SOL    HW129208   5.239   5.147   1.736 -0.6810  0.4383  0.0258
 9177SOL    HW229209   5.110   5.069   1.742 -1.6067  1.7124 -2.5618
 9178SOL     OW29210   4.054   4.064   4.163  0.8187 -0.2489  0.8168
 9178SOL    HW129211   4.092   4.121   4.097 -2.3322  0.6154 -0.3229
 9178SOL    HW229212   4.012   3.994   4.113 -2.8516  1.1987  1.7796
 9179SOL     OW29213   4.018   3.945   2.220  0.2455 -0.5042 -0.2759
 9179SOL    HW129214   4.048   3.858   2.247  0.1701  0.4981  3.2848
 9179SOL    HW229215   4.043   4.002   2.293 -1.5761  2.0940 -1.6343
 9180SOL     OW29216   6.315   2.306   2.376 -0.1264 -0.8309  0.5952
 9180SOL    HW129217   6.287   2.217   2.397 -1.1346 -0.1012  2.4144
 9180SOL    HW229218   6.234   2.358   2.376  0.5778  0.2954  0.6993
 9181SOL     OW29219   3.955   9.207   7.495 -0.7988  0.0588 -0.4860
 9181SOL    HW129220   3.899   9.251   7.432 -0.2281 -0.2698 -1.2240
 9181SOL    HW229221   4.002   9.142   7.444  0.1289  0.2204  0.1575
 9182SOL     OW29222   2.241   4.223   6.060  0.0178  0.0717 -0.4775
 9182SOL    HW129223   2.255   4.177   6.143  2.7169  0.8926 -0.4287
 9182SOL    HW229224   2.175   4.289   6.080  0.6923  0.3056  1.0412
 9183SOL     OW29225   4.513   8.729   3.880  0.4446  0.1389  0.0677
 9183SOL    HW129226   4.538   8.732   3.973  1.5837  1.5111 -0.2757
 9183SOL    HW229227   4.580   8.675   3.839 -0.0408 -0.4398  0.0309
 9184SOL     OW29228   4.701   6.828   0.889 -0.1868 -0.0031  0.0454
 9184SOL    HW129229   4.731   6.878   0.965 -0.1675  1.1056 -0.6850
 9184SOL    HW229230   4.671   6.745   0.926  0.9438  0.0434  1.1364
 9185SOL     OW29231   8.895   6.316   0.105  0.4622  0.9678 -0.7143
 9185SOL    HW129232   8.881   6.400   0.061 -0.1093  1.0043 -0.4717
 9185SOL    HW229233   8.839   6.255   0.058  0.1739  0.9178 -0.3091
 9186SOL     OW29234   4.902   5.461   5.302  0.2002 -0.0350  0.3675
 9186SOL    HW129235   4.858   5.443   5.385  0.7104  3.0521  1.3790
 9186SOL    HW229236   4.992   5.484   5.327  0.8160 -0.6651 -1.1831
 9187SOL     OW29237   4.971   1.816   2.113  0.0747 -0.1839  0.4360
 9187SOL    HW129238   5.029   1.838   2.186 -0.2614 -0.5864  0.8223
 9187SOL    HW229239   4.992   1.882   2.046  1.8351 -1.0281  0.1065
 9188SOL     OW29240   2.784   3.709   4.442  0.1421  0.8477 -0.4361
 9188SOL    HW129241   2.705   3.757   4.468  0.7047  1.3016  0.4669
 9188SOL    HW229242   2.752   3.635   4.391 -0.8699  1.0742 -0.1363
 9189SOL     OW29243   5.675   5.892   5.520 -0.0626  0.5883  0.1050
 9189SOL    HW129244   5.604   5.906   5.457 -0.7408  1.2376  1.0095
 9189SOL    HW229245   5.673   5.798   5.538  0.7503  0.2275 -1.5493
 9190SOL     OW29246   7.789   1.089   2.242  0.2747 -0.0058 -0.1591
 9190SOL    HW129247   7.856   1.072   2.176  1.7068  0.2769  1.2110
 9190SOL    HW229248   7.762   1.180   2.225  1.0639  0.2658  0.0134
 9191SOL     OW29249   9.125   8.320   2.641  0.5469  0.1512  0.1288
 9191SOL    HW129250   9.134   8.281   2.729  2.7830 -0.8842 -0.5142
 9191SOL    HW229251   9.115   8.413   2.657 -4.3475 -0.4740  1.6963
 9192SOL     OW29252   8.772   2.789   1.923  0.2838 -0.0007  0.0846
 9192SOL    HW129253   8.676   2.786   1.918  0.2315  1.8041 -0.3568
 9192SOL    HW229254   8.791   2.806   2.015  0.1799 -0.1809  0.1401
 9193SOL     OW29255   0.061   6.393   7.763 -0.7702 -0.5488  0.2084
 9193SOL    HW129256   0.154   6.414   7.748 -1.1831  0.3193 -1.2581
 9193SOL    HW229257   0.025   6.471   7.805 -1.2892 -0.0550 -1.1183
 9194SOL     OW29258   4.777   2.057   4.040  0.3993  0.0989  0.6243
 9194SOL    HW129259   4.689   2.068   4.004  0.1455  0.0344  1.2216
 9194SOL    HW229260   4.830   2.026   3.966 -0.1646 -0.2120  0.3535
 9195SOL     OW29261   6.592   1.805   4.402 -0.1398 -0.3463 -0.3882
 9195SOL    HW129262   6.538   1.759   4.338 -0.5409 -0.4201  0.0006
 9195SOL    HW229263   6.678   1.813   4.360  0.2547 -2.4063 -0.0153
 9196SOL     OW29264   5.691   8.964   7.847 -0.4278  0.6314  0.4432
 9196SOL    HW129265   5.729   9.030   7.904  1.1304  0.4429 -0.3560
 9196SOL    HW229266   5.658   9.013   7.772  0.2183  0.5629  0.1135
 9197SOL     OW29267   0.385   5.424   3.023 -0.2461 -0.0295 -0.3228
 9197SOL    HW129268   0.341   5.464   2.948 -1.8880  0.7222  0.9989
 9197SOL    HW229269   0.332   5.346   3.042  0.1493 -0.2036  0.0607
 9198SOL     OW29270   6.555   8.559   2.734 -0.7008 -0.3912  0.0205
 9198SOL    HW129271   6.462   8.538   2.738 -0.3046 -2.0456  1.0980
 9198SOL    HW229272   6.593   8.514   2.810  1.0153  0.0424 -0.5570
 9199SOL     OW29273   8.470   7.572   5.096  0.4616  0.2591 -0.2444
 9199SOL    HW129274   8.486   7.599   5.187 -0.2423  1.7795 -0.5525
 9199SOL    HW229275   8.391   7.620   5.070  0.2868 -0.6621 -1.4544
 9200SOL     OW29276   5.970   9.070   2.737  0.5364 -0.5270  0.1734
 9200SOL    HW129277   5.909   9.060   2.663 -1.4044 -0.1471  1.6994
 9200SOL    HW229278   6.017   9.151   2.717  1.0159 -1.1540 -1.3384
 9201SOL     OW29279   3.627   2.162   6.431  0.1866  0.0419  0.3978
 9201SOL    HW129280   3.544   2.115   6.438 -0.2302  0.6683 -0.3115
 9201SOL    HW229281   3.604   2.253   6.446  0.7566  0.2056  0.2728
 9202SOL     OW29282   0.692   4.633   0.749 -0.0863  0.4725 -0.7121
 9202SOL    HW129283   0.597   4.624   0.742 -0.0018 -0.5994 -0.5905
 9202SOL    HW229284   0.726   4.556   0.704  0.7003 -0.0299  0.7382
 9203SOL     OW29285   2.222   0.440   9.096 -0.1807  0.1495  0.3311
 9203SOL    HW129286   2.287   0.465   9.031 -0.4674  0.3578  0.1235
 9203SOL    HW229287   2.256   0.360   9.135  0.0376  0.0771 -0.0116
 9204SOL     OW29288   8.097   3.001   6.914 -0.2916  0.0444  0.3206
 9204SOL    HW129289   8.087   3.058   6.838 -3.6779  1.2410  1.5727
 9204SOL    HW229290   8.111   2.914   6.877 -1.2009  0.7148 -1.6441
 9205SOL     OW29291   4.838   5.517   0.504  0.2718  0.2893  0.2276
 9205SOL    HW129292   4.865   5.608   0.511  2.3814 -0.2386 -0.6178
 9205SOL    HW229293   4.825   5.489   0.595  1.2105  0.9799  0.5919
 9206SOL     OW29294   0.924   8.971   1.343  0.4256 -0.4969  0.6641
 9206SOL    HW129295   0.930   8.941   1.252 -2.8980 -0.0739  0.2442
 9206SOL    HW229296   0.957   9.061   1.340  2.5918 -1.2678  0.3690
 9207SOL     OW29297   0.546   9.091   7.387 -0.4274 -0.7331 -0.5189
 9207SOL    HW129298   0.582   9.131   7.465  1.1344 -0.5922 -1.3047
 9207SOL    HW229299   0.541   9.162   7.323 -0.7671 -1.0598 -0.8658
 9208SOL     OW29300   4.874   1.382   0.888 -0.1139  0.3431  0.0923
 9208SOL    HW129301   4.893   1.471   0.918 -2.6418  0.4830  1.4223
 9208SOL    HW229302   4.806   1.350   0.947 -0.9744 -1.5905 -1.8493
 9209SOL     OW29303   7.119   6.453   6.354  0.2904 -0.2574  0.5093
 9209SOL    HW129304   7.169   6.410   6.286  0.1645  0.1660  0.1452
 9209SOL    HW229305   7.034   6.473   6.313  0.6640  1.1454  0.3822
 9210SOL     OW29306   1.483   2.549   5.511  0.5150 -0.4712 -0.1086
 9210SOL    HW129307   1.495   2.498   5.591 -1.3523 -1.4375 -0.4223
 9210SOL    HW229308   1.473   2.483   5.442  3.2837  0.3370 -1.3624
 9211SOL     OW29309   4.105   7.215   5.735 -0.2382 -0.1939 -0.4706
 9211SOL    HW129310   4.170   7.280   5.709  0.1668 -1.0274 -1.6206
 9211SOL    HW229311   4.029   7.234   5.680 -0.1715 -0.5832 -0.7029
 9212SOL     OW29312   5.199   3.408   7.348  0.2472 -0.3761 -0.1629
 9212SOL    HW129313   5.279   3.455   7.372  0.7312  0.2225 -2.8461
 9212SOL    HW229314   5.220   3.315   7.363  1.5886 -0.2555 -1.1987
 9213SOL     OW29315   4.875   4.775   3.843 -0.5740  0.1559 -0.2064
 9213SOL    HW129316   4.873   4.827   3.924  0.9047 -0.6327  0.3537
 9213SOL    HW229317   4.898   4.687   3.872  0.8319  0.0629 -1.5821
 9214SOL     OW29318   1.949   5.412   6.569 -0.3096  0.2499  0.5079
 9214SOL    HW129319   2.037   5.378   6.583 -0.5512 -1.3584 -1.5080
 9214SOL    HW229320   1.905   5.400   6.653  1.2843  0.7830  1.4470
 9215SOL     OW29321   3.028   6.996   7.479 -0.0330  0.0857 -0.2280
 9215SOL    HW129322   3.035   7.089   7.498  3.3884 -0.4463  1.5870
 9215SOL    HW229323   3.103   6.977   7.422  0.7396 -1.9516  1.3825
 9216SOL     OW29324   4.593   4.497   3.691  0.2297 -0.4626  0.2316
 9216SOL    HW129325   4.602   4.526   3.781  1.6517 -0.0393 -0.0200
 9216SOL    HW229326   4.680   4.465   3.668 -0.1648 -0.7271 -0.9297
 9217SOL     OW29327   7.319   8.589   3.853 -0.2679  0.7163  0.2250
 9217SOL    HW129328   7.266   8.526   3.806 -1.8310  1.0013  1.5760
 9217SOL    HW229329   7.400   8.595   3.802 -0.5469 -1.5117 -0.5356
 9218SOL     OW29330   6.527   9.081   5.608 -0.2199 -0.2601 -0.0702
 9218SOL    HW129331   6.577   9.004   5.581  0.8602  0.7978 -1.1241
 9218SOL    HW229332   6.553   9.150   5.546  0.7481  1.6624  2.4271
 9219SOL     OW29333   5.378   2.744   1.148  0.6484  0.4593  0.2088
 9219SOL    HW129334   5.343   2.808   1.210  1.8496 -0.1726  1.5620
 9219SOL    HW229335   5.463   2.779   1.122 -0.0984  1.0177 -1.5686
 9220SOL     OW29336   1.680   1.179   4.612 -0.6056 -0.2180  0.2214
 9220SOL    HW129337   1.756   1.184   4.554 -0.2250 -1.5049  0.5763
 9220SOL    HW229338   1.629   1.106   4.578 -1.0722 -0.1157  0.7017
 9221SOL     OW29339   0.120   0.893   0.528  0.1619  0.4731 -0.6229
 9221SOL    HW129340   0.029   0.868   0.513 -0.3442  1.6702  0.3622
 9221SOL    HW229341   0.171   0.825   0.484 -1.1854 -0.9603 -0.0332
 9222SOL     OW29342   8.774   1.188   2.217 -0.8696 -0.1193 -0.0395
 9222SOL    HW129343   8.834   1.121   2.182 -0.7881  0.5747 -1.2367
 9222SOL    HW229344   8.752   1.156   2.305 -0.2444 -1.3469 -0.3132
 9223SOL     OW29345   0.250   0.297   1.827 -0.2030 -0.1395 -0.1089
 9223SOL    HW129346   0.175   0.321   1.882 -0.3495 -1.4139  0.2652
 9223SOL    HW229347   0.327   0.323   1.877 -0.3863  0.9270 -0.3734
 9224SOL     OW29348   7.494   0.320   3.736 -0.1391  0.3930  0.1958
 9224SOL    HW129349   7.443   0.370   3.672  0.7190  0.5754 -0.3495
 9224SOL    HW229350   7.574   0.370   3.748 -0.7155  0.8814  2.1898
 9225SOL     OW29351   5.237   6.257   2.406 -0.0612  0.6018 -0.4337
 9225SOL    HW129352   5.296   6.315   2.454 -0.8546  1.9308 -1.0359
 9225SOL    HW229353   5.183   6.217   2.474  0.2554  0.8353 -0.0396
 9226SOL     OW29354   1.711   5.891   1.180 -0.8833 -0.3392  0.2646
 9226SOL    HW129355   1.648   5.826   1.149  0.0709 -0.1949 -2.0200
 9226SOL    HW229356   1.712   5.879   1.275 -1.8172 -2.6688  0.0219
 9227SOL     OW29357   9.292   4.220   4.027 -0.2438  0.2178  0.0825
 9227SOL    HW129358   9.226   4.212   3.958  0.1029 -0.3285 -0.1901
 9227SOL    HW229359   9.243   4.249   4.104 -0.6112  0.9329 -0.4225
 9228SOL     OW29360   2.918   8.010   1.385 -0.8776  0.3407  0.4353
 9228SOL    HW129361   2.995   8.009   1.329 -0.3247 -2.6075  1.1829
 9228SOL    HW229362   2.900   8.103   1.400  1.1541  1.0912 -1.5859
 9229SOL     OW29363   3.137   5.540   5.643  0.1367  0.4028  0.1676
 9229SOL    HW129364   3.191   5.486   5.701  1.5698  1.1987 -0.4098
 9229SOL    HW229365   3.097   5.477   5.582 -0.6921 -0.3389  1.4391
 9230SOL     OW29366   2.005   8.665   0.273  0.4076  0.4597  0.0383
 9230SOL    HW129367   2.084   8.616   0.297 -0.1546  0.5788  2.2121
 9230SOL    HW229368   1.936   8.625   0.326 -1.0317  0.3164 -1.8825
 9231SOL     OW29369   7.807   8.932   5.032 -0.3301 -0.4509  0.1619
 9231SOL    HW129370   7.837   8.914   5.121 -1.7911  1.0300  0.9805
 9231SOL    HW229371   7.835   9.022   5.015 -1.3723 -0.2057 -0.2896
 9232SOL     OW29372   2.500   5.250   5.933 -0.0271  0.1704 -0.3681
 9232SOL    HW129373   2.587   5.286   5.913  0.1276 -0.7286 -1.3373
 9232SOL    HW229374   2.510   5.156   5.923 -0.8680 -0.0184  0.5050
 9233SOL     OW29375   7.390   6.107   3.321  0.2303  0.0740 -0.8416
 9233SOL    HW129376   7.425   6.159   3.393 -0.0423 -1.4412  0.4253
 9233SOL    HW229377   7.468   6.075   3.275  0.4320  0.1042 -0.5238
 9234SOL     OW29378   8.162   1.746   7.321 -0.8050 -0.1319  0.4287
 9234SOL    HW129379   8.252   1.744   7.352 -1.2439 -0.7209  1.7086
 9234SOL    HW229380   8.109   1.750   7.400 -1.8975  0.6550 -0.3213
 9235SOL     OW29381   0.377   2.082   7.571  0.2883 -0.3702  0.1513
 9235SOL    HW129382   0.312   2.101   7.503  0.7395  1.3055  0.1479
 9235SOL    HW229383   0.458   2.122   7.539  1.1598 -1.8776  0.4529
 9236SOL     OW29384   3.662   1.800   0.062  0.6726 -0.4424  0.2680
 9236SOL    HW129385   3.717   1.734   0.020  0.6605 -1.1242  1.3090
 9236SOL    HW229386   3.580   1.755   0.080  0.2725  0.1709  0.0199
 9237SOL     OW29387   4.687   1.099   8.912 -0.3501  0.2957 -0.4758
 9237SOL    HW129388   4.623   1.048   8.861  1.1317 -0.2969 -1.7900
 9237SOL    HW229389   4.681   1.064   9.001 -2.5308  0.9159 -0.3430
 9238SOL     OW29390   7.255   4.781   8.249 -0.6216 -0.5221 -0.0377
 9238SOL    HW129391   7.292   4.705   8.205  2.0575  0.9514 -0.3699
 9238SOL    HW229392   7.257   4.758   8.342 -0.0598 -0.9321 -0.1524
 9239SOL     OW29393   0.510   9.290   6.034 -0.1396 -0.3081 -0.3688
 9239SOL    HW129394   0.489   9.246   6.116  1.9000  0.7443  0.7409
 9239SOL    HW229395   0.483   9.381   6.048  1.0168  0.0713 -0.5285
 9240SOL     OW29396   7.652   8.429   4.432 -0.2096  0.0427  0.0255
 9240SOL    HW129397   7.675   8.340   4.404 -0.3028  0.3176 -0.9704
 9240SOL    HW229398   7.583   8.417   4.497 -0.4580 -0.6008 -0.3490
 9241SOL     OW29399   0.408   2.596   2.700  0.4868  0.3770 -0.0770
 9241SOL    HW129400   0.458   2.557   2.772 -0.9254  1.1722  1.3741
 9241SOL    HW229401   0.341   2.530   2.680  0.5297  0.3962 -0.2782
 9242SOL     OW29402   7.108   1.646   8.803 -0.1123  0.0793  0.2826
 9242SOL    HW129403   7.080   1.562   8.767 -1.5427  1.0549 -0.9254
 9242SOL    HW229404   7.032   1.703   8.794  0.6877  1.3869  1.5214
 9243SOL     OW29405   5.924   2.139   6.875 -0.1339 -0.1082 -0.5387
 9243SOL    HW129406   6.001   2.084   6.887  0.8899  0.9824 -1.8940
 9243SOL    HW229407   5.876   2.098   6.802 -0.5347 -0.4603 -0.0776
 9244SOL     OW29408   4.328   1.423   5.383  0.1526 -0.5908 -0.6012
 9244SOL    HW129409   4.369   1.337   5.388  1.4117  0.0489  0.2227
 9244SOL    HW229410   4.258   1.412   5.319 -0.9580 -2.7339  0.9234
 9245SOL     OW29411   2.478   6.690   0.587 -0.1593  0.3199 -0.3112
 9245SOL    HW129412   2.490   6.780   0.617 -1.9969 -0.1860  2.1430
 9245SOL    HW229413   2.512   6.689   0.497 -0.1626  3.4667 -0.3925
 9246SOL     OW29414   8.622   1.856   6.478  0.5180  0.4304  0.3097
 9246SOL    HW129415   8.531   1.854   6.510  0.8538  2.6946  1.5174
 9246SOL    HW229416   8.615   1.882   6.387 -0.0438  0.7833  0.4529
 9247SOL     OW29417   2.966   3.529   2.123  0.2702 -1.1135  0.1985
 9247SOL    HW129418   3.051   3.491   2.147  0.5187  0.1122  1.3162
 9247SOL    HW229419   2.986   3.590   2.052  0.7682  1.1704  2.2402
 9248SOL     OW29420   2.034   6.883   8.263 -0.5302  0.3487  0.2370
 9248SOL    HW129421   1.940   6.899   8.270 -0.9777 -1.9861 -0.1679
 9248SOL    HW229422   2.048   6.857   8.172  0.3714 -0.1127  0.5009
 9249SOL     OW29423   5.739   4.221   8.984  0.0080 -0.3419  0.8891
 9249SOL    HW129424   5.655   4.212   9.030 -1.1640  1.1414 -0.8714
 9249SOL    HW229425   5.762   4.313   8.996 -0.6856  0.2634 -2.0125
 9250SOL     OW29426   4.685   8.501   1.854 -0.1486  0.1470  0.4663
 9250SOL    HW129427   4.593   8.490   1.829  0.2814  1.9169 -2.0272
 9250SOL    HW229428   4.718   8.569   1.796  3.2157 -1.6342  0.1638
 9251SOL     OW29429   3.113   0.354   1.497 -0.4084  0.2491 -0.9061
 9251SOL    HW129430   3.168   0.432   1.491  1.1115 -0.7780 -0.4666
 9251SOL    HW229431   3.133   0.317   1.583 -0.0494 -1.4014 -1.6762
 9252SOL     OW29432   5.898   3.633   5.809  0.3037 -0.0705  0.2634
 9252SOL    HW129433   5.964   3.697   5.781  0.1067  0.7763  1.6684
 9252SOL    HW229434   5.831   3.636   5.741  1.0781  0.0275 -0.5034
 9253SOL     OW29435   1.969   3.923   6.750  0.2534  0.5064 -0.0368
 9253SOL    HW129436   1.916   3.881   6.683  1.0835 -1.4546  0.4876
 9253SOL    HW229437   1.920   4.001   6.775 -1.6800 -0.5221 -0.5502
 9254SOL     OW29438   4.219   3.543   8.501  0.0858 -0.8059 -0.2085
 9254SOL    HW129439   4.264   3.567   8.582 -0.8370 -1.3303  0.4719
 9254SOL    HW229440   4.247   3.609   8.437  3.5065 -2.3907 -0.3916
 9255SOL     OW29441   4.241   6.653   7.257 -0.4433 -0.4366 -0.2922
 9255SOL    HW129442   4.336   6.650   7.245 -0.3602  0.5431  0.0259
 9255SOL    HW229443   4.227   6.619   7.345 -0.4511 -1.1903 -0.5783
 9256SOL     OW29444   1.167   4.097   1.806 -0.3820 -0.6301  0.4203
 9256SOL    HW129445   1.094   4.061   1.754  0.8625 -1.6940 -0.6302
 9256SOL    HW229446   1.199   4.022   1.856  0.2118 -0.2331  0.6341
 9257SOL     OW29447   1.496   4.347   7.920 -0.2003 -0.1319  0.5126
 9257SOL    HW129448   1.488   4.356   8.014  0.7576 -0.8330  0.6746
 9257SOL    HW229449   1.428   4.404   7.884  0.0595  0.8808  1.5984
 9258SOL     OW29450   0.893   7.237   8.736  0.1326 -0.1963 -0.6413
 9258SOL    HW129451   0.867   7.150   8.705  0.4071 -1.1178  1.5932
 9258SOL    HW229452   0.811   7.284   8.748 -0.1687 -1.0066  0.5250
 9259SOL     OW29453   0.808   7.096   4.568  0.2254  0.1662  0.3290
 9259SOL    HW129454   0.865   7.042   4.624  0.4716  0.0411 -0.0450
 9259SOL    HW229455   0.843   7.085   4.480 -1.5044 -1.4044 -0.1904
 9260SOL     OW29456   5.625   3.248   5.792 -0.2219 -0.3073  0.1503
 9260SOL    HW129457   5.571   3.176   5.824  1.6597 -2.0751 -0.5017
 9260SOL    HW229458   5.633   3.308   5.867 -2.3542 -0.4116  0.4896
 9261SOL     OW29459   1.155   3.646   6.534 -0.3280 -0.0120 -0.2911
 9261SOL    HW129460   1.217   3.574   6.541 -0.7229 -0.4854 -1.4238
 9261SOL    HW229461   1.191   3.715   6.590 -0.2163 -1.2637  1.2176
 9262SOL     OW29462   3.678   2.693   2.363 -0.5500  0.6378 -0.3839
 9262SOL    HW129463   3.725   2.725   2.440  0.9584  1.6498 -1.6860
 9262SOL    HW229464   3.717   2.607   2.345 -0.6667  0.5498 -0.2182
 9263SOL     OW29465   5.432   6.844   4.490  0.2527  0.3229  0.4826
 9263SOL    HW129466   5.502   6.887   4.539 -0.1219  1.7736 -0.2172
 9263SOL    HW229467   5.413   6.904   4.417  0.1638 -1.3499 -0.9014
 9264SOL     OW29468   4.747   3.854   0.516  0.4717  0.1424  0.4883
 9264SOL    HW129469   4.836   3.885   0.497 -0.1382  1.3802 -0.4169
 9264SOL    HW229470   4.698   3.871   0.436 -0.4206 -1.1812  0.7385
 9265SOL     OW29471   2.741   0.178   0.409 -0.6077  0.1471 -0.3535
 9265SOL    HW129472   2.725   0.260   0.364  1.3664  0.4903 -0.4549
 9265SOL    HW229473   2.830   0.153   0.384 -0.6839 -1.3143  0.7466
 9266SOL     OW29474   3.702   0.739   6.359 -0.3278 -0.6296  0.4201
 9266SOL    HW129475   3.753   0.660   6.339  0.2036 -0.1132 -0.2733
 9266SOL    HW229476   3.640   0.711   6.426 -0.0978 -1.6244  0.2212
 9267SOL     OW29477   1.277   5.128   8.609 -0.0801  0.2932  0.9502
 9267SOL    HW129478   1.352   5.076   8.636  0.4713  1.1087  0.9964
 9267SOL    HW229479   1.296   5.217   8.640  0.1278  1.0483 -1.2464
 9268SOL     OW29480   3.927   5.060   5.068  0.2627  0.6190  0.1732
 9268SOL    HW129481   4.016   5.088   5.089  0.5063 -0.5039  0.6770
 9268SOL    HW229482   3.891   5.032   5.152  0.8271 -2.7833 -0.6348
 9269SOL     OW29483   2.329   5.476   2.098  0.0986  0.5585 -0.3890
 9269SOL    HW129484   2.404   5.534   2.084  0.4804  0.2185  0.2383
 9269SOL    HW229485   2.277   5.484   2.017  0.1248  1.8064 -0.2917
 9270SOL     OW29486   4.537   7.277   5.240 -0.4076 -0.2348 -0.1915
 9270SOL    HW129487   4.448   7.283   5.275 -0.7779  1.3100 -1.3223
 9270SOL    HW229488   4.530   7.313   5.152  1.8449  2.5259  0.6577
 9271SOL     OW29489   4.615   2.681   0.206 -0.0242 -0.4279  0.3555
 9271SOL    HW129490   4.536   2.730   0.182  0.2870  0.6211  1.4275
 9271SOL    HW229491   4.674   2.747   0.242  0.8296 -1.4280  0.8173
 9272SOL     OW29492   6.944   0.284   2.734 -0.8420  0.0536  0.7530
 9272SOL    HW129493   6.895   0.352   2.780 -1.7887 -0.6166  0.7615
 9272SOL    HW229494   6.933   0.305   2.641 -2.3668 -0.8907  0.6947
 9273SOL     OW29495   4.764   6.123   5.043 -0.1857  0.3777 -0.3282
 9273SOL    HW129496   4.675   6.142   5.073 -0.6083  1.2453 -2.0455
 9273SOL    HW229497   4.769   6.027   5.043 -0.3326  0.3431  1.9306
 9274SOL     OW29498   0.041   7.233   7.069 -0.5536  0.2896 -0.6666
 9274SOL    HW129499   0.026   7.323   7.099  0.0917  0.8459 -1.9443
 9274SOL    HW229500   0.038   7.180   7.148 -0.7751  1.4615  0.1263
 9275SOL     OW29501   2.171   4.346   8.919  0.1247 -0.0005 -0.0567
 9275SOL    HW129502   2.205   4.340   8.829 -0.0799 -0.4557 -0.1073
 9275SOL    HW229503   2.121   4.265   8.930 -3.7641  2.1142 -1.1707
 9276SOL     OW29504   0.506   1.697   6.482 -0.1196  0.1121 -0.1846
 9276SOL    HW129505   0.589   1.737   6.456  0.8600  1.1777  4.1833
 9276SOL    HW229506   0.517   1.604   6.463  0.2944  0.8159 -3.7979
 9277SOL     OW29507   8.977   8.119   7.511  0.3042 -0.4066  0.2614
 9277SOL    HW129508   8.921   8.118   7.589 -0.5741  2.8204 -0.2600
 9277SOL    HW229509   8.917   8.106   7.438  0.8832 -1.5333 -0.0264
 9278SOL     OW29510   3.385   6.133   7.016  0.0060  0.1558  0.0676
 9278SOL    HW129511   3.333   6.206   6.981 -1.1025 -0.8510 -0.4228
 9278SOL    HW229512   3.334   6.055   6.995  0.9897 -0.7393  0.9422
 9279SOL     OW29513   0.479   7.007   7.726  0.0347 -0.2141  0.2504
 9279SOL    HW129514   0.484   6.929   7.671  1.5948  0.5276 -0.6821
 9279SOL    HW229515   0.563   7.051   7.713 -0.8701  1.6881  0.6559
 9280SOL     OW29516   0.387   0.896   9.210 -0.0899  0.7009 -0.6588
 9280SOL    HW129517   0.295   0.879   9.190  0.2805 -2.8342  0.3607
 9280SOL    HW229518   0.427   0.918   9.125 -1.5843  0.9411 -1.3086
 9281SOL     OW29519   6.196   5.119   6.008  0.2313  0.6126 -0.0803
 9281SOL    HW129520   6.125   5.178   6.033 -0.2775  0.6567 -1.6237
 9281SOL    HW229521   6.188   5.109   5.913  0.1709 -2.1166  0.1740
 9282SOL     OW29522   4.096   1.243   7.237  0.3466 -0.5533  0.3367
 9282SOL    HW129523   4.089   1.153   7.269  1.2189 -0.5397  0.5748
 9282SOL    HW229524   4.076   1.297   7.313  0.5190 -0.5393  0.3721
 9283SOL     OW29525   1.900   3.519   2.975 -0.2390 -0.3898  0.6069
 9283SOL    HW129526   1.904   3.427   3.003  1.3485 -0.7238 -0.6756
 9283SOL    HW229527   1.990   3.550   2.981 -0.1514  0.0423 -2.4079
 9284SOL     OW29528   4.931   4.780   0.267  0.8793 -0.0132 -0.0605
 9284SOL    HW129529   4.904   4.793   0.176 -1.5893 -0.9005  0.4968
 9284SOL    HW229530   4.970   4.692   0.267 -1.3519 -1.0298  0.1844
 9285SOL     OW29531   7.570   5.710   6.800  0.7455 -0.0676 -0.0670
 9285SOL    HW129532   7.604   5.624   6.822  1.0388  0.1342  0.2838
 9285SOL    HW229533   7.591   5.722   6.707 -2.0719 -1.6614 -0.9520
 9286SOL     OW29534   1.279   4.781   3.582  0.0925  0.1138  0.7980
 9286SOL    HW129535   1.339   4.743   3.646 -0.0555 -1.7656 -0.1600
 9286SOL    HW229536   1.328   4.781   3.500 -1.3981 -2.0166 -0.1316
 9287SOL     OW29537   9.164   7.631   0.111  0.1738  0.0626  0.5225
 9287SOL    HW129538   9.136   7.719   0.136 -0.3074 -0.6619  2.7025
 9287SOL    HW229539   9.124   7.616   0.025 -2.0871  0.9236  1.3680
 9288SOL     OW29540   6.243   6.338   7.596 -0.1859 -0.7995 -0.2425
 9288SOL    HW129541   6.317   6.354   7.654  1.4453 -0.9475 -2.2089
 9288SOL    HW229542   6.238   6.242   7.590 -0.8061 -0.7958  0.2292
 9289SOL     OW29543   2.312   0.350   5.562 -0.3068 -0.1127 -0.4799
 9289SOL    HW129544   2.285   0.441   5.577  1.0686  0.2992 -0.4279
 9289SOL    HW229545   2.354   0.324   5.644  1.2694 -0.0663 -1.2551
 9290SOL     OW29546   1.607   8.620   0.997 -0.4260 -0.2281  0.2903
 9290SOL    HW129547   1.607   8.605   1.091 -0.1629  0.3493  0.3874
 9290SOL    HW229548   1.521   8.659   0.979 -0.1405  0.4723  0.4302
 9291SOL     OW29549   1.869   3.943   9.068  0.0074 -0.1395  0.1295
 9291SOL    HW129550   1.925   4.012   9.104  0.9365  0.2694 -2.0635
 9291SOL    HW229551   1.882   3.869   9.127  0.1257  1.0707  1.6560
 9292SOL     OW29552   1.917   5.849   2.282 -0.1419 -0.1696 -0.1250
 9292SOL    HW129553   1.837   5.888   2.316  0.9574  1.5732  0.5277
 9292SOL    HW229554   1.921   5.763   2.324 -2.0603 -0.5981 -0.7747
 9293SOL     OW29555   3.064   8.510   4.562 -0.0773 -0.3336  0.2933
 9293SOL    HW129556   3.159   8.518   4.561 -0.2072  1.3155  0.3922
 9293SOL    HW229557   3.045   8.441   4.498  1.0162  1.4317 -2.0265
 9294SOL     OW29558   5.555   5.592   8.898 -0.0695 -0.4463 -0.7539
 9294SOL    HW129559   5.615   5.650   8.852 -0.1879 -0.4298 -0.8885
 9294SOL    HW229560   5.471   5.605   8.854 -0.2463 -0.2158 -0.3500
 9295SOL     OW29561   9.087   2.132   3.563  0.4654 -0.1315  0.0286
 9295SOL    HW129562   9.164   2.181   3.592  0.2914 -0.4663  1.0612
 9295SOL    HW229563   9.115   2.040   3.566 -0.2163 -0.3153  1.1976
 9296SOL     OW29564   0.808   1.300   0.182  0.6174 -0.2141 -0.3454
 9296SOL    HW129565   0.900   1.291   0.157  1.2556  2.1227  1.0131
 9296SOL    HW229566   0.777   1.374   0.130  0.1889  0.5662  1.0261
 9297SOL     OW29567   5.586   9.127   6.294 -0.1521  0.5414 -0.5168
 9297SOL    HW129568   5.600   9.089   6.381 -0.9888  1.6850  0.1168
 9297SOL    HW229569   5.568   9.219   6.310 -2.4845  0.3464 -1.7256
 9298SOL     OW29570   3.325   4.186   4.680  0.1770 -0.2632 -0.2787
 9298SOL    HW129571   3.273   4.259   4.648  1.7270  0.5116 -1.0939
 9298SOL    HW229572   3.354   4.140   4.601  0.6132 -0.7638  0.1656
 9299SOL     OW29573   0.123   3.637   0.252  0.7377  0.0158  0.2807
 9299SOL    HW129574   0.184   3.565   0.241  1.2934  0.3789  0.9239
 9299SOL    HW229575   0.041   3.596   0.280  0.4377 -0.5470 -1.4044
 9300SOL     OW29576   6.389   2.223   0.520  0.9001 -0.2925  0.1239
 9300SOL    HW129577   6.444   2.291   0.482  1.4993 -1.4551 -1.1321
 9300SOL    HW229578   6.450   2.161   0.559  0.2790  1.2497  3.7193
 9301SOL     OW29579   7.680   0.691   4.543  0.3262  0.3118 -0.2933
 9301SOL    HW129580   7.765   0.723   4.513 -1.1993  1.3517 -3.7075
 9301SOL    HW229581   7.618   0.718   4.476 -1.7861 -5.9626 -1.2615
 9302SOL     OW29582   7.674   7.050   4.010  0.0347 -0.1172  0.4057
 9302SOL    HW129583   7.744   7.004   3.963 -0.9271 -2.2543  1.0274
 9302SOL    HW229584   7.678   7.016   4.099 -0.7113  0.9993  0.8757
 9303SOL     OW29585   5.959   7.411   2.664  0.3354 -0.1900  0.5060
 9303SOL    HW129586   5.942   7.491   2.714  0.6896  0.9414 -1.1346
 9303SOL    HW229587   5.872   7.371   2.653  0.3205 -0.7459  2.4598
 9304SOL     OW29588   0.892   8.299   5.229 -0.0898  0.6295  0.2621
 9304SOL    HW129589   0.812   8.246   5.227  0.4528 -0.1734 -0.1451
 9304SOL    HW229590   0.955   8.250   5.176  0.5793  1.4197  0.3187
 9305SOL     OW29591   3.512   3.359   4.216  0.4076 -0.1158 -0.2006
 9305SOL    HW129592   3.463   3.434   4.184  0.5725 -0.1353 -0.5011
 9305SOL    HW229593   3.474   3.284   4.169  0.9978 -0.0806 -0.7348
 9306SOL     OW29594   3.446   4.270   0.771  0.1690  0.0452  0.2671
 9306SOL    HW129595   3.534   4.252   0.804 -0.3505 -0.2630  1.5321
 9306SOL    HW229596   3.453   4.259   0.676  1.6306  0.6032  0.2907
 9307SOL     OW29597   1.928   3.545   4.672 -0.0376  0.3792  0.2638
 9307SOL    HW129598   1.992   3.505   4.730  0.9340 -2.6852 -2.7813
 9307SOL    HW229599   1.846   3.500   4.692  0.4312 -1.1258 -1.1234
 9308SOL     OW29600   5.365   0.521   3.887 -0.1716  0.1125  0.3964
 9308SOL    HW129601   5.406   0.445   3.846 -1.9842  1.3265 -3.9279
 9308SOL    HW229602   5.434   0.587   3.891  0.0951 -0.1126 -0.4770
 9309SOL     OW29603   8.069   5.021   7.240 -0.0785 -0.0195  0.1904
 9309SOL    HW129604   8.065   5.054   7.151  1.7378 -1.4298 -0.4393
 9309SOL    HW229605   8.161   5.029   7.265  0.4376 -4.1417  0.1069
 9310SOL     OW29606   7.952   6.068   5.679  0.2386  0.0095 -1.0924
 9310SOL    HW129607   8.043   6.041   5.668 -0.2225 -2.0902 -0.0350
 9310SOL    HW229608   7.904   5.987   5.694 -1.5612  1.2263  0.0022
 9311SOL     OW29609   2.789   8.018   8.685  0.0691 -0.0442  0.4322
 9311SOL    HW129610   2.830   7.949   8.632  0.5651  1.3084 -0.9931
 9311SOL    HW229611   2.791   8.095   8.628 -0.0798  1.2547  2.1746
 9312SOL     OW29612   3.460   0.373   6.688 -0.8434  0.1287 -0.1245
 9312SOL    HW129613   3.393   0.416   6.741 -1.3295 -0.9237  0.1271
 9312SOL    HW229614   3.497   0.443   6.634 -1.3541  0.9298  0.5549
 9313SOL     OW29615   2.587   0.821   7.775 -0.4813 -0.5409 -0.2763
 9313SOL    HW129616   2.580   0.910   7.740  0.6396  0.1638  1.2570
 9313SOL    HW229617   2.548   0.766   7.707  0.9075  0.8700 -2.2905
 9314SOL     OW29618   3.523   2.073   8.653  0.3769 -0.6834  0.3130
 9314SOL    HW129619   3.568   2.009   8.708  0.7200  1.3507  2.5317
 9314SOL    HW229620   3.589   2.100   8.588  0.3446 -2.2617 -0.3832
 9315SOL     OW29621   3.768   2.916   7.635  0.1390 -0.3756 -0.5531
 9315SOL    HW129622   3.727   2.961   7.710  0.6499  1.7837 -1.5281
 9315SOL    HW229623   3.714   2.838   7.622 -1.9412  0.9009  0.0303
 9316SOL     OW29624   3.065   2.274   4.447  0.1966  0.2560  0.0082
 9316SOL    HW129625   3.157   2.283   4.423  0.5334 -1.9292  0.3659
 9316SOL    HW229626   3.020   2.259   4.363  0.2270  0.7657 -0.1041
 9317SOL     OW29627   6.632   4.459   6.825 -0.3907 -0.4121  0.1733
 9317SOL    HW129628   6.653   4.479   6.733  0.1617 -0.9878  0.1709
 9317SOL    HW229629   6.673   4.374   6.840  0.1216  0.0055  1.1585
 9318SOL     OW29630   3.187   8.455   1.081  0.0431 -0.0485  0.1874
 9318SOL    HW129631   3.210   8.363   1.095 -0.3223 -0.3481 -1.1259
 9318SOL    HW229632   3.175   8.462   0.987  1.4342  1.6663  0.1178
 9319SOL     OW29633   7.340   6.562   3.824 -0.2109 -0.5269 -0.3522
 9319SOL    HW129634   7.408   6.562   3.757 -0.7273  1.0457 -0.8984
 9319SOL    HW229635   7.258   6.558   3.775 -0.5573 -0.6694  0.2382
 9320SOL     OW29636   6.020   4.746   2.607 -0.1170  0.2737  0.1128
 9320SOL    HW129637   5.928   4.731   2.585  0.0608 -0.3381 -0.2251
 9320SOL    HW229638   6.025   4.839   2.627 -1.1781 -0.0286  1.9408
 9321SOL     OW29639   3.966   5.301   3.297 -0.1551 -0.2578  0.0553
 9321SOL    HW129640   4.051   5.284   3.337 -0.6077 -1.3928  0.5643
 9321SOL    HW229641   3.904   5.253   3.353 -1.0695  0.1735 -0.5836
 9322SOL     OW29642   7.750   7.705   2.502  0.0241  0.1127  0.5262
 9322SOL    HW129643   7.712   7.651   2.572 -0.1403  1.5644  1.5745
 9322SOL    HW229644   7.833   7.663   2.483 -1.8007 -2.8273 -1.4519
 9323SOL     OW29645   3.195   5.221   3.952  0.3026  0.1120  0.2115
 9323SOL    HW129646   3.240   5.279   4.014  1.5194  1.5822 -1.9807
 9323SOL    HW229647   3.264   5.167   3.915 -0.4776 -1.0232  0.3869
 9324SOL     OW29648   2.201   4.594   3.416 -0.7322 -0.2030  0.1792
 9324SOL    HW129649   2.143   4.518   3.422 -1.0041  0.0846  1.3913
 9324SOL    HW229650   2.192   4.624   3.326 -0.0306 -2.0610 -0.5429
 9325SOL     OW29651   7.520   3.119   1.090  0.2117  0.3006 -0.0435
 9325SOL    HW129652   7.442   3.144   1.041  1.7865  0.5150 -2.5045
 9325SOL    HW229653   7.546   3.035   1.053  0.2919 -0.5138  1.8163
 9326SOL     OW29654   1.584   8.998   0.446  0.4684  0.3059 -0.3929
 9326SOL    HW129655   1.560   8.916   0.488 -2.0420  1.5239  0.6150
 9326SOL    HW229656   1.616   8.971   0.359  1.7762 -1.8705  0.7087
 9327SOL     OW29657   1.983   3.714   1.473  0.2545  0.5694 -0.1614
 9327SOL    HW129658   1.893   3.684   1.485  0.8144 -0.9610  0.2309
 9327SOL    HW229659   1.997   3.779   1.542 -0.1205 -0.1614  0.6063
 9328SOL     OW29660   7.571   2.944   3.882  0.3389  0.1625  0.3814
 9328SOL    HW129661   7.664   2.921   3.885  0.1143 -0.9818 -0.8412
 9328SOL    HW229662   7.526   2.863   3.907 -0.3977 -0.0706 -1.6188
 9329SOL     OW29663   6.160   0.969   6.542  0.0937  0.2345 -0.1294
 9329SOL    HW129664   6.090   1.032   6.524 -2.2510 -2.5718 -1.2831
 9329SOL    HW229665   6.193   0.945   6.456  2.4586  1.4530  0.4089
 9330SOL     OW29666   8.782   7.213   3.537 -0.6309  0.0730 -0.3087
 9330SOL    HW129667   8.794   7.172   3.623 -0.8470  0.8139  0.0840
 9330SOL    HW229668   8.808   7.304   3.550 -1.7189  0.4622 -0.7424
 9331SOL     OW29669   9.018   5.280   8.411  0.2157  0.2703 -0.9986
 9331SOL    HW129670   8.928   5.302   8.385 -0.9359 -0.7903  1.7758
 9331SOL    HW229671   9.017   5.184   8.418  1.0533  0.3597  0.6319
 9332SOL     OW29672   1.406   9.209   0.480  0.1338  0.0959  0.9006
 9332SOL    HW129673   1.462   9.133   0.462 -0.6849 -0.1419 -0.7480
 9332SOL    HW229674   1.318   9.180   0.453 -0.1038  1.7777 -0.1878
 9333SOL     OW29675   4.628   3.169   9.008 -0.7021 -0.3135 -0.1983
 9333SOL    HW129676   4.617   3.256   8.971  3.7039  0.0729 -0.9250
 9333SOL    HW229677   4.657   3.184   9.098 -1.3786 -1.0781  0.1584
 9334SOL     OW29678   8.958   1.076   8.598  0.3773  0.2731 -0.8459
 9334SOL    HW129679   8.931   0.996   8.554 -5.1632  1.2292  0.4937
 9334SOL    HW229680   8.955   1.054   8.691 -0.5067  1.8063 -0.4988
 9335SOL     OW29681   6.094   2.384   5.611 -0.1640 -0.7325  0.4227
 9335SOL    HW129682   6.007   2.344   5.601  0.8818 -3.1467  0.6129
 9335SOL    HW229683   6.084   2.445   5.685 -1.8259 -0.5706  0.0904
 9336SOL     OW29684   9.181   4.762   8.992  0.0358 -0.3663 -0.0723
 9336SOL    HW129685   9.230   4.680   8.989  2.1894  0.7561  2.3658
 9336SOL    HW229686   9.117   4.750   9.062  0.8647  0.2687  0.8118
 9337SOL     OW29687   0.547   4.163   0.346 -0.4335  0.2463  0.5268
 9337SOL    HW129688   0.510   4.103   0.282  0.0247  1.0975 -0.5432
 9337SOL    HW229689   0.641   4.164   0.326 -0.5274  1.8064  0.1133
 9338SOL     OW29690   0.921   3.556   9.185  0.2114  0.8316 -0.4439
 9338SOL    HW129691   0.989   3.613   9.220  0.7936 -0.7014  0.9902
 9338SOL    HW229692   0.950   3.536   9.096  0.4328  2.0504 -0.6587
 9339SOL     OW29693   6.667   4.217   1.991  0.1948 -0.1744 -0.1260
 9339SOL    HW129694   6.729   4.150   1.962 -0.5190 -0.3697 -1.2505
 9339SOL    HW229695   6.653   4.272   1.914 -2.3631 -1.1885 -0.4438
 9340SOL     OW29696   1.531   8.988   5.412 -0.4498 -0.7005 -0.8842
 9340SOL    HW129697   1.497   8.925   5.350 -2.5784 -1.0708  0.6063
 9340SOL    HW229698   1.602   8.942   5.457 -0.0810 -1.0288 -1.7934
 9341SOL     OW29699   7.686   5.527   8.159 -0.0538  0.4767  0.0953
 9341SOL    HW129700   7.652   5.456   8.105  0.5801  0.6869 -0.5969
 9341SOL    HW229701   7.721   5.484   8.236 -0.5973  0.1326  0.1494
 9342SOL     OW29702   6.966   7.116   6.338  0.0454 -0.1501 -0.5006
 9342SOL    HW129703   7.053   7.100   6.374 -0.1403 -0.4636 -0.1991
 9342SOL    HW229704   6.980   7.183   6.271  0.4599  0.0842 -0.1795
 9343SOL     OW29705   1.105   6.073   5.789 -0.3330  0.0888 -0.0600
 9343SOL    HW129706   1.076   6.107   5.874  1.3666  0.1374  0.5071
 9343SOL    HW229707   1.172   6.008   5.810  1.1137  1.1103 -1.4043
 9344SOL     OW29708   3.101   1.679   0.671 -0.1588  0.3271 -0.2391
 9344SOL    HW129709   3.184   1.725   0.685 -0.0013 -0.0478  0.0661
 9344SOL    HW229710   3.117   1.624   0.594  0.3535 -0.8604  0.6994
 9345SOL     OW29711   3.752   4.119   8.825 -0.5379 -0.1829 -0.0522
 9345SOL    HW129712   3.752   4.137   8.732 -0.5674  0.9224  0.1633
 9345SOL    HW229713   3.832   4.159   8.858 -0.2513 -1.0292  0.3189
 9346SOL     OW29714   4.641   7.268   3.193 -0.0340 -0.3378 -0.2963
 9346SOL    HW129715   4.550   7.283   3.165  0.0026 -1.6731 -1.1116
 9346SOL    HW229716   4.650   7.322   3.272 -1.8136 -0.9122  0.3110
 9347SOL     OW29717   9.167   2.607   4.973  0.2617  0.0935 -0.1648
 9347SOL    HW129718   9.104   2.560   4.918  0.5714 -1.7002  0.9697
 9347SOL    HW229719   9.112   2.652   5.037  0.0721 -1.0357  0.4926
 9348SOL     OW29720   6.727   3.928   7.037  0.8642  0.2416 -0.1390
 9348SOL    HW129721   6.651   3.880   7.003  1.3461 -0.0465 -0.8123
 9348SOL    HW229722   6.689   4.007   7.077  0.2055  0.0582 -0.3957
 9349SOL     OW29723   7.389   8.006   1.480 -0.4494 -0.3957 -0.4665
 9349SOL    HW129724   7.419   8.022   1.390 -0.3156  1.3364 -0.1377
 9349SOL    HW229725   7.304   8.049   1.485  0.0830  0.5678  0.5761
 9350SOL     OW29726   3.605   2.425   6.373 -0.3004 -0.2250 -0.7724
 9350SOL    HW129727   3.538   2.427   6.442  0.4953  0.2134 -0.0047
 9350SOL    HW229728   3.566   2.475   6.301 -0.9689 -0.3174 -0.4835
 9351SOL     OW29729   9.270   2.190   6.767  0.4821 -0.9593  0.0297
 9351SOL    HW129730   9.297   2.101   6.745 -0.0151 -1.0133 -0.3601
 9351SOL    HW229731   9.174   2.189   6.762  0.5161 -0.1393 -1.0040
 9352SOL     OW29732   4.404   7.221   1.112 -0.0840  0.4066  0.4500
 9352SOL    HW129733   4.381   7.253   1.199  0.7644 -1.1685  1.2448
 9352SOL    HW229734   4.437   7.299   1.066 -1.9878  1.5754  1.0041
 9353SOL     OW29735   0.026   0.353   1.325 -0.3769 -0.2019  0.4251
 9353SOL    HW129736   0.060   0.401   1.401 -0.5357  1.6986 -0.6809
 9353SOL    HW229737  -0.063   0.328   1.351 -0.9416  1.6891  0.3274
 9354SOL     OW29738   0.289   2.518   0.690 -0.5036  0.1835  0.0339
 9354SOL    HW129739   0.381   2.527   0.667 -0.2118 -0.2241  1.0072
 9354SOL    HW229740   0.261   2.437   0.647 -0.5341  0.5635 -0.6576
 9355SOL     OW29741   3.890   6.307   4.129 -0.2738  0.5735 -0.6194
 9355SOL    HW129742   3.945   6.369   4.080 -1.1315  1.4840 -0.4233
 9355SOL    HW229743   3.949   6.270   4.195  0.2187  1.2374 -0.6845
 9356SOL     OW29744   1.595   7.327   3.088  0.0113  0.7732  0.4073
 9356SOL    HW129745   1.674   7.277   3.067  0.0230  1.1318 -0.3854
 9356SOL    HW229746   1.574   7.300   3.178  1.7090  1.5648  1.0646
 9357SOL     OW29747   0.561   2.807   1.551 -0.3557  0.3804  0.5955
 9357SOL    HW129748   0.562   2.747   1.476  1.3852  2.1561 -0.8558
 9357SOL    HW229749   0.477   2.791   1.593 -0.2254 -2.5732 -0.1486
 9358SOL     OW29750   3.433   6.449   8.681 -0.0760 -0.4769  0.1856
 9358SOL    HW129751   3.497   6.514   8.652 -0.8226  0.3628  0.4234
 9358SOL    HW229752   3.465   6.420   8.766  0.8678 -1.2609 -0.4184
 9359SOL     OW29753   3.113   2.157   4.693 -0.2220  0.0847 -0.0391
 9359SOL    HW129754   3.175   2.216   4.736  0.1981  0.5721 -1.2802
 9359SOL    HW229755   3.085   2.204   4.615  0.3427 -1.4429 -1.2105
 9360SOL     OW29756   9.071   1.734   4.183  0.3423 -0.8652  0.1209
 9360SOL    HW129757   9.122   1.656   4.164 -1.5263 -1.8998 -0.7496
 9360SOL    HW229758   9.006   1.706   4.247 -1.7602 -0.6089 -1.8367
 9361SOL     OW29759   6.603   8.311   3.179  0.2472  0.2349  0.0471
 9361SOL    HW129760   6.600   8.221   3.209  1.6289  0.1198 -0.1050
 9361SOL    HW229761   6.517   8.328   3.141  0.3193 -1.3461 -0.8486
 9362SOL     OW29762   2.566   0.989   4.937  0.1710 -0.0027 -0.0569
 9362SOL    HW129763   2.559   1.072   4.889 -2.2672 -1.1933 -1.8404
 9362SOL    HW229764   2.657   0.961   4.923  0.3825  1.2649 -1.2939
 9363SOL     OW29765   0.853   5.490   1.816  0.2057  0.1362  0.6043
 9363SOL    HW129766   0.944   5.517   1.828 -0.1030  0.6331  1.8584
 9363SOL    HW229767   0.838   5.499   1.721  2.0036 -1.6941  0.1060
 9364SOL     OW29768   6.787   0.377   5.748 -0.0081  0.5077 -0.5077
 9364SOL    HW129769   6.740   0.419   5.821 -0.5696  0.4067 -0.8111
 9364SOL    HW229770   6.878   0.404   5.760 -0.0567  0.2802  0.3811
 9365SOL     OW29771   8.807   7.494   5.074  0.2182 -0.3072  0.1923
 9365SOL    HW129772   8.829   7.533   4.989 -3.2260 -1.5027 -1.3313
 9365SOL    HW229773   8.753   7.560   5.117  3.0737  0.8615  2.1009
 9366SOL     OW29774   6.851   0.641   7.986  0.1152 -0.3166  0.5302
 9366SOL    HW129775   6.895   0.667   7.905 -0.8665  0.8990  0.3746
 9366SOL    HW229776   6.904   0.679   8.056  0.7688 -1.0756  0.4629
 9367SOL     OW29777   6.838   6.151   4.603  0.7974  0.3620  0.2994
 9367SOL    HW129778   6.898   6.226   4.610 -1.4149  2.3024 -0.8584
 9367SOL    HW229779   6.853   6.116   4.515  0.7389  0.4179  0.2667
 9368SOL     OW29780   3.987   7.785   1.892  0.1584  0.4728 -0.1255
 9368SOL    HW129781   3.970   7.692   1.878  0.3978  0.4261 -0.0995
 9368SOL    HW229782   4.013   7.790   1.984  1.0186  0.4465 -0.3629
 9369SOL     OW29783   1.824   7.861   2.214 -0.2170  0.0944  0.2677
 9369SOL    HW129784   1.756   7.927   2.205 -0.4100 -0.1085  0.2309
 9369SOL    HW229785   1.906   7.911   2.212 -0.2049  0.0667 -2.8412
 9370SOL     OW29786   3.713   2.922   3.319 -0.6141 -0.4476 -0.0448
 9370SOL    HW129787   3.707   2.995   3.258 -1.1564 -1.1800 -0.8875
 9370SOL    HW229788   3.720   2.963   3.406  0.2064  0.5993 -0.5915
 9371SOL     OW29789   2.891   2.147   8.547  0.4298 -0.3679  0.6752
 9371SOL    HW129790   2.864   2.136   8.638  1.2494 -0.9827  0.8485
 9371SOL    HW229791   2.830   2.093   8.497  1.0122 -1.3417  1.0160
 9372SOL     OW29792   6.185   2.222   8.122 -0.2675  0.0916  0.2327
 9372SOL    HW129793   6.092   2.207   8.106 -0.5023  1.7155 -0.0187
 9372SOL    HW229794   6.226   2.211   8.036  0.2057 -3.5173  0.8602
 9373SOL     OW29795   7.660   4.880   0.684  0.4523 -0.5467  0.3198
 9373SOL    HW129796   7.656   4.785   0.687 -0.0278 -0.5342  0.0886
 9373SOL    HW229797   7.751   4.901   0.705  0.5448 -1.0517  0.4227
 9374SOL     OW29798   0.678   1.675   0.260 -0.0069 -0.3699 -0.0403
 9374SOL    HW129799   0.669   1.748   0.199  1.1352 -1.2709 -1.3203
 9374SOL    HW229800   0.645   1.599   0.211 -1.0080 -0.7615  1.2094
 9375SOL     OW29801   5.538   4.519   6.524  0.3394  0.1883  0.6212
 9375SOL    HW129802   5.497   4.587   6.471  2.0895  0.7048 -0.1292
 9375SOL    HW229803   5.591   4.469   6.461  1.0719 -0.2610  1.5857
 9376SOL     OW29804   1.169   7.592   3.136 -0.7059  0.1447 -0.0097
 9376SOL    HW129805   1.141   7.677   3.103  0.0991 -0.1765 -1.5875
 9376SOL    HW229806   1.112   7.575   3.211 -0.7241  2.1599  0.4696
 9377SOL     OW29807   2.931   3.484   5.331  0.2483 -0.0494  0.2171
 9377SOL    HW129808   2.890   3.516   5.411 -1.4547 -2.1311  0.2067
 9377SOL    HW229809   2.993   3.418   5.360  1.5164  1.0276  0.0018
 9378SOL     OW29810   0.724   8.425   0.708 -0.2839  0.2531  0.2003
 9378SOL    HW129811   0.792   8.399   0.771  0.3207  1.7341  0.1819
 9378SOL    HW229812   0.753   8.389   0.625 -0.7927 -1.2274  0.6568
 9379SOL     OW29813   2.705   7.010   0.835  0.2990  0.2664 -0.0593
 9379SOL    HW129814   2.800   7.018   0.846  0.0251  2.2113  1.2442
 9379SOL    HW229815   2.671   7.002   0.925 -0.6787 -1.9599 -0.5890
 9380SOL     OW29816   7.164   4.989   8.660 -0.4718  0.2493  0.4626
 9380SOL    HW129817   7.147   5.057   8.595 -0.1798 -0.0847  0.0330
 9380SOL    HW229818   7.090   4.928   8.650 -0.3605  0.1324  0.3601
 9381SOL     OW29819   3.016   8.127   0.299 -0.1357  0.6674 -0.0039
 9381SOL    HW129820   3.089   8.101   0.242 -1.5847 -2.7310 -0.4180
 9381SOL    HW229821   3.055   8.138   0.385  0.8106 -1.5314 -0.1374
 9382SOL     OW29822   2.911   8.700   0.691 -0.2779 -0.1716  0.0918
 9382SOL    HW129823   2.999   8.712   0.728 -1.0815 -0.9601  2.3136
 9382SOL    HW229824   2.921   8.723   0.599  2.6506 -1.8535 -0.0815
 9383SOL     OW29825   5.700   8.876   5.751 -0.3916  0.0219  0.0700
 9383SOL    HW129826   5.740   8.918   5.827 -1.7236  0.0929  0.7424
 9383SOL    HW229827   5.768   8.819   5.717 -0.3118 -1.2568  2.2988
 9384SOL     OW29828   5.778   8.650   0.636  0.2082 -0.6314 -0.0687
 9384SOL    HW129829   5.844   8.623   0.572  0.4361 -1.6145  0.5530
 9384SOL    HW229830   5.706   8.589   0.623 -0.3897  0.1523 -0.4343
 9385SOL     OW29831   8.481   8.517   7.179  0.0930 -0.0820 -0.4076
 9385SOL    HW129832   8.522   8.564   7.106  0.0170  0.2000 -0.2692
 9385SOL    HW229833   8.552   8.500   7.240  0.0228  0.3078 -0.2191
 9386SOL     OW29834   2.083   8.689   2.170 -0.3567 -0.4491  0.1941
 9386SOL    HW129835   2.138   8.720   2.242  0.1534 -1.1502  0.1132
 9386SOL    HW229836   2.045   8.768   2.133  1.9667  0.1915 -0.8706
 9387SOL     OW29837   7.687   4.493   8.868  0.4929 -0.0814  0.1563
 9387SOL    HW129838   7.679   4.583   8.899  0.4963 -0.0375  0.0299
 9387SOL    HW229839   7.731   4.447   8.940  0.2245 -0.0476  0.3419
 9388SOL     OW29840   1.924   5.128   6.788  0.1279  0.2640 -0.4771
 9388SOL    HW129841   1.945   5.036   6.776  0.8510  0.5648 -1.6268
 9388SOL    HW229842   1.991   5.161   6.847 -0.1155  0.0689 -0.0875
 9389SOL     OW29843   3.863   2.258   5.067  0.4921 -0.2016  0.3225
 9389SOL    HW129844   3.891   2.231   4.980  1.0030  0.4258  0.2914
 9389SOL    HW229845   3.820   2.342   5.054  2.3256  0.8581  0.9323
 9390SOL     OW29846   3.186   8.872   6.090 -0.6739  0.2925  0.0248
 9390SOL    HW129847   3.266   8.883   6.142 -1.2510  0.6518  0.8461
 9390SOL    HW229848   3.213   8.817   6.016  0.2159  0.0173  0.5476
 9391SOL     OW29849   1.705   7.088   0.676 -0.3354 -0.4877 -0.1917
 9391SOL    HW129850   1.799   7.069   0.683 -0.0677  0.6994 -0.4830
 9391SOL    HW229851   1.681   7.058   0.588 -0.1224 -0.3511 -0.2970
 9392SOL     OW29852   2.523   4.614   5.818  0.2801 -0.6094 -0.0667
 9392SOL    HW129853   2.597   4.672   5.801 -0.2264  0.6281  1.7618
 9392SOL    HW229854   2.540   4.536   5.766  0.6000  1.4724 -3.1659
 9393SOL     OW29855   2.650   5.941   5.987  0.1981 -0.4878 -1.1259
 9393SOL    HW129856   2.677   5.956   5.897  0.1245  0.1707 -1.0418
 9393SOL    HW229857   2.554   5.935   5.983  0.1572  0.0671 -1.0206
 9394SOL     OW29858   9.070   1.151   5.205  0.1518  0.0054 -0.4129
 9394SOL    HW129859   9.164   1.169   5.203  0.6051 -1.3694  3.6853
 9394SOL    HW229860   9.063   1.060   5.175 -0.2174  0.9269 -3.2781
 9395SOL     OW29861   5.047   1.004   0.821  0.9105 -0.8420  0.4136
 9395SOL    HW129862   5.134   0.981   0.788  1.0207 -0.3694  0.3793
 9395SOL    HW229863   5.017   1.073   0.762  0.5740 -0.8972  0.5209
 9396SOL     OW29864   2.506   5.947   7.846  0.2136 -0.0374  0.1601
 9396SOL    HW129865   2.553   6.013   7.795 -0.3140  0.5798  0.4613
 9396SOL    HW229866   2.498   5.873   7.786 -1.9204  1.3003 -1.3119
 9397SOL     OW29867   0.352   0.960   4.338 -0.0879 -0.9413  0.1862
 9397SOL    HW129868   0.400   0.877   4.347 -2.5574 -2.3724  0.7863
 9397SOL    HW229869   0.329   0.983   4.428  1.3758  0.9242  0.1088
 9398SOL     OW29870   8.342   2.678   2.536  0.2367  0.4100 -0.1522
 9398SOL    HW129871   8.259   2.640   2.506  0.1818  1.0745 -0.8886
 9398SOL    HW229872   8.315   2.747   2.597  0.3241 -0.5475  0.9720
 9399SOL     OW29873   5.658   9.074   2.752 -0.0274  0.0388  0.4937
 9399SOL    HW129874   5.674   9.041   2.663 -0.8151 -2.3882  1.2089
 9399SOL    HW229875   5.669   9.169   2.745 -0.3762 -0.0810 -2.2673
 9400SOL     OW29876   1.245   3.492   2.636 -0.5995  0.0241  0.5753
 9400SOL    HW129877   1.318   3.449   2.681 -0.1386 -0.7555 -0.8989
 9400SOL    HW229878   1.167   3.465   2.684 -0.0815 -0.5371  1.0990
 9401SOL     OW29879   7.791   3.164   7.467  0.0030 -0.0032 -0.6346
 9401SOL    HW129880   7.736   3.151   7.389  0.8668  1.0761 -1.4430
 9401SOL    HW229881   7.774   3.255   7.492 -1.5825 -0.8529  1.4811
 9402SOL     OW29882   0.145   5.892   5.966  0.7520 -0.7223  0.2867
 9402SOL    HW129883   0.057   5.857   5.975 -0.8361  2.9331 -0.0566
 9402SOL    HW229884   0.172   5.867   5.877 -0.3966 -0.9347 -0.0026
 9403SOL     OW29885   6.505   5.438   1.238  0.8148  0.4367  0.0325
 9403SOL    HW129886   6.583   5.408   1.283  0.4649 -0.2146  0.2150
 9403SOL    HW229887   6.525   5.427   1.145  1.0055  0.4452  0.0724
 9404SOL     OW29888   6.531   5.326   8.944 -0.1783  0.0919 -0.1991
 9404SOL    HW129889   6.580   5.250   8.914 -0.8742 -0.6141  0.3978
 9404SOL    HW229890   6.570   5.400   8.899  0.3607 -0.6542 -0.9686
 9405SOL     OW29891   5.688   7.794   3.514 -0.0709  0.0772 -0.3422
 9405SOL    HW129892   5.724   7.712   3.547  0.5729  0.1766 -0.7613
 9405SOL    HW229893   5.641   7.769   3.435 -0.4073  0.0257 -0.1233
 9406SOL     OW29894   0.781   2.232   7.144  0.2943  0.5894 -0.2047
 9406SOL    HW129895   0.828   2.301   7.097  1.4786  0.2503  0.4655
 9406SOL    HW229896   0.843   2.202   7.210 -0.4235 -0.7254 -0.1203
 9407SOL     OW29897   5.628   5.528   8.073  0.1091  0.1759 -0.1968
 9407SOL    HW129898   5.535   5.508   8.062 -0.1714  1.7326 -0.8128
 9407SOL    HW229899   5.670   5.488   7.997 -0.1750  0.1409 -0.3368
 9408SOL     OW29900   6.236   4.511   4.940  0.1792  0.0982 -0.9692
 9408SOL    HW129901   6.246   4.457   5.018  1.9228  0.6159 -0.8153
 9408SOL    HW229902   6.227   4.601   4.973 -0.0463  0.2110 -1.3308
 9409SOL     OW29903   8.850   6.515   9.239  0.7791 -0.2936  0.0485
 9409SOL    HW129904   8.932   6.551   9.273  1.6470 -1.8665 -0.3325
 9409SOL    HW229905   8.796   6.592   9.221  1.6195  0.7043  1.6620
 9410SOL     OW29906   5.376   0.765   0.147 -0.0228 -0.1832  0.0206
 9410SOL    HW129907   5.394   0.686   0.198 -1.4215 -1.1346 -0.9192
 9410SOL    HW229908   5.423   0.752   0.064  1.0410  0.6911  0.4814
 9411SOL     OW29909   1.046   6.168   2.385  0.1113  0.1745  0.4428
 9411SOL    HW129910   0.993   6.089   2.397 -0.4449  0.6398  1.0735
 9411SOL    HW229911   1.119   6.139   2.331 -0.2128 -0.7222  0.4693
 9412SOL     OW29912   7.094   0.997   6.592 -0.2680  0.4191 -0.2364
 9412SOL    HW129913   7.073   1.064   6.527 -0.7060  0.6570  0.1473
 9412SOL    HW229914   7.013   0.946   6.601 -0.6656  1.2689  1.1673
 9413SOL     OW29915   0.544   6.062   3.276  0.0428  0.1036 -0.3286
 9413SOL    HW129916   0.525   6.024   3.362  2.1135 -1.4863 -0.5475
 9413SOL    HW229917   0.600   6.138   3.295 -0.5573  0.5144 -0.1914
 9414SOL     OW29918   7.376   0.148   2.448 -0.2784  0.6839 -0.0154
 9414SOL    HW129919   7.402   0.089   2.378  0.2269  1.3393 -0.3880
 9414SOL    HW229920   7.282   0.136   2.457 -0.0347 -0.8835  0.5652
 9415SOL     OW29921   9.134   0.018   8.885  0.8851 -0.1525  0.2222
 9415SOL    HW129922   9.154   0.077   8.958  0.8660  1.2374 -0.8744
 9415SOL    HW229923   9.085  -0.053   8.925  0.8574  0.5999  1.5686
 9416SOL     OW29924   2.773   2.365   1.362 -0.5530 -0.0987  0.1647
 9416SOL    HW129925   2.847   2.309   1.384 -0.9225 -0.1392  1.3855
 9416SOL    HW229926   2.812   2.443   1.323  0.0173 -0.8446 -0.7580
 9417SOL     OW29927   9.074   9.016   8.857 -0.3649  0.5834 -0.2079
 9417SOL    HW129928   8.981   9.034   8.844 -0.1268  1.6253 -0.5374
 9417SOL    HW229929   9.077   8.948   8.924 -1.3677  0.3540 -0.3915
 9418SOL     OW29930   5.326   8.610   5.727 -0.4147 -0.1487 -0.3298
 9418SOL    HW129931   5.403   8.577   5.774  1.0130  1.3437 -1.5620
 9418SOL    HW229932   5.255   8.605   5.791  0.2751 -3.2043  0.3072
 9419SOL     OW29933   2.049   1.792   8.760  0.4987  0.0033 -0.5516
 9419SOL    HW129934   1.977   1.845   8.793 -0.5809 -0.8761 -1.4949
 9419SOL    HW229935   2.125   1.851   8.765 -0.4968  1.3338 -0.6872
 9420SOL     OW29936   8.488   2.101   7.440  0.1710 -0.4614 -0.1555
 9420SOL    HW129937   8.458   2.163   7.507  1.3938 -1.2903  1.1701
 9420SOL    HW229938   8.512   2.022   7.489  0.5759 -1.2664 -1.6271
 9421SOL     OW29939   4.114   2.167   5.243  0.1485  0.0461  0.1004
 9421SOL    HW129940   4.070   2.152   5.327  0.4614  0.1778  0.2921
 9421SOL    HW229941   4.044   2.194   5.184 -0.1969 -0.8125  0.1097
 9422SOL     OW29942   8.822   8.679   2.682  0.1137  0.5821  0.1800
 9422SOL    HW129943   8.897   8.709   2.734 -0.0027  1.0072  0.1055
 9422SOL    HW229944   8.782   8.611   2.736  1.4170 -0.6955 -0.4360
 9423SOL     OW29945   2.051   9.246   9.167 -0.7041  0.3480 -0.3676
 9423SOL    HW129946   1.984   9.187   9.132 -2.0505  1.8834 -0.4448
 9423SOL    HW229947   2.004   9.299   9.231  1.1355 -0.6235  1.8599
 9424SOL     OW29948   3.570   4.379   6.308 -0.1792  0.8622  0.6270
 9424SOL    HW129949   3.634   4.342   6.369 -0.4218  0.2516  0.5250
 9424SOL    HW229950   3.530   4.302   6.267 -0.9842  1.2289  0.7070
 9425SOL     OW29951   4.280   2.762   3.644 -0.1325 -0.6556 -0.0542
 9425SOL    HW129952   4.252   2.796   3.729  0.9940 -0.8748  0.4237
 9425SOL    HW229953   4.202   2.765   3.589 -1.2912 -2.1145  1.4814
 9426SOL     OW29954   1.255   4.585   8.117  0.6147 -0.0944  0.0373
 9426SOL    HW129955   1.261   4.540   8.201 -1.1772 -2.3306 -0.9874
 9426SOL    HW229956   1.220   4.672   8.138 -0.8253 -1.0021  1.4841
 9427SOL     OW29957   2.382   8.159   1.385 -0.0327  0.2524 -0.1962
 9427SOL    HW129958   2.356   8.086   1.330  1.6433 -1.5778  1.3690
 9427SOL    HW229959   2.404   8.229   1.323 -0.1514 -1.0676 -1.7650
 9428SOL     OW29960   0.384   6.053   2.674  0.0504  0.5316 -0.2671
 9428SOL    HW129961   0.455   6.039   2.611  0.1086 -0.6255  0.0576
 9428SOL    HW229962   0.403   5.994   2.746 -0.6858  0.9704  0.2914
 9429SOL     OW29963   1.266   5.144   0.519  0.1590  0.1523  0.0295
 9429SOL    HW129964   1.296   5.231   0.492 -0.4950  0.4068  0.1273
 9429SOL    HW229965   1.347   5.099   0.546  0.6236  0.4008 -0.9218
 9430SOL     OW29966   7.301   7.430   1.367 -0.4061  0.2037 -0.2287
 9430SOL    HW129967   7.363   7.391   1.428 -0.9591 -0.2189  0.0709
 9430SOL    HW229968   7.308   7.376   1.288  0.1435  0.6106 -0.4595
 9431SOL     OW29969   3.543   0.947   4.350 -0.0619 -0.1760 -0.5407
 9431SOL    HW129970   3.448   0.946   4.365 -0.3125 -0.2732 -2.0593
 9431SOL    HW229971   3.574   1.023   4.399 -1.0619  0.4231 -0.8287
 9432SOL     OW29972   8.439   6.703   2.528 -0.0598 -0.3257 -0.5615
 9432SOL    HW129973   8.387   6.722   2.449  0.2190  0.2300 -0.6171
 9432SOL    HW229974   8.439   6.608   2.534  0.4796 -0.4078 -1.6215
 9433SOL     OW29975   5.497   4.818   5.258 -0.1290 -0.2185 -0.6689
 9433SOL    HW129976   5.469   4.901   5.297  0.6207  0.0971 -0.8028
 9433SOL    HW229977   5.539   4.771   5.330 -0.0347 -0.2379 -0.7365
 9434SOL     OW29978   6.535   4.127   0.419  0.0593 -0.1159  0.3196
 9434SOL    HW129979   6.532   4.047   0.366 -1.7658 -0.7547  1.3599
 9434SOL    HW229980   6.562   4.097   0.506 -0.2025  0.4611  0.6012
 9435SOL     OW29981   1.729   5.032   3.066  0.6248  0.2544 -0.0707
 9435SOL    HW129982   1.684   5.116   3.057 -3.3606 -1.7576 -0.2583
 9435SOL    HW229983   1.781   5.041   3.146  0.4842  2.9767 -0.2448
 9436SOL     OW29984   5.347   8.721   7.031 -0.0047 -0.9395 -0.4684
 9436SOL    HW129985   5.322   8.761   6.947 -2.7978  0.2165  0.8515
 9436SOL    HW229986   5.442   8.735   7.036 -0.0903  0.7593 -2.5187
 9437SOL     OW29987   7.131   9.005   8.931 -0.1096  0.1267  0.5912
 9437SOL    HW129988   7.182   8.944   8.879 -0.6109  1.5307 -1.6030
 9437SOL    HW229989   7.193   9.040   8.995  0.2332 -2.4438  1.7423
 9438SOL     OW29990   6.059   7.961   1.203  0.6518  0.0855  0.3579
 9438SOL    HW129991   6.091   8.047   1.175 -0.5301  0.1878 -0.6872
 9438SOL    HW229992   6.018   7.924   1.126  1.2195 -1.4756  0.7829
 9439SOL     OW29993   1.249   5.860   3.548 -0.3336  0.6802 -0.1981
 9439SOL    HW129994   1.257   5.956   3.548  1.1578  0.5640 -1.0906
 9439SOL    HW229995   1.285   5.833   3.632 -1.4271  0.9545  0.3608
 9440SOL     OW29996   1.109   6.151   0.402  0.1440  0.2816  0.2442
 9440SOL    HW129997   1.097   6.242   0.377  0.0046  0.4370  0.8774
 9440SOL    HW229998   1.155   6.155   0.486 -1.4699 -0.2043  1.1621
 9441SOL     OW29999   2.586   0.875   1.509  0.2420 -0.0924 -0.2142
 9441SOL    HW130000   2.532   0.811   1.556  0.0845  0.2702  0.1021
 9441SOL    HW230001   2.528   0.951   1.498  0.2544 -0.1994 -1.0595
 9442SOL     OW30002   0.317   7.549   7.298 -0.2468  0.0875 -0.0362
 9442SOL    HW130003   0.311   7.490   7.373  0.1885 -1.0296 -0.8714
 9442SOL    HW230004   0.384   7.510   7.241  0.4817  1.6982 -0.3263
 9443SOL     OW30005   6.229   7.225   2.135  0.2426  0.1866  0.0181
 9443SOL    HW130006   6.160   7.216   2.201  1.0299 -1.1636  0.6685
 9443SOL    HW230007   6.297   7.276   2.177  0.7997 -0.7814  0.3105
 9444SOL     OW30008   0.234   4.734   6.909  0.2655 -0.3362 -0.3840
 9444SOL    HW130009   0.270   4.727   6.820 -0.1624 -1.4698 -0.4663
 9444SOL    HW230010   0.177   4.658   6.918 -0.5625  0.3794  0.4679
 9445SOL     OW30011   4.356   5.217   9.194  0.8178  0.2047  0.0322
 9445SOL    HW130012   4.321   5.306   9.196  0.0354  0.0027 -2.4507
 9445SOL    HW230013   4.451   5.229   9.195  0.7338  1.1361 -1.4403
 9446SOL     OW30014   7.812   7.897   8.725  0.3006 -0.3481  0.3886
 9446SOL    HW130015   7.770   7.902   8.811 -1.6701 -0.8434 -0.4964
 9446SOL    HW230016   7.742   7.922   8.664  2.0448  1.2893 -0.9755
 9447SOL     OW30017   6.114   5.273   1.979 -0.5982 -0.0787 -0.2875
 9447SOL    HW130018   6.166   5.261   2.059 -2.4461 -1.2591  0.7774
 9447SOL    HW230019   6.152   5.350   1.937  1.9823 -0.8923  0.4566
 9448SOL     OW30020   5.626   8.722   4.029 -0.1910 -0.3234  0.4163
 9448SOL    HW130021   5.564   8.668   3.979 -0.2054 -0.7873  0.9303
 9448SOL    HW230022   5.668   8.660   4.089 -0.2861  0.2596  1.0886
 9449SOL     OW30023   6.385   3.289   0.417 -0.0180  0.2461 -0.5378
 9449SOL    HW130024   6.302   3.242   0.402 -0.9386  1.3550  0.9110
 9449SOL    HW230025   6.425   3.242   0.490  0.0310  0.4727 -0.4198
 9450SOL     OW30026   9.217   4.095   5.383  0.3142  0.2925 -0.3592
 9450SOL    HW130027   9.124   4.076   5.371  0.1286  1.4346 -0.8174
 9450SOL    HW230028   9.241   4.048   5.462 -0.1712 -1.6045 -1.3002
 9451SOL     OW30029   5.130   5.319   1.014 -0.0778  0.1705 -0.5717
 9451SOL    HW130030   5.039   5.290   1.020  0.0687 -0.2360 -0.3123
 9451SOL    HW230031   5.124   5.410   0.985 -0.5596  0.0777 -0.7744
 9452SOL     OW30032   1.993   7.887   6.902 -0.9059  0.2743  0.4837
 9452SOL    HW130033   1.926   7.955   6.898 -2.3038 -0.9898  1.7326
 9452SOL    HW230034   1.975   7.841   6.984  2.2523  0.6834  1.4918
 9453SOL     OW30035   7.493   6.385   8.417  0.0626 -0.3668 -0.0559
 9453SOL    HW130036   7.533   6.421   8.496 -0.0778 -0.0329 -0.1344
 9453SOL    HW230037   7.514   6.292   8.419 -2.1926 -0.8785  1.7385
 9454SOL     OW30038   3.925   9.074   8.222  0.1580 -0.3019 -0.3764
 9454SOL    HW130039   3.968   9.024   8.153  0.8953 -0.8523  0.4634
 9454SOL    HW230040   3.885   9.008   8.279 -0.5472  0.1518 -0.3395
 9455SOL     OW30041   3.949   7.858   6.004  0.3705  0.1944 -0.1724
 9455SOL    HW130042   3.976   7.777   5.960 -0.3765  1.1886 -2.5432
 9455SOL    HW230043   3.869   7.833   6.051  0.3505 -0.5321 -0.5730
 9456SOL     OW30044   4.102   4.275   1.957  0.4072  0.1254  0.0762
 9456SOL    HW130045   4.128   4.183   1.953  0.0729  0.0498 -0.4445
 9456SOL    HW230046   4.014   4.273   1.996  0.3425  0.2120 -0.0637
 9457SOL     OW30047   8.737   6.263   7.181 -0.1459 -0.1333 -0.2122
 9457SOL    HW130048   8.752   6.173   7.154  1.0917  0.0071 -0.0502
 9457SOL    HW230049   8.787   6.315   7.117 -0.5123  0.4057 -0.0590
 9458SOL     OW30050   7.559   3.364   1.698  0.2408 -0.2259 -0.2781
 9458SOL    HW130051   7.557   3.453   1.664 -3.1080 -1.1751 -2.9743
 9458SOL    HW230052   7.640   3.326   1.662  1.3978  1.5473  0.4413
 9459SOL     OW30053   8.743   2.842   4.278 -0.0928 -0.1798 -0.0973
 9459SOL    HW130054   8.698   2.763   4.249  0.0250 -0.1335 -0.4099
 9459SOL    HW230055   8.681   2.913   4.261 -0.3823 -0.2564  0.6203
 9460SOL     OW30056   4.730   4.573   0.076 -0.0122 -0.0122  0.2445
 9460SOL    HW130057   4.708   4.539   0.162  1.2224  0.8029  0.8972
 9460SOL    HW230058   4.708   4.502   0.016 -3.0131  0.2485  0.9690
 9461SOL     OW30059   1.995   1.434   7.916  0.3033  0.4607 -0.0967
 9461SOL    HW130060   1.904   1.444   7.890  0.5030  0.1028 -0.9459
 9461SOL    HW230061   1.992   1.422   8.011 -0.6641 -1.2744 -0.3345
 9462SOL     OW30062   6.282   0.705   1.630  0.3713 -0.0061 -0.2661
 9462SOL    HW130063   6.211   0.766   1.612  0.9962  0.5284 -0.9540
 9462SOL    HW230064   6.358   0.744   1.587  1.0276 -0.6897  0.2653
 9463SOL     OW30065   7.729   4.929   6.591  0.2071 -0.1490 -0.1365
 9463SOL    HW130066   7.725   5.006   6.647 -0.0535 -1.9816  2.4568
 9463SOL    HW230067   7.812   4.938   6.543  1.6268  0.2863  2.3322
 9464SOL     OW30068   0.143   7.240   6.007 -0.1639 -0.2552  0.8654
 9464SOL    HW130069   0.191   7.159   5.990 -2.0761 -1.4786  1.0433
 9464SOL    HW230070   0.174   7.269   6.092  0.4670 -0.8616  0.8450
 9465SOL     OW30071   3.789   3.266   5.161  0.1513  0.6738  0.1956
 9465SOL    HW130072   3.880   3.271   5.193  1.7656  1.1771 -4.0838
 9465SOL    HW230073   3.760   3.178   5.184  2.8253 -0.5673 -0.9514
 9466SOL     OW30074   5.645   3.925   2.963  0.3205  0.1202 -0.0463
 9466SOL    HW130075   5.601   3.841   2.947  1.8611 -0.4400 -1.4507
 9466SOL    HW230076   5.721   3.902   3.016  1.8078  0.3379 -2.0352
 9467SOL     OW30077   9.172   5.743   8.772  0.1051  0.3583  0.2701
 9467SOL    HW130078   9.217   5.678   8.826  0.1280  0.9325  0.9450
 9467SOL    HW230079   9.135   5.693   8.699  0.1635 -0.4046  0.7641
 9468SOL     OW30080   8.248   8.822   7.325 -0.2498 -0.9439 -0.1170
 9468SOL    HW130081   8.207   8.908   7.325 -0.3282 -0.9680  1.9771
 9468SOL    HW230082   8.185   8.765   7.280 -0.7838 -0.1982 -0.3151
 9469SOL     OW30083   3.442   1.017   4.698 -0.2140 -0.1679 -0.0112
 9469SOL    HW130084   3.494   1.063   4.763 -0.0884 -0.6790  0.2474
 9469SOL    HW230085   3.377   1.082   4.670  0.0181  0.1960  0.2864
 9470SOL     OW30086   0.567   3.479   0.766 -0.2841 -0.0167 -0.0617
 9470SOL    HW130087   0.624   3.462   0.690  0.0629  0.5583  0.0665
 9470SOL    HW230088   0.503   3.409   0.764  0.0240 -0.2850 -0.6084
 9471SOL     OW30089   8.627   3.302   0.333  0.7419 -0.1508  0.1214
 9471SOL    HW130090   8.577   3.364   0.279 -0.6105 -0.7287  0.7052
 9471SOL    HW230091   8.718   3.316   0.306  0.0792 -0.6795 -2.5916
 9472SOL     OW30092   5.051   6.906   3.104  0.3609 -0.7588 -0.0858
 9472SOL    HW130093   5.008   6.822   3.119 -1.0355  0.1345  0.9601
 9472SOL    HW230094   4.985   6.972   3.124  1.1561  0.6017 -1.7874
 9473SOL     OW30095   5.053   5.307   2.450  0.3020 -0.6037  0.1788
 9473SOL    HW130096   5.080   5.238   2.512  2.0414 -0.1278 -0.0041
 9473SOL    HW230097   5.119   5.375   2.461 -0.0537  0.0023 -1.3606
 9474SOL     OW30098   0.762   0.377   9.063 -0.1830  0.9717  0.0831
 9474SOL    HW130099   0.716   0.377   8.979  0.3972  0.5315 -0.2355
 9474SOL    HW230100   0.834   0.439   9.051  0.2364  0.4828  0.0695
 9475SOL     OW30101   0.233   4.065   6.046 -0.1752 -0.0784  0.4678
 9475SOL    HW130102   0.325   4.074   6.067 -0.0139 -0.5756 -0.0056
 9475SOL    HW230103   0.205   4.152   6.016  0.9094 -0.6539 -2.3794
 9476SOL     OW30104   0.006   6.701   1.080  0.3119  0.1216 -0.2151
 9476SOL    HW130105  -0.089   6.713   1.086  0.6054  2.3803  0.4340
 9476SOL    HW230106   0.029   6.653   1.160 -0.2506 -0.1679 -0.2255
 9477SOL     OW30107   6.892   0.400   5.466 -0.1036 -0.3075  0.3478
 9477SOL    HW130108   6.861   0.481   5.426 -0.6645 -1.1802 -1.0091
 9477SOL    HW230109   6.826   0.378   5.532 -1.4388 -1.1699 -1.2495
 9478SOL     OW30110   2.261   2.115   3.373 -0.9664  0.3651 -0.0831
 9478SOL    HW130111   2.275   2.061   3.295  0.1937  0.1502  0.2595
 9478SOL    HW230112   2.241   2.052   3.442 -2.1889  0.5699 -0.2461
 9479SOL     OW30113   5.554   7.732   6.901  0.2829  0.8494  0.1105
 9479SOL    HW130114   5.542   7.822   6.930  2.0742  2.2506 -3.1350
 9479SOL    HW230115   5.506   7.726   6.818 -1.1098 -1.6917  1.0192
 9480SOL     OW30116   2.227   8.822   8.925  0.1650  0.3277 -0.5644
 9480SOL    HW130117   2.248   8.916   8.928 -1.0620  0.7097 -2.7413
 9480SOL    HW230118   2.131   8.820   8.930  0.2048 -0.8378 -0.2830
 9481SOL     OW30119   4.054   6.171   1.336 -0.2405  0.0587  0.0701
 9481SOL    HW130120   4.120   6.134   1.394  0.4946  1.0053 -0.1559
 9481SOL    HW230121   4.017   6.244   1.385  1.0610  1.4637 -1.0326
 9482SOL     OW30122   2.349   4.376   5.309  0.1575 -0.2218 -0.1328
 9482SOL    HW130123   2.370   4.334   5.225  0.0206 -1.4352  0.4255
 9482SOL    HW230124   2.290   4.315   5.352  0.2440  0.3849  0.8658
 9483SOL     OW30125   9.226   8.353   4.078  0.2891 -0.0635  0.4861
 9483SOL    HW130126   9.308   8.386   4.043  0.2769 -1.1896 -0.6251
 9483SOL    HW230127   9.251   8.290   4.145  0.3775 -1.1817 -0.5629
 9484SOL     OW30128   6.685   1.225   7.830 -0.0277  0.1006  0.5244
 9484SOL    HW130129   6.730   1.149   7.793 -0.6438 -0.2193  0.4300
 9484SOL    HW230130   6.732   1.244   7.911  0.0294 -0.4728  0.6240
 9485SOL     OW30131   8.534   7.834   3.332 -0.0903 -0.0421  0.1232
 9485SOL    HW130132   8.582   7.752   3.346 -1.2156 -0.5113  1.2496
 9485SOL    HW230133   8.601   7.895   3.299  1.3475 -0.6077  1.9241
 9486SOL     OW30134   2.075   5.457   2.242  0.2923 -0.6547  0.4815
 9486SOL    HW130135   2.104   5.420   2.325  0.4998  3.1988  2.2591
 9486SOL    HW230136   2.156   5.481   2.196  0.1267  0.4706  0.7630
 9487SOL     OW30137   9.029   1.195   1.647  0.0022 -0.2083  0.0120
 9487SOL    HW130138   9.077   1.268   1.607 -1.1419  0.9796  0.7668
 9487SOL    HW230139   9.082   1.171   1.724  0.4367 -0.2580 -0.2998
 9488SOL     OW30140   3.293   7.779   8.955 -0.3871  0.2451 -0.0793
 9488SOL    HW130141   3.220   7.820   8.907  0.2047  0.6581 -0.6289
 9488SOL    HW230142   3.251   7.737   9.031 -1.2000  0.4703 -0.3987
 9489SOL     OW30143   3.659   2.259   2.655 -0.3465 -0.2619 -0.5085
 9489SOL    HW130144   3.617   2.312   2.587  0.5107  1.4626  0.2509
 9489SOL    HW230145   3.680   2.322   2.724 -0.2789 -1.8105  0.9116
 9490SOL     OW30146   6.255   5.881   2.972 -0.7085 -0.7612  0.5129
 9490SOL    HW130147   6.265   5.794   2.934  0.3287 -0.3525 -0.1646
 9490SOL    HW230148   6.279   5.870   3.064  1.9352 -0.6656 -0.1489
 9491SOL     OW30149   6.361   0.921   3.719  0.1633  0.0149 -0.2715
 9491SOL    HW130150   6.358   0.927   3.815  0.1654 -0.3088 -0.2525
 9491SOL    HW230151   6.315   1.000   3.690  2.0185  1.2102 -0.0246
 9492SOL     OW30152   3.954   5.985   5.351  0.2585 -0.3327  0.0377
 9492SOL    HW130153   3.889   5.927   5.311 -0.1252 -0.1639  0.4039
 9492SOL    HW230154   4.035   5.934   5.353  0.4150 -0.1703 -1.4098
 9493SOL     OW30155   8.205   5.441   1.694 -0.0441  0.0239  0.6022
 9493SOL    HW130156   8.291   5.438   1.653 -0.5231 -0.7593 -0.3725
 9493SOL    HW230157   8.192   5.533   1.717 -0.0865  0.6155 -1.7268
 9494SOL     OW30158   2.591   5.792   8.339 -0.1834  0.2755  0.2952
 9494SOL    HW130159   2.673   5.747   8.317  1.0537  1.6602  1.9267
 9494SOL    HW230160   2.560   5.827   8.256  0.9935 -0.0989 -0.3188
 9495SOL     OW30161   2.112   1.324   7.527 -0.2205  0.0109 -0.4495
 9495SOL    HW130162   2.121   1.258   7.459 -1.7236 -0.5907 -0.0726
 9495SOL    HW230163   2.148   1.404   7.488 -0.7139 -0.4281 -1.8037
 9496SOL     OW30164   1.360   5.371   3.118  0.4652 -0.5856 -0.2084
 9496SOL    HW130165   1.329   5.281   3.106  0.9331 -0.6881 -0.6589
 9496SOL    HW230166   1.307   5.405   3.190  0.2416 -1.2008 -0.0803
 9497SOL     OW30167   4.793   6.941   1.527 -0.0178  0.1012  0.5654
 9497SOL    HW130168   4.851   6.948   1.603  0.0582 -0.2815  0.5420
 9497SOL    HW230169   4.747   7.025   1.524  1.3511  0.8346 -0.0929
 9498SOL     OW30170   1.844   7.325   0.460  0.5388 -0.0144  0.0208
 9498SOL    HW130171   1.886   7.356   0.540  0.2459 -0.2863  0.2850
 9498SOL    HW230172   1.896   7.250   0.433 -0.5923 -1.2243  1.1347
 9499SOL     OW30173   4.759   8.642   2.853 -0.4502 -0.7195  0.1751
 9499SOL    HW130174   4.705   8.667   2.928  0.3376  0.9876  0.2090
 9499SOL    HW230175   4.825   8.584   2.890  0.9375  1.4250  1.1527
 9500SOL     OW30176   7.805   4.943   6.982 -0.0860 -0.3549 -0.2580
 9500SOL    HW130177   7.884   4.895   6.956  0.2652  0.1907 -0.1837
 9500SOL    HW230178   7.797   5.013   6.917 -0.6793 -0.5905 -0.4456
 9501SOL     OW30179   1.673   5.132   5.440  0.0857 -0.1881  0.6897
 9501SOL    HW130180   1.764   5.117   5.416 -0.4416 -0.2313 -1.3680
 9501SOL    HW230181   1.668   5.227   5.454 -0.2285  0.2713 -2.2698
 9502SOL     OW30182   1.718   3.195   7.683 -0.2375 -0.1053 -0.2187
 9502SOL    HW130183   1.750   3.113   7.722  0.6132  0.5549  0.5091
 9502SOL    HW230184   1.786   3.219   7.620  0.1389  0.7006  0.4923
 9503SOL     OW30185   8.751   2.072   6.660 -0.1788 -0.0128  0.0829
 9503SOL    HW130186   8.676   2.035   6.706  0.2109 -0.6250  0.2361
 9503SOL    HW230187   8.762   2.016   6.583  1.1327 -0.9432  0.9300
 9504SOL     OW30188   8.760   8.518   4.017  0.0858  0.1932 -0.8110
 9504SOL    HW130189   8.712   8.578   4.073 -0.8197 -0.2265 -1.1187
 9504SOL    HW230190   8.796   8.573   3.947 -1.5993  0.2433 -1.6579
 9505SOL     OW30191   2.019   4.633   0.512  0.5016  0.0444  0.0533
 9505SOL    HW130192   2.095   4.661   0.461 -0.0048  1.4200  0.0269
 9505SOL    HW230193   1.996   4.709   0.565 -0.8369 -0.3498  0.0714
 9506SOL     OW30194   0.899   0.888   8.273  0.1215  0.7252  0.3723
 9506SOL    HW130195   0.992   0.890   8.292  0.5743  0.1436 -1.7032
 9506SOL    HW230196   0.874   0.796   8.283 -0.0910  0.7694  0.2518
 9507SOL     OW30197   2.809   2.723   5.030  0.4363 -0.3452 -0.5411
 9507SOL    HW130198   2.851   2.637   5.028 -0.9133 -1.0118 -0.5636
 9507SOL    HW230199   2.777   2.731   5.120  1.7596  0.7313 -0.1496
 9508SOL     OW30200   7.220   0.841   1.297  0.3223 -0.0123  0.1675
 9508SOL    HW130201   7.246   0.749   1.287 -0.0584 -0.0104 -0.8641
 9508SOL    HW230202   7.296   0.891   1.267  0.1978  0.0037 -0.1249
 9509SOL     OW30203   6.993   4.257   1.980 -0.3011  0.6076 -0.2367
 9509SOL    HW130204   6.909   4.294   1.951 -0.8271 -0.3219  0.0516
 9509SOL    HW230205   6.999   4.281   2.073 -0.9994 -0.6415  0.1428
 9510SOL     OW30206   3.284   0.360   7.706  0.0072  0.0086  0.0216
 9510SOL    HW130207   3.302   0.272   7.739  2.2623 -0.3630 -2.1012
 9510SOL    HW230208   3.357   0.413   7.738 -1.3542  1.1473  1.3165
 9511SOL     OW30209   1.997   7.594   5.235 -0.2497  0.1733 -0.1424
 9511SOL    HW130210   1.966   7.670   5.284 -0.7289  0.2160 -0.5193
 9511SOL    HW230211   1.922   7.535   5.231  0.5979 -1.0710  1.6144
 9512SOL     OW30212   1.596   0.599   3.209 -0.3621 -0.0208  0.0248
 9512SOL    HW130213   1.682   0.596   3.167 -0.3700 -0.5520  0.0501
 9512SOL    HW230214   1.614   0.583   3.302 -0.7382 -2.5361 -0.3082
 9513SOL     OW30215   4.039   7.738   3.567 -0.7423  0.1546  0.0597
 9513SOL    HW130216   4.015   7.740   3.659 -1.8021 -2.4044 -0.0996
 9513SOL    HW230217   4.134   7.750   3.566 -0.4589 -1.6492  1.6663
 9514SOL     OW30218   3.404   2.565   0.270  0.9950  0.2355 -0.1013
 9514SOL    HW130219   3.455   2.633   0.226  0.0044  1.7589  1.0419
 9514SOL    HW230220   3.342   2.613   0.325  1.2930 -1.5996  1.9266
 9515SOL     OW30221   6.692   6.982   8.322 -0.8341  0.1900 -0.0301
 9515SOL    HW130222   6.669   7.055   8.380 -0.7731  0.5518 -0.4589
 9515SOL    HW230223   6.784   6.998   8.299 -1.0772  0.4502 -0.8215
 9516SOL     OW30224   1.499   0.429   6.820  0.0072 -0.2727  0.1992
 9516SOL    HW130225   1.584   0.385   6.821  0.0107 -0.2780 -0.2353
 9516SOL    HW230226   1.516   0.511   6.772 -0.8187 -1.4759 -2.2443
 9517SOL     OW30227   7.762   2.781   8.006 -0.2733  0.1752 -0.1874
 9517SOL    HW130228   7.670   2.801   8.024 -0.7804  0.7725 -3.0802
 9517SOL    HW230229   7.770   2.790   7.911  3.0862  1.3859  0.1394
 9518SOL     OW30230   4.536   0.049   6.714 -0.0596  0.4300 -0.1167
 9518SOL    HW130231   4.549  -0.009   6.789 -0.9473  1.5111  0.8972
 9518SOL    HW230232   4.524   0.135   6.753 -1.4167  0.8587 -1.4422
 9519SOL     OW30233   8.138   7.966   4.013  0.2244 -0.3672 -0.1976
 9519SOL    HW130234   8.177   7.997   4.095  0.0868  0.0975 -0.3038
 9519SOL    HW230235   8.104   7.879   4.033 -1.8702  0.6767  0.8790
 9520SOL     OW30236   8.574   6.769   5.019 -0.1824  0.9269 -0.3154
 9520SOL    HW130237   8.664   6.786   5.047 -0.0771 -0.4134  0.1813
 9520SOL    HW230238   8.539   6.856   4.998  0.9360  1.5540  0.3560
 9521SOL     OW30239   8.829   4.565   6.988  0.0327  0.0725  0.6669
 9521SOL    HW130240   8.837   4.491   6.927 -1.6978 -1.7894  2.6315
 9521SOL    HW230241   8.920   4.587   7.010  0.5893 -1.0151 -0.4718
 9522SOL     OW30242   5.550   1.683   7.509  0.0937 -0.4817  0.3682
 9522SOL    HW130243   5.570   1.725   7.592  2.0253  1.9687 -1.2489
 9522SOL    HW230244   5.535   1.591   7.531  1.4521 -0.0541  3.2938
 9523SOL     OW30245   3.230   1.210   2.601  0.2235 -0.2410  0.5094
 9523SOL    HW130246   3.291   1.281   2.623  0.7244 -1.6883  4.3225
 9523SOL    HW230247   3.286   1.137   2.578 -0.2219 -0.3019 -0.4083
 9524SOL     OW30248   5.789   4.607   8.368  0.5815 -0.4012 -1.4508
 9524SOL    HW130249   5.832   4.688   8.397 -0.3165  0.0497 -1.3344
 9524SOL    HW230250   5.825   4.539   8.425 -0.9871  0.4381  0.6285
 9525SOL     OW30251   9.109   8.453   0.432  0.0406  0.3413  0.4467
 9525SOL    HW130252   9.107   8.385   0.500 -2.0334 -0.0132  0.0751
 9525SOL    HW230253   9.017   8.476   0.420  0.2759 -0.3673 -3.0248
 9526SOL     OW30254   4.594   9.164   6.042 -0.0177  0.3083  0.3109
 9526SOL    HW130255   4.589   9.259   6.056  0.2683  0.4474 -0.4887
 9526SOL    HW230256   4.670   9.153   5.984  0.0191 -0.4229  0.4959
 9527SOL     OW30257   2.240   0.596   7.722 -0.2166  0.0071  0.0642
 9527SOL    HW130258   2.291   0.603   7.641  0.5982 -1.4477  0.4354
 9527SOL    HW230259   2.306   0.588   7.791 -0.8364  3.4697  1.1616
 9528SOL     OW30260   2.992   1.355   6.868  0.1632  0.2272  0.1721
 9528SOL    HW130261   3.048   1.430   6.889  0.3451 -0.0358  0.6268
 9528SOL    HW230262   3.044   1.303   6.806  0.7739 -0.4606  1.2544
 9529SOL     OW30263   0.362   4.678   6.072 -0.0180 -0.0714 -0.1281
 9529SOL    HW130264   0.309   4.723   6.006  0.9500  1.9798  0.4636
 9529SOL    HW230265   0.354   4.733   6.150  1.1701 -0.9550  0.6216
 9530SOL     OW30266   8.895   3.272   2.486 -0.0569  0.1791  0.6273
 9530SOL    HW130267   8.937   3.276   2.400 -0.9166 -0.0904  0.1893
 9530SOL    HW230268   8.871   3.363   2.504 -0.5323  0.1303  0.2495
 9531SOL     OW30269   0.188   1.531   5.779  0.0120  0.5888  0.7046
 9531SOL    HW130270   0.150   1.615   5.805  1.2231  1.9346 -1.7036
 9531SOL    HW230271   0.282   1.546   5.779  0.1298  0.4118 -3.2700
 9532SOL     OW30272   0.224   6.417   3.406 -0.4521  0.2696 -0.1060
 9532SOL    HW130273   0.265   6.458   3.329  0.9452 -0.8241  0.0304
 9532SOL    HW230274   0.143   6.466   3.419  0.8128  2.5463 -0.3924
 9533SOL     OW30275   8.143   4.738   5.075 -0.4595 -0.1540  0.1330
 9533SOL    HW130276   8.213   4.698   5.022  1.7239  0.0837  2.7260
 9533SOL    HW230277   8.062   4.709   5.033  1.1594 -1.7190 -2.0556
 9534SOL     OW30278   6.757   7.080   0.268  0.1299 -0.3374  0.2960
 9534SOL    HW130279   6.682   7.126   0.306  1.9227  1.8036  1.3365
 9534SOL    HW230280   6.776   7.129   0.187 -2.5589 -3.8007 -2.5952
 9535SOL     OW30281   9.172   1.259   3.057  0.1688  0.3129  0.2739
 9535SOL    HW130282   9.236   1.275   2.987 -0.1393 -0.0944 -0.1015
 9535SOL    HW230283   9.221   1.276   3.138  1.1110 -1.2169  0.0358
 9536SOL     OW30284   9.050   7.108   5.791 -0.0012 -1.0512  0.2628
 9536SOL    HW130285   9.079   7.038   5.849  0.4837 -0.7492  0.3879
 9536SOL    HW230286   9.128   7.131   5.739  0.1344  0.1093  0.9518
 9537SOL     OW30287   3.190   1.793   2.092 -0.5639  0.1257  0.3967
 9537SOL    HW130288   3.206   1.757   2.179  0.2297 -0.6986 -0.0716
 9537SOL    HW230289   3.269   1.771   2.042 -0.4171  1.7997 -0.1483
 9538SOL     OW30290   0.025   5.368   0.954  0.6650  0.1182  0.0147
 9538SOL    HW130291   0.007   5.303   0.886 -0.6282 -0.2318  0.6650
 9538SOL    HW230292  -0.001   5.324   1.035 -0.8385  1.6608  0.4040
 9539SOL     OW30293   9.277   1.336   5.447  0.0785  0.5502  0.6013
 9539SOL    HW130294   9.297   1.334   5.353 -0.8646 -1.1791  0.4226
 9539SOL    HW230295   9.272   1.429   5.468  0.9814  0.9581 -0.9165
 9540SOL     OW30296   2.869   3.805   2.294  0.2848  0.6339 -0.1380
 9540SOL    HW130297   2.892   3.833   2.382 -0.0366 -0.0753  0.1735
 9540SOL    HW230298   2.950   3.766   2.259  0.4089  0.9066 -0.1579
 9541SOL     OW30299   1.682   3.461   4.349  0.4879  0.5170  0.6246
 9541SOL    HW130300   1.743   3.388   4.363 -1.1963 -0.8474  1.0849
 9541SOL    HW230301   1.662   3.457   4.255  2.0638  1.7655  0.2192
 9542SOL     OW30302   8.621   6.651   4.014 -0.0737  0.2985  0.6527
 9542SOL    HW130303   8.702   6.682   3.974 -0.5616 -0.6602 -1.1164
 9542SOL    HW230304   8.620   6.557   3.997 -0.9499  0.1020  1.7526
 9543SOL     OW30305   0.316   0.034   4.934  0.3071  0.7051  0.9219
 9543SOL    HW130306   0.408   0.058   4.931  0.4963  0.0657  1.3211
 9543SOL    HW230307   0.305  -0.006   5.020 -0.3780  0.9190  0.9356
 9544SOL     OW30308   0.249   5.861   2.032 -0.0244  0.4288  0.3771
 9544SOL    HW130309   0.253   5.856   2.128  3.3502  2.5689  0.4170
 9544SOL    HW230310   0.193   5.936   2.015 -1.2726 -0.4239  0.6173
 9545SOL     OW30311   1.108   1.797   3.373  0.1657 -0.1459  0.1221
 9545SOL    HW130312   1.107   1.771   3.281  0.9877  0.3067 -0.0252
 9545SOL    HW230313   1.021   1.777   3.405  0.3114 -1.6477 -0.3883
 9546SOL     OW30314   3.876   7.904   5.737  0.8318 -0.5455 -0.1677
 9546SOL    HW130315   3.957   7.880   5.693  0.5497 -1.0007 -0.4401
 9546SOL    HW230316   3.862   7.834   5.801 -0.1737 -1.3129 -1.2032
 9547SOL     OW30317   0.636   6.477   8.654  0.0436 -0.0258  0.2317
 9547SOL    HW130318   0.649   6.501   8.562  0.7020  0.1441  0.3667
 9547SOL    HW230319   0.541   6.464   8.662 -0.2708  1.8350 -0.0250
 9548SOL     OW30320   1.641   3.188   2.266  0.6045  0.2135  0.7132
 9548SOL    HW130321   1.726   3.153   2.239  0.4414 -0.8929  1.6109
 9548SOL    HW230322   1.659   3.235   2.347  0.4362  0.4172  0.6347
 9549SOL     OW30323   6.014   5.027   0.608 -0.6509 -0.4826 -0.0169
 9549SOL    HW130324   5.990   5.112   0.644 -1.4647 -0.2936 -1.0078
 9549SOL    HW230325   6.107   5.018   0.630 -1.0228 -0.2050  1.7821
 9550SOL     OW30326   8.368   0.672   1.061 -0.3183 -0.4369 -0.1304
 9550SOL    HW130327   8.374   0.581   1.032  0.6402 -0.1538 -0.8348
 9550SOL    HW230328   8.396   0.723   0.986 -3.5246  0.5883 -0.6906
 9551SOL     OW30329   1.750   8.204   3.535  0.5928  0.0792 -0.2298
 9551SOL    HW130330   1.725   8.296   3.532 -1.1501 -0.2982  1.4115
 9551SOL    HW230331   1.820   8.195   3.470 -0.9429  2.0145 -2.2065
 9552SOL     OW30332   6.954   9.125   2.061 -0.1195  0.9035 -0.2959
 9552SOL    HW130333   6.974   9.074   1.983 -0.8816  1.9203 -1.1636
 9552SOL    HW230334   6.942   9.214   2.030 -2.0337  1.0407  0.7420
 9553SOL     OW30335   1.474   3.824   5.731  0.1150 -0.3704  0.0766
 9553SOL    HW130336   1.530   3.751   5.704 -0.4584 -0.6764 -0.2944
 9553SOL    HW230337   1.447   3.864   5.648 -0.2949 -0.2877  0.2515
 9554SOL     OW30338   0.992   5.326   0.927 -0.7545 -0.2634  0.5160
 9554SOL    HW130339   0.932   5.342   0.854 -0.9436  1.2477  0.9911
 9554SOL    HW230340   1.078   5.352   0.893 -0.5953 -1.0397  0.3206
 9555SOL     OW30341   8.067   6.478   7.790  0.3479 -0.2259  0.7178
 9555SOL    HW130342   8.089   6.557   7.840  3.2456 -0.8538  0.4817
 9555SOL    HW230343   8.104   6.406   7.842 -0.4947 -1.2633 -0.1059
 9556SOL     OW30344   1.531   1.770   8.651 -0.2720  0.0738 -0.4270
 9556SOL    HW130345   1.471   1.844   8.637  0.1398  0.8555  1.7463
 9556SOL    HW230346   1.502   1.703   8.590 -2.4416  0.9929 -0.4323
 9557SOL     OW30347   2.339   4.319   7.322 -0.1082  0.9847  0.1143
 9557SOL    HW130348   2.382   4.403   7.333 -0.3568  1.0211  0.7908
 9557SOL    HW230349   2.361   4.293   7.232 -0.6237  2.1051 -0.3449
 9558SOL     OW30350   3.943   4.645   0.826  0.1603 -0.7072  0.2835
 9558SOL    HW130351   3.981   4.578   0.768 -0.0109  0.7769 -1.6096
 9558SOL    HW230352   3.935   4.723   0.770  0.8522  1.0716  2.5621
 9559SOL     OW30353   4.421   8.100   6.706  0.1208  0.4058 -0.3782
 9559SOL    HW130354   4.365   8.074   6.633  0.5367  1.6906 -1.1776
 9559SOL    HW230355   4.492   8.036   6.708 -1.2341 -1.0948  0.4949
 9560SOL     OW30356   0.622   8.620   8.104 -0.3736 -0.2165  0.2968
 9560SOL    HW130357   0.607   8.690   8.040  2.1759 -1.6563 -1.9138
 9560SOL    HW230358   0.693   8.653   8.159  1.1224 -1.2278 -1.0149
 9561SOL     OW30359   4.535   3.103   2.711  0.2507 -0.3973  0.1807
 9561SOL    HW130360   4.613   3.062   2.674 -0.0149 -0.7058 -0.0414
 9561SOL    HW230361   4.498   3.154   2.639 -1.0048 -2.0587 -0.3921
 9562SOL     OW30362   4.390   1.839   9.052 -0.0537  0.3804  0.3806
 9562SOL    HW130363   4.375   1.822   9.145 -2.1480 -0.3236 -0.0582
 9562SOL    HW230364   4.444   1.766   9.023 -0.6298 -0.1831  0.7190
 9563SOL     OW30365   0.770   2.008   8.603  0.1572 -0.3717 -0.5958
 9563SOL    HW130366   0.825   2.079   8.570  1.8805 -1.9326 -1.1408
 9563SOL    HW230367   0.707   1.993   8.533  1.8509 -1.5688 -1.8884
 9564SOL     OW30368   2.554   4.925   1.805 -0.3971 -0.0404  0.2866
 9564SOL    HW130369   2.591   4.864   1.870  0.4714  1.0633  0.8397
 9564SOL    HW230370   2.611   4.915   1.729  0.0503  0.4472  0.5555
 9565SOL     OW30371   4.091   2.251   7.547  0.6421  0.0266 -0.3265
 9565SOL    HW130372   4.179   2.285   7.531  1.0923 -1.7066 -1.7382
 9565SOL    HW230373   4.097   2.205   7.630  1.7075 -2.0249 -1.4806
 9566SOL     OW30374   6.053   3.687   2.604 -0.5727 -0.1186 -0.0547
 9566SOL    HW130375   5.972   3.648   2.571 -0.9350  1.3413 -0.9193
 9566SOL    HW230376   6.025   3.747   2.673  0.0026 -1.4555  1.4064
 9567SOL     OW30377   6.929   3.460   7.268  0.2237  0.2845 -0.5413
 9567SOL    HW130378   7.014   3.473   7.225  1.0399 -2.9779  0.0168
 9567SOL    HW230379   6.867   3.454   7.195  0.8301  0.1338 -1.0528
 9568SOL     OW30380   2.915   3.796   3.541 -0.1907 -0.2296  0.3653
 9568SOL    HW130381   2.976   3.859   3.580  0.1077  0.4371 -1.1505
 9568SOL    HW230382   2.850   3.850   3.497  0.4694 -0.9639 -1.5696
 9569SOL     OW30383   6.115   2.689   2.408  0.2069  0.3540 -0.4243
 9569SOL    HW130384   6.087   2.743   2.333  2.6891 -0.5615 -2.0604
 9569SOL    HW230385   6.102   2.599   2.379 -0.1746  0.0071  0.8069
 9570SOL     OW30386   5.230   9.137   8.116 -0.0281  0.2309 -0.6289
 9570SOL    HW130387   5.143   9.132   8.157  0.6006 -3.8894  0.3546
 9570SOL    HW230388   5.291   9.143   8.190  0.8264 -2.4547 -1.0802
 9571SOL     OW30389   8.705   9.122   6.574  0.5645 -0.3301 -0.1131
 9571SOL    HW130390   8.739   9.206   6.605 -0.6522 -0.1649  0.8062
 9571SOL    HW230391   8.749   9.108   6.490  1.1495  0.9786 -0.0385
 9572SOL     OW30392   2.908   2.473   5.005 -0.1817 -0.2623 -0.1458
 9572SOL    HW130393   2.898   2.439   5.094 -1.4092  0.1001 -0.1311
 9572SOL    HW230394   2.870   2.405   4.949 -1.3015  0.4167 -0.2273
 9573SOL     OW30395   7.493   7.857   5.809 -0.1350 -0.4166  0.3516
 9573SOL    HW130396   7.564   7.859   5.874  0.7036  1.9718 -0.5690
 9573SOL    HW230397   7.536   7.829   5.728 -0.4813 -0.1298  0.0693
 9574SOL     OW30398   3.440   8.894   1.626 -0.1688 -0.5849 -0.8478
 9574SOL    HW130399   3.534   8.877   1.636 -0.2006  0.4114  1.4505
 9574SOL    HW230400   3.431   8.923   1.535  2.6378  4.4714  0.3207
 9575SOL     OW30401   7.144   2.207   8.738  0.2833 -0.6895 -0.1884
 9575SOL    HW130402   7.157   2.122   8.696 -1.2980 -0.7611 -0.5772
 9575SOL    HW230403   7.096   2.259   8.673 -0.8126 -0.2809  0.9201
 9576SOL     OW30404   8.397   2.883   3.269  0.4472 -0.1131 -0.5337
 9576SOL    HW130405   8.372   2.940   3.343  1.3258  1.7374 -1.6148
 9576SOL    HW230406   8.350   2.801   3.285 -1.7762  1.2878  0.4995
 9577SOL     OW30407   4.074   2.863   6.417  0.1100 -0.0154 -0.6796
 9577SOL    HW130408   4.089   2.771   6.395 -0.6697  0.0623 -1.5592
 9577SOL    HW230409   4.112   2.873   6.504  2.2156 -0.6204 -1.4885
 9578SOL     OW30410   3.088   8.653   6.326  0.2678 -0.4935  0.5158
 9578SOL    HW130411   3.126   8.648   6.239 -0.7316 -1.8759  0.1346
 9578SOL    HW230412   3.162   8.667   6.385  0.8792  1.1610 -0.6050
 9579SOL     OW30413   8.577   6.632   3.541 -0.1208 -0.2108  0.3883
 9579SOL    HW130414   8.661   6.672   3.521 -0.4212  0.2531  0.0394
 9579SOL    HW230415   8.549   6.674   3.623  0.2483 -0.7780  0.8091
 9580SOL     OW30416   0.759   7.373   0.251  0.6447  0.4219 -0.1270
 9580SOL    HW130417   0.688   7.338   0.304  1.8352 -0.4661  0.9393
 9580SOL    HW230418   0.735   7.352   0.161  1.2768 -3.1833  0.4518
 9581SOL     OW30419   3.709   7.590   8.637  0.5114  0.0556 -0.2959
 9581SOL    HW130420   3.645   7.662   8.640 -0.9322 -1.2086 -0.1643
 9581SOL    HW230421   3.757   7.598   8.720  0.6630  1.1192 -0.4724
 9582SOL     OW30422   2.938   6.688   8.434  0.0895 -0.1560  0.1943
 9582SOL    HW130423   2.892   6.638   8.501 -0.6068  1.4776  0.9695
 9582SOL    HW230424   2.896   6.774   8.435  0.2437 -0.0157 -2.1686
 9583SOL     OW30425   2.399   8.772   3.883  0.6300 -0.0541  0.2645
 9583SOL    HW130426   2.431   8.751   3.795 -1.8461 -0.0070 -0.6907
 9583SOL    HW230427   2.469   8.742   3.941  1.3353 -2.2091 -1.5850
 9584SOL     OW30428   6.142   0.751   8.541 -0.2359 -0.0068  0.3237
 9584SOL    HW130429   6.128   0.840   8.508 -0.4691 -0.0767  0.2325
 9584SOL    HW230430   6.090   0.695   8.483  0.4212 -0.2717 -0.0161
 9585SOL     OW30431   5.190   2.100   7.941 -0.2086  0.4496  0.3577
 9585SOL    HW130432   5.202   2.173   7.880 -2.9165 -1.1608 -2.2723
 9585SOL    HW230433   5.257   2.036   7.916 -0.7285  0.1764 -0.3602
 9586SOL     OW30434   6.033   2.723   5.643 -0.1316 -0.2101 -0.8207
 9586SOL    HW130435   5.953   2.751   5.687  0.8270  2.6922 -0.8779
 9586SOL    HW230436   6.011   2.727   5.550  0.3770  1.5882 -0.8758
 9587SOL     OW30437   9.161   0.130   6.903 -0.5293 -0.3704  0.2031
 9587SOL    HW130438   9.086   0.090   6.859  1.0948 -1.3665 -1.7245
 9587SOL    HW230439   9.210   0.173   6.833 -1.0227  3.1628  1.9081
 9588SOL     OW30440   2.156   5.691   3.734 -0.3759 -0.0787 -0.1357
 9588SOL    HW130441   2.168   5.705   3.640 -0.8238 -0.2471 -0.2189
 9588SOL    HW230442   2.083   5.748   3.758  0.4377  0.7952  0.3311
 9589SOL     OW30443   5.718   5.928   6.421  0.6132  0.1089  0.0440
 9589SOL    HW130444   5.742   5.838   6.445 -0.8215  0.1936  1.8858
 9589SOL    HW230445   5.770   5.983   6.479 -1.6308  0.3482  1.9140
 9590SOL     OW30446   2.588   1.763   0.486  0.0791 -0.0880 -0.0600
 9590SOL    HW130447   2.523   1.773   0.417 -0.7604 -1.2419  0.5503
 9590SOL    HW230448   2.651   1.700   0.451  0.0182 -0.1704 -0.0186
 9591SOL     OW30449   0.766   8.810   4.255  0.5031 -0.2592 -0.2468
 9591SOL    HW130450   0.742   8.861   4.332 -0.1067  0.2280 -0.7519
 9591SOL    HW230451   0.700   8.741   4.250  0.9824 -0.7447  0.0963
 9592SOL     OW30452   2.102   5.334   9.096  0.0037  0.4151  0.5902
 9592SOL    HW130453   2.068   5.355   9.183  1.2735  2.6755  0.5725
 9592SOL    HW230454   2.086   5.413   9.044 -0.7928 -0.9339 -1.2610
 9593SOL     OW30455   5.604   2.905   1.338  0.1106  0.2590  0.3005
 9593SOL    HW130456   5.674   2.968   1.322  0.8189 -0.2234  1.3989
 9593SOL    HW230457   5.629   2.828   1.288 -0.3143  0.5518 -0.3616
 9594SOL     OW30458   2.549   1.766   1.555  0.3973 -0.0610  0.2639
 9594SOL    HW130459   2.623   1.823   1.576 -0.6932  1.3249  0.4421
 9594SOL    HW230460   2.545   1.767   1.460  0.3374  0.2448  0.2665
 9595SOL     OW30461   0.284   0.090   2.465 -0.1673  0.2475  0.7270
 9595SOL    HW130462   0.327   0.046   2.392 -1.5292  1.2459 -0.7253
 9595SOL    HW230463   0.354   0.137   2.510  0.4801  0.8215 -0.8373
 9596SOL     OW30464   1.626   8.128   5.166 -0.6296 -0.7733 -0.4446
 9596SOL    HW130465   1.712   8.087   5.151  0.2343  0.8698 -0.0983
 9596SOL    HW230466   1.564   8.055   5.162  0.8767 -2.1281  0.1844
 9597SOL     OW30467   2.765   4.978   1.198 -1.0966  0.1660 -0.7786
 9597SOL    HW130468   2.766   4.894   1.244 -1.7262 -0.1157 -1.2764
 9597SOL    HW230469   2.831   4.969   1.129 -0.6621  0.3367 -0.3918
 9598SOL     OW30470   6.174   0.702   0.860  0.4237  0.0364 -0.0255
 9598SOL    HW130471   6.164   0.737   0.949 -0.3578 -0.5340  0.1145
 9598SOL    HW230472   6.149   0.775   0.803 -0.4007 -0.0214  0.2521
 9599SOL     OW30473   8.391   4.716   8.702 -0.3360 -0.2981  0.0356
 9599SOL    HW130474   8.446   4.794   8.691 -3.4168  2.0668  0.6282
 9599SOL    HW230475   8.344   4.708   8.619  0.4826 -1.9557 -0.2716
 9600SOL     OW30476   1.614   4.613   0.358  0.1613  0.4419 -0.5063
 9600SOL    HW130477   1.519   4.616   0.348 -0.1959 -0.0362  2.3247
 9600SOL    HW230478   1.643   4.702   0.340 -1.0124  0.9589  0.0898
 9601SOL     OW30479   8.725   7.844   9.277  0.5047 -0.4318  0.9236
 9601SOL    HW130480   8.738   7.758   9.235 -2.2493 -0.9458  1.0673
 9601SOL    HW230481   8.666   7.827   9.350 -0.1354  1.6002  0.9109
 9602SOL     OW30482   1.547   8.705   8.809 -0.1143  0.0686  0.2757
 9602SOL    HW130483   1.639   8.694   8.784 -0.3012  0.8272 -0.7865
 9602SOL    HW230484   1.544   8.676   8.900  0.5725 -2.8437 -0.5687
 9603SOL     OW30485   4.687   3.168   3.993  0.1211 -0.2190 -0.6886
 9603SOL    HW130486   4.606   3.186   3.945 -1.1625 -0.9702  1.1463
 9603SOL    HW230487   4.710   3.252   4.033 -0.4818 -0.3056 -0.1447
 9604SOL     OW30488   1.816   5.316   3.729  0.4033  0.0368  0.0705
 9604SOL    HW130489   1.882   5.289   3.666  0.2622  2.0373 -0.9873
 9604SOL    HW230490   1.735   5.323   3.678 -0.8371 -3.1642  1.5126
 9605SOL     OW30491   3.324   7.579   7.494 -0.2110  0.3839  0.4914
 9605SOL    HW130492   3.249   7.598   7.438  0.3531 -0.7393 -0.6803
 9605SOL    HW230493   3.379   7.656   7.487  0.8838 -0.5741 -2.2460
 9606SOL     OW30494   3.479   4.372   9.253 -0.3889  0.2046  0.5452
 9606SOL    HW130495   3.443   4.297   9.205  0.4259  0.1968 -0.0742
 9606SOL    HW230496   3.534   4.417   9.188  0.9195  0.0566  1.5398
 9607SOL     OW30497   5.135   8.053   1.089  0.0826 -0.1887  0.0415
 9607SOL    HW130498   5.214   8.000   1.098  0.6535  0.7445  0.6278
 9607SOL    HW230499   5.069   8.006   1.140  0.5760 -0.3503  0.5369
 9608SOL     OW30500   8.345   0.747   5.206  0.9582  0.4920  0.0771
 9608SOL    HW130501   8.329   0.721   5.115 -2.7972 -0.8889  1.0414
 9608SOL    HW230502   8.406   0.681   5.239  0.6379 -0.2876 -0.8650
 9609SOL     OW30503   8.967   4.848   3.710 -0.1125 -0.5778 -0.1430
 9609SOL    HW130504   8.925   4.912   3.768 -0.4452  1.2423 -2.3117
 9609SOL    HW230505   9.058   4.846   3.740 -0.6364 -0.9340  1.5056
 9610SOL     OW30506   8.282   7.601   7.054 -1.0975  0.3901 -0.1230
 9610SOL    HW130507   8.263   7.661   7.126  1.1291  0.8265  0.1264
 9610SOL    HW230508   8.198   7.560   7.034 -2.0639  1.4886  1.6094
 9611SOL     OW30509   3.787   0.587   9.232  0.1061  0.3778  0.0921
 9611SOL    HW130510   3.770   0.605   9.140 -1.0571 -0.3868  0.1419
 9611SOL    HW230511   3.754   0.498   9.245  2.0387 -0.2529  0.7955
 9612SOL     OW30512   6.508   6.849   2.835 -0.5864 -0.0537 -0.4337
 9612SOL    HW130513   6.566   6.925   2.829  0.4889 -0.9253 -1.4208
 9612SOL    HW230514   6.552   6.789   2.894 -1.0997 -0.1948 -0.1916
 9613SOL     OW30515   6.634   2.165   3.276  0.3869 -0.0483 -0.2460
 9613SOL    HW130516   6.591   2.114   3.345  1.0390 -1.0413 -0.5617
 9613SOL    HW230517   6.564   2.217   3.237  0.1418  1.2062  1.7358
 9614SOL     OW30518   4.772   3.200   5.812  0.5919 -0.2780  0.0107
 9614SOL    HW130519   4.762   3.217   5.906  1.2158 -0.3487  0.0916
 9614SOL    HW230520   4.723   3.270   5.769 -3.1060 -2.4469  0.4334
 9615SOL     OW30521   6.533   6.444   5.254 -0.4475  0.4198 -0.3243
 9615SOL    HW130522   6.520   6.434   5.348  0.5150  0.1073 -0.2167
 9615SOL    HW230523   6.500   6.532   5.234  1.9800  1.6263  0.8245
 9616SOL     OW30524   4.880   8.756   1.060 -0.8428  0.3336 -0.3074
 9616SOL    HW130525   4.972   8.783   1.057 -0.7938  0.3992  1.2104
 9616SOL    HW230526   4.882   8.669   1.099 -1.4468  0.4877  0.0720
 9617SOL     OW30527   2.803   1.642   3.971 -0.4626  0.3323  0.2687
 9617SOL    HW130528   2.730   1.614   3.916  1.1120 -0.9483 -1.2315
 9617SOL    HW230529   2.877   1.590   3.941  0.5076 -0.3107  3.5175
 9618SOL     OW30530   4.941   8.945   0.551  0.2351 -0.0434 -0.3581
 9618SOL    HW130531   4.937   8.881   0.479 -1.4927 -1.0387  0.5998
 9618SOL    HW230532   4.868   9.004   0.535  0.5474  0.4234 -0.0583
 9619SOL     OW30533   7.909   2.284   6.561 -0.2551  0.4968 -0.1014
 9619SOL    HW130534   7.886   2.349   6.628  1.3138  0.5723  0.3948
 9619SOL    HW230535   7.921   2.203   6.610  1.3716  0.6562 -0.1999
 9620SOL     OW30536   4.997   2.082   3.248  0.0525  0.3491  0.5022
 9620SOL    HW130537   5.038   2.091   3.161  0.7105  1.5653  0.9156
 9620SOL    HW230538   5.067   2.106   3.309 -0.4721 -0.3003  1.3672
 9621SOL     OW30539   8.471   6.984   0.129 -0.2289 -0.0979  0.0425
 9621SOL    HW130540   8.556   7.016   0.097  0.0451 -0.5722  0.2943
 9621SOL    HW230541   8.437   7.057   0.181 -0.0250  0.1333 -0.1442
 9622SOL     OW30542   4.138   6.204   9.071 -0.3476  0.6877  0.5750
 9622SOL    HW130543   4.116   6.147   8.998 -0.5220  1.2780  0.1660
 9622SOL    HW230544   4.086   6.170   9.144  0.2847 -0.2693  0.5874
 9623SOL     OW30545   1.385   9.086   6.159 -0.0399 -0.3029 -0.2310
 9623SOL    HW130546   1.447   9.106   6.089  0.4669  0.5127  0.4554
 9623SOL    HW230547   1.321   9.156   6.155  0.9342  0.6873  1.2272
 9624SOL     OW30548   2.613   8.426   8.783  0.7213 -0.4776  0.2884
 9624SOL    HW130549   2.688   8.372   8.758 -0.0449 -2.6124  2.4068
 9624SOL    HW230550   2.554   8.420   8.708  1.9936  0.0104 -0.7801
 9625SOL     OW30551   4.226   6.561   2.914 -0.0058 -0.5062  0.1245
 9625SOL    HW130552   4.163   6.535   2.980 -2.1373 -2.0339 -2.4263
 9625SOL    HW230553   4.272   6.481   2.890  0.4953 -0.0384 -0.5314
 9626SOL     OW30554   6.065   7.001   0.679  0.4246 -0.4960  0.7011
 9626SOL    HW130555   5.987   6.995   0.624 -0.1348 -2.1795  1.6269
 9626SOL    HW230556   6.081   7.095   0.687 -2.6474 -0.0113  2.0216
 9627SOL     OW30557   8.048   2.479   6.946 -0.1168 -0.3014  0.0825
 9627SOL    HW130558   8.073   2.435   7.027 -3.5609 -2.0751  0.2674
 9627SOL    HW230559   8.078   2.421   6.877  1.2956  0.3868  0.0902
 9628SOL     OW30560   2.536   5.695   9.246 -0.1161  0.3012 -0.7064
 9628SOL    HW130561   2.519   5.605   9.217 -0.0156  0.5314 -1.4895
 9628SOL    HW230562   2.510   5.749   9.172 -0.9619  0.9720  0.0880
 9629SOL     OW30563   8.455   7.426   6.933 -0.5391 -0.1961 -0.1002
 9629SOL    HW130564   8.390   7.476   6.982 -0.2331 -0.7878  0.9176
 9629SOL    HW230565   8.418   7.419   6.845 -1.4355  0.2296  0.2323
 9630SOL     OW30566   4.000   5.764   3.098  0.2952  0.6667 -0.9108
 9630SOL    HW130567   3.912   5.726   3.109  0.8599 -0.4530 -0.1968
 9630SOL    HW230568   3.989   5.855   3.123 -0.2265  0.0380  1.3126
 9631SOL     OW30569   2.329   6.991   5.685 -0.7219  0.0351  0.1516
 9631SOL    HW130570   2.362   6.919   5.739  0.0822  0.0523 -0.3130
 9631SOL    HW230571   2.236   6.972   5.676 -0.4957 -1.0333 -0.0757
 9632SOL     OW30572   3.102   3.371   7.399  0.0335  0.7866 -0.4233
 9632SOL    HW130573   3.134   3.286   7.369 -0.6265  0.6983 -0.8980
 9632SOL    HW230574   3.014   3.353   7.432 -1.2640  1.7892 -3.2147
 9633SOL     OW30575   4.404   2.323   2.003 -0.5735 -0.1245 -0.0959
 9633SOL    HW130576   4.469   2.391   2.019 -1.9515  1.3410 -0.5022
 9633SOL    HW230577   4.401   2.314   1.908 -0.3122 -0.8422 -0.0385
 9634SOL     OW30578   5.022   0.875   8.933 -0.0727 -0.1211  0.0862
 9634SOL    HW130579   4.980   0.879   9.019  1.4465  0.9747  0.7879
 9634SOL    HW230580   5.052   0.784   8.926 -0.4670 -0.2949  0.5801
 9635SOL     OW30581   5.193   7.244   3.640  0.4252 -0.1576 -0.5522
 9635SOL    HW130582   5.153   7.288   3.714  2.4945  1.9419 -0.6255
 9635SOL    HW230583   5.281   7.221   3.670  0.3387 -1.7501 -1.4566
 9636SOL     OW30584   0.864   7.588   5.283 -0.0375  0.6401  0.3407
 9636SOL    HW130585   0.923   7.663   5.295  0.8420 -0.4810  3.8135
 9636SOL    HW230586   0.904   7.519   5.336 -3.2872 -0.8509  0.9572
 9637SOL     OW30587   1.894   4.743   9.111 -0.1981 -0.5218 -0.4311
 9637SOL    HW130588   1.903   4.755   9.016  1.0286  1.2937 -0.1068
 9637SOL    HW230589   1.980   4.764   9.146 -0.7332 -0.8807  1.1284
 9638SOL     OW30590   1.955   0.222   1.430 -0.1385 -0.0890  0.4048
 9638SOL    HW130591   1.943   0.128   1.413 -0.7509  0.5105 -2.6670
 9638SOL    HW230592   1.870   0.250   1.465  0.1710 -0.7401  1.7151
 9639SOL     OW30593   1.860   3.704   2.383  0.2458 -0.0276 -0.4805
 9639SOL    HW130594   1.811   3.644   2.327  1.7300 -0.9910 -0.7799
 9639SOL    HW230595   1.952   3.686   2.364  0.7701  4.0190 -2.3776
 9640SOL     OW30596   6.067   5.605   0.214 -0.0255 -0.0641  0.2397
 9640SOL    HW130597   5.976   5.636   0.207 -0.1007 -0.3870 -0.2672
 9640SOL    HW230598   6.114   5.678   0.255 -0.1358  0.8723 -1.2350
 9641SOL     OW30599   9.138   8.875   0.186  0.0357  0.0327  0.4179
 9641SOL    HW130600   9.068   8.912   0.239  0.4348  1.9170 -0.3338
 9641SOL    HW230601   9.212   8.869   0.246  0.1761  1.1567  0.3728
 9642SOL     OW30602   8.401   4.882   3.325 -0.1910  0.1665 -0.0573
 9642SOL    HW130603   8.406   4.818   3.396 -1.1510  0.5420  0.3577
 9642SOL    HW230604   8.491   4.909   3.310  0.1145 -0.5795  0.4165
 9643SOL     OW30605   6.968   0.410   0.235  0.0612  0.0364  0.0005
 9643SOL    HW130606   7.019   0.329   0.231  2.2872  1.2382  2.2530
 9643SOL    HW230607   7.029   0.479   0.211 -1.0738  1.3103  0.6455
 9644SOL     OW30608   4.917   9.280   0.597  0.0459  0.3604  0.0023
 9644SOL    HW130609   4.940   9.225   0.671 -0.8816 -0.5783 -0.3887
 9644SOL    HW230610   4.949   9.367   0.620 -0.7821  0.2057  1.7607
 9645SOL     OW30611   5.477   0.878   8.653  0.3840 -0.1061 -0.1433
 9645SOL    HW130612   5.568   0.877   8.624  0.5744 -1.1272  0.4403
 9645SOL    HW230613   5.446   0.788   8.635 -0.2284 -0.0281  0.5198
 9646SOL     OW30614   4.894   7.249   4.415  0.3938  0.5020 -0.0025
 9646SOL    HW130615   4.863   7.330   4.455  1.5977  1.3141 -0.6933
 9646SOL    HW230616   4.989   7.256   4.416  0.4779 -0.0075 -1.8838
 9647SOL     OW30617   0.854   1.854   3.181 -0.0558  0.0748 -0.1149
 9647SOL    HW130618   0.762   1.865   3.159 -0.0982  1.2564  0.6154
 9647SOL    HW230619   0.863   1.761   3.200 -1.1151 -0.0422 -0.1504
 9648SOL     OW30620   1.230   0.646   0.267  0.3928  0.2269  0.3792
 9648SOL    HW130621   1.170   0.720   0.257 -0.2571 -0.3054  0.2440
 9648SOL    HW230622   1.247   0.640   0.361  0.1640  0.3293  0.4262
 9649SOL     OW30623   5.203   0.776   4.367 -0.3926 -0.5431  0.4327
 9649SOL    HW130624   5.202   0.681   4.380 -1.4588 -0.6381 -0.3208
 9649SOL    HW230625   5.260   0.789   4.291  0.0272 -0.5562  0.7467
 9650SOL     OW30626   5.205   7.006   0.241 -0.5606  0.1586  0.5608
 9650SOL    HW130627   5.295   6.983   0.266 -0.7046 -0.0071  0.9269
 9650SOL    HW230628   5.186   7.086   0.289 -0.2187  0.8105 -0.3723
 9651SOL     OW30629   0.700   0.596   5.736 -0.0337 -0.0421 -0.1171
 9651SOL    HW130630   0.783   0.573   5.778  0.8538  0.9854 -1.2906
 9651SOL    HW230631   0.720   0.597   5.643 -1.4069  0.1083 -0.4185
 9652SOL     OW30632   5.496   7.018   2.104  0.1417 -0.4962  0.1866
 9652SOL    HW130633   5.482   7.102   2.060 -1.1066 -2.1858 -2.7435
 9652SOL    HW230634   5.587   6.996   2.084 -0.1472 -0.8182 -0.7919
 9653SOL     OW30635   1.911   0.710   5.503  0.2662  0.3664 -0.4289
 9653SOL    HW130636   1.898   0.802   5.526  0.4892  0.5731 -1.1212
 9653SOL    HW230637   1.947   0.671   5.583  0.9217  1.0537 -0.3739
 9654SOL     OW30638   3.866   1.865   8.316  0.3541  0.3429 -0.5688
 9654SOL    HW130639   3.882   1.901   8.404 -0.2925  0.4918 -0.5114
 9654SOL    HW230640   3.826   1.937   8.268 -0.3219 -0.0871 -0.6568
 9655SOL     OW30641   4.779   5.517   3.505  0.2340 -0.0166  0.3393
 9655SOL    HW130642   4.696   5.558   3.482 -0.9375 -2.2091  0.4832
 9655SOL    HW230643   4.814   5.570   3.576 -0.8854  1.1024  0.0672
 9656SOL     OW30644   2.271   9.207   6.097 -0.4112 -0.1878  0.3334
 9656SOL    HW130645   2.197   9.236   6.151 -1.0604  0.3115 -0.8054
 9656SOL    HW230646   2.239   9.130   6.051  0.2123 -0.7388  0.8155
 9657SOL     OW30647   8.975   3.480   8.906  0.2504 -0.2749  0.6370
 9657SOL    HW130648   8.985   3.508   8.815  0.0281  0.8046  0.9387
 9657SOL    HW230649   8.906   3.414   8.903  0.2237 -0.2270  0.0340
 9658SOL     OW30650   8.019   8.784   3.952 -1.0400 -0.3993 -0.2066
 9658SOL    HW130651   7.997   8.871   3.918  0.6309  0.5669  1.0821
 9658SOL    HW230652   7.959   8.771   4.026  0.3583  0.7751  1.1792
 9659SOL     OW30653   0.647   2.967   7.521  0.0478  0.0651 -0.0346
 9659SOL    HW130654   0.562   2.925   7.533 -0.0667  0.4836  0.6381
 9659SOL    HW230655   0.667   3.007   7.606  1.0706 -0.3116 -0.0835
 9660SOL     OW30656   0.283   3.459   7.328 -0.1146 -0.2686 -0.0560
 9660SOL    HW130657   0.332   3.535   7.296 -0.2177 -0.5298 -0.8517
 9660SOL    HW230658   0.282   3.468   7.423  0.9847  0.0426 -0.0785
 9661SOL     OW30659   8.187   1.820   8.588 -0.4574  0.0079 -0.5194
 9661SOL    HW130660   8.269   1.855   8.624 -1.5087  0.8580  1.1309
 9661SOL    HW230661   8.121   1.844   8.653 -2.0102 -0.7164 -1.8109
 9662SOL     OW30662   4.371   0.758   7.238 -0.3794  0.1869 -0.4636
 9662SOL    HW130663   4.457   0.800   7.232 -0.7703  0.8883 -1.1446
 9662SOL    HW230664   4.381   0.695   7.310 -0.4540  3.0164  2.1289
 9663SOL     OW30665   7.217   1.183   1.240 -0.0135 -0.4739  0.0131
 9663SOL    HW130666   7.252   1.233   1.167  0.6442  0.7228  1.1142
 9663SOL    HW230667   7.134   1.148   1.208  0.0278  0.4418 -1.1326
 9664SOL     OW30668   2.688   8.940   0.557 -0.2717 -0.1752  0.0771
 9664SOL    HW130669   2.767   8.889   0.574 -1.9201 -2.8622  0.0184
 9664SOL    HW230670   2.643   8.943   0.642 -0.8161  0.0280 -0.2153
 9665SOL     OW30671   8.999   2.324   7.888  0.2512 -0.0981 -0.8677
 9665SOL    HW130672   8.968   2.397   7.940  0.0731 -0.2356 -0.7801
 9665SOL    HW230673   8.970   2.344   7.799 -1.8182 -1.1702 -0.4717
 9666SOL     OW30674   3.549   7.805   1.630  0.0012 -0.6017 -0.4673
 9666SOL    HW130675   3.503   7.747   1.569 -0.2994  1.3411 -2.1332
 9666SOL    HW230676   3.641   7.780   1.622 -0.3193 -2.1588  0.3227
 9667SOL     OW30677   6.734   6.100   6.729  0.0745  0.1123  0.2774
 9667SOL    HW130678   6.782   6.164   6.782 -1.1479 -0.1239  1.7218
 9667SOL    HW230679   6.775   6.016   6.752 -0.8877 -0.0706  1.3914
 9668SOL     OW30680   7.462   1.933   2.978 -0.3254  0.5051  0.1906
 9668SOL    HW130681   7.439   1.862   3.037  0.2220  1.2518  1.3180
 9668SOL    HW230682   7.509   1.996   3.033  0.5117  1.0366 -1.1169
 9669SOL     OW30683   7.067   3.545   4.886  0.0303 -0.3570 -0.0156
 9669SOL    HW130684   7.151   3.514   4.918  1.0201  1.7747 -0.4793
 9669SOL    HW230685   7.011   3.550   4.964  1.0912  0.6357  0.6812
 9670SOL     OW30686   6.052   0.938   6.936  0.1538  0.1087  0.0760
 9670SOL    HW130687   5.973   0.992   6.926 -0.1429 -0.6057 -1.4558
 9670SOL    HW230688   6.022   0.861   6.984  0.2161  0.4576  0.6910
 9671SOL     OW30689   0.080   0.118   7.937 -0.5710  0.3157 -0.5761
 9671SOL    HW130690   0.123   0.129   7.852  0.5156  1.1079  0.0567
 9671SOL    HW230691   0.150   0.132   8.001 -1.2695 -0.7605  0.4455
 9672SOL     OW30692   7.143   2.668   1.681 -0.1915  0.0051 -0.1092
 9672SOL    HW130693   7.136   2.683   1.775 -0.5528 -0.8515 -0.0028
 9672SOL    HW230694   7.120   2.752   1.642  2.9989  1.3177  0.6410
 9673SOL     OW30695   3.185   4.257   0.208  0.4381  0.4344  0.0300
 9673SOL    HW130696   3.096   4.229   0.230  0.6180  1.1411  1.6722
 9673SOL    HW230697   3.230   4.176   0.184 -0.5325  0.0270 -0.4524
 9674SOL     OW30698   0.886   9.168   9.020  0.0223  0.2870  0.5108
 9674SOL    HW130699   0.925   9.130   8.941  0.0739 -0.9981  1.1414
 9674SOL    HW230700   0.806   9.119   9.034 -0.6160  1.3319  0.5781
 9675SOL     OW30701   2.368   7.284   6.274  0.4974 -0.3157 -0.5957
 9675SOL    HW130702   2.290   7.296   6.329  1.0236  0.4606 -0.0076
 9675SOL    HW230703   2.415   7.367   6.281  1.8241 -1.0830 -0.2438
 9676SOL     OW30704   0.046   6.039   0.901 -1.1395  0.9281  0.3158
 9676SOL    HW130705   0.106   6.112   0.917 -1.3471  1.2160 -0.2081
 9676SOL    HW230706   0.083   5.966   0.951  0.8896  0.4727 -1.7637
 9677SOL     OW30707   4.154   3.903   6.124 -0.3044  0.2200  0.3409
 9677SOL    HW130708   4.179   3.989   6.156  0.7675  0.5356 -1.2949
 9677SOL    HW230709   4.081   3.919   6.064 -1.0152 -0.1716  1.0766
 9678SOL     OW30710   2.049   8.321   4.492 -0.1334  0.2520 -0.0797
 9678SOL    HW130711   1.968   8.369   4.474 -1.0648 -0.5864  1.7814
 9678SOL    HW230712   2.071   8.278   4.409 -1.3531  0.8204 -0.7059
 9679SOL     OW30713   5.821   3.377   2.346 -0.5016 -0.0332  0.7120
 9679SOL    HW130714   5.790   3.286   2.345 -0.5175 -0.0286 -0.0790
 9679SOL    HW230715   5.759   3.423   2.289 -1.5839  0.8496  2.5526
 9680SOL     OW30716   5.486   4.879   7.426  0.0940 -0.5405 -0.4450
 9680SOL    HW130717   5.399   4.881   7.467 -0.1677  1.0101 -1.0662
 9680SOL    HW230718   5.505   4.786   7.418 -0.8523 -0.9000  1.0822
 9681SOL     OW30719   0.717   1.802   6.359  0.7070 -0.0806 -0.0263
 9681SOL    HW130720   0.790   1.854   6.323  1.4161 -1.3310 -0.4391
 9681SOL    HW230721   0.677   1.761   6.282  1.4989 -1.8417  0.4629
 9682SOL     OW30722   0.952   1.028   7.246  0.1467 -0.5866  0.2670
 9682SOL    HW130723   0.940   0.939   7.277  0.6585 -0.6179  0.3816
 9682SOL    HW230724   0.907   1.082   7.311 -0.7913 -0.8073 -0.1964
 9683SOL     OW30725   4.888   8.880   8.873  0.3564 -0.2929 -0.8300
 9683SOL    HW130726   4.906   8.800   8.922  0.1283  0.2910  0.2230
 9683SOL    HW230727   4.794   8.876   8.853  0.1122  0.2238  0.1761
 9684SOL     OW30728   4.083   3.126   5.994  0.3721 -0.3308  0.5407
 9684SOL    HW130729   4.131   3.098   6.072  1.0403 -2.9834 -0.7810
 9684SOL    HW230730   4.012   3.062   5.985 -0.3787  0.6210 -0.3936
 9685SOL     OW30731   3.356   0.992   5.096 -0.3624 -0.2049  0.7216
 9685SOL    HW130732   3.278   1.045   5.109 -1.0251 -0.5473 -1.6109
 9685SOL    HW230733   3.369   0.948   5.180 -1.2381  1.7171  1.9037
 9686SOL     OW30734   5.767   0.656   5.355 -0.5839  0.0072 -0.5735
 9686SOL    HW130735   5.855   0.628   5.326  0.2927 -0.6473  2.5591
 9686SOL    HW230736   5.716   0.575   5.357 -0.9421  0.2138 -1.2943
 9687SOL     OW30737   0.212   7.763   5.401 -0.1137  0.1122  0.2184
 9687SOL    HW130738   0.204   7.829   5.332 -1.7132 -0.9626 -0.6680
 9687SOL    HW230739   0.166   7.801   5.476  1.4918  1.2175  0.6719
 9688SOL     OW30740   5.641   7.025   9.060  0.0909  0.1514  0.0411
 9688SOL    HW130741   5.709   7.088   9.036 -0.2200  0.6588  0.4697
 9688SOL    HW230742   5.587   7.072   9.123 -0.4057 -0.3982  0.0260
 9689SOL     OW30743   8.627   3.725   2.493 -0.0328  0.0432 -0.7791
 9689SOL    HW130744   8.552   3.745   2.438  0.0110 -0.8308 -1.1562
 9689SOL    HW230745   8.636   3.802   2.550 -1.2463  0.1217 -0.6853
 9690SOL     OW30746   0.540   8.086   7.267 -0.6703  0.1462  0.5818
 9690SOL    HW130747   0.589   8.046   7.195  1.0041  0.6471  1.4070
 9690SOL    HW230748   0.499   8.163   7.228 -1.0762 -0.4597 -0.2055
 9691SOL     OW30749   0.762   7.117   1.809 -0.0353  0.2130  0.2905
 9691SOL    HW130750   0.854   7.120   1.835 -0.6970  0.0238  2.8406
 9691SOL    HW230751   0.751   7.032   1.766  0.7933 -0.1237  0.7445
 9692SOL     OW30752   2.205   0.292   8.303 -0.1597 -0.0082  0.0377
 9692SOL    HW130753   2.135   0.357   8.318  1.0264  0.6748  2.9883
 9692SOL    HW230754   2.168   0.232   8.239 -2.5774  1.6785 -0.2407
 9693SOL     OW30755   5.402   4.253   4.058  0.1517 -0.5559 -0.4123
 9693SOL    HW130756   5.404   4.174   4.111 -0.6674  1.0841  2.1852
 9693SOL    HW230757   5.493   4.266   4.032  0.4024 -1.9748 -0.2918
 9694SOL     OW30758   6.554   5.543   2.069 -0.6569 -0.2079  0.2688
 9694SOL    HW130759   6.487   5.494   2.116  0.6556 -1.4424  0.8977
 9694SOL    HW230760   6.575   5.617   2.126 -1.8548  0.5082 -0.1867
 9695SOL     OW30761   1.357   0.435   8.130 -0.1538 -0.0039  0.2437
 9695SOL    HW130762   1.430   0.406   8.184 -0.2302  1.7159  1.3168
 9695SOL    HW230763   1.345   0.527   8.154  0.1648  0.9752 -3.0775
 9696SOL     OW30764   3.195   1.658   4.561 -0.3412  0.2331  0.2379
 9696SOL    HW130765   3.165   1.726   4.621  0.7816  2.4311 -1.5867
 9696SOL    HW230766   3.270   1.619   4.606  0.3412  1.6829  0.3941
 9697SOL     OW30767   4.638   6.140   7.985  0.0977 -0.4453 -0.2318
 9697SOL    HW130768   4.718   6.093   7.960 -0.8832 -1.6981 -1.0642
 9697SOL    HW230769   4.658   6.232   7.967  1.5067 -0.6861 -0.0062
 9698SOL     OW30770   2.586   3.229   7.581 -0.4847 -0.3565  0.2052
 9698SOL    HW130771   2.647   3.196   7.647  1.5631  0.1621 -1.3708
 9698SOL    HW230772   2.515   3.164   7.579  1.0098 -2.0322  0.6518
 9699SOL     OW30773   6.132   7.169   1.680 -0.5368  0.3338 -0.4051
 9699SOL    HW130774   6.170   7.225   1.612 -0.0427  0.5376  0.0325
 9699SOL    HW230775   6.196   7.098   1.690 -0.2663  0.6846  0.3461
 9700SOL     OW30776   4.463   5.655   0.402 -0.1655  0.2909  0.4121
 9700SOL    HW130777   4.439   5.564   0.420  0.1782  0.3818  1.4105
 9700SOL    HW230778   4.509   5.683   0.482  1.4615  0.7253 -0.6490
 9701SOL     OW30779   5.967   7.735   5.162  0.3270  0.0397  0.6452
 9701SOL    HW130780   6.009   7.694   5.238  0.4806  0.7616  0.9499
 9701SOL    HW230781   5.955   7.663   5.100 -0.0037 -0.5977  1.4402
 9702SOL     OW30782   0.323   4.828   8.971  0.1079 -0.0183 -0.0922
 9702SOL    HW130783   0.279   4.794   9.049 -0.3248 -0.3020 -0.4566
 9702SOL    HW230784   0.370   4.906   9.002 -1.1022  0.6160  0.2028
 9703SOL     OW30785   1.013   1.213   0.459  0.0745 -0.5479 -0.2698
 9703SOL    HW130786   0.966   1.186   0.380 -0.7641  1.2143 -0.3978
 9703SOL    HW230787   1.062   1.291   0.433 -0.0086 -0.0930  0.8680
 9704SOL     OW30788   7.804   8.961   2.814 -0.3124  0.5948 -0.3185
 9704SOL    HW130789   7.848   8.957   2.899 -3.3814  0.6127  1.3438
 9704SOL    HW230790   7.726   9.015   2.830 -1.4757 -0.2424 -2.9164
 9705SOL     OW30791   4.822   0.065   8.169  0.4297 -0.8976  0.8442
 9705SOL    HW130792   4.894   0.098   8.116 -0.0072 -1.5669 -0.1946
 9705SOL    HW230793   4.858  -0.011   8.214  0.9524 -0.0143  1.9169
 9706SOL     OW30794   5.844   8.791   2.063  0.3516 -0.6618 -0.6449
 9706SOL    HW130795   5.837   8.698   2.039  0.7081 -0.1437 -2.8448
 9706SOL    HW230796   5.788   8.836   2.000  0.6500  0.6713  0.0392
 9707SOL     OW30797   5.182   5.690   2.922 -0.1680 -0.1887 -0.0909
 9707SOL    HW130798   5.161   5.626   2.855  0.1533 -0.0857 -0.2909
 9707SOL    HW230799   5.110   5.685   2.984 -0.3033 -0.5131 -0.2768
 9708SOL     OW30800   2.547   4.790   1.312 -0.2425  0.0369 -0.3232
 9708SOL    HW130801   2.523   4.768   1.222  0.6124  0.1615 -0.5837
 9708SOL    HW230802   2.489   4.862   1.335  1.3654  1.8234 -1.7253
 9709SOL     OW30803   7.025   0.596   0.839  0.0704  0.0626  0.2879
 9709SOL    HW130804   7.039   0.603   0.934  1.1757  2.0543  0.0100
 9709SOL    HW230805   6.984   0.679   0.815 -1.8526 -1.1420 -0.7344
 9710SOL     OW30806   0.317   7.257   7.415  0.1816 -0.4977 -0.3360
 9710SOL    HW130807   0.235   7.211   7.395  0.3094 -0.9878  0.2783
 9710SOL    HW230808   0.306   7.287   7.506  0.0223  0.8450 -0.7769
 9711SOL     OW30809   7.822   2.829   8.371  0.5247  0.3373 -0.1546
 9711SOL    HW130810   7.869   2.749   8.394  0.5484  0.3240 -0.2484
 9711SOL    HW230811   7.811   2.875   8.454  1.1233  0.5697 -0.2049
 9712SOL     OW30812   0.756   5.633   8.862  0.0701  0.1431  0.0055
 9712SOL    HW130813   0.699   5.609   8.789  0.7835 -0.3558 -0.4006
 9712SOL    HW230814   0.841   5.649   8.821  0.1831  1.0394  0.5815
 9713SOL     OW30815   1.829   6.770   0.364 -0.2466 -0.2356 -0.2513
 9713SOL    HW130816   1.892   6.701   0.342 -1.5817 -1.3740 -0.5973
 9713SOL    HW230817   1.836   6.833   0.292  1.0444  0.0511  0.1066
 9714SOL     OW30818   3.694   6.757   4.040  0.0997  0.0138 -0.0082
 9714SOL    HW130819   3.756   6.766   3.968  0.1277  0.4082  0.0632
 9714SOL    HW230820   3.633   6.830   4.029  0.1981  0.1740  0.4588
 9715SOL     OW30821   4.105   5.686   5.415 -0.1966  0.4481 -0.5883
 9715SOL    HW130822   4.153   5.767   5.434  1.2649 -0.3479 -0.8169
 9715SOL    HW230823   4.017   5.702   5.449 -0.7918  3.2239 -3.2272
 9716SOL     OW30824   6.135   5.168   0.913  0.1149 -0.0623 -0.0596
 9716SOL    HW130825   6.187   5.147   0.835  0.1217 -0.7290  0.1242
 9716SOL    HW230826   6.179   5.121   0.984  0.5648  1.1404  0.4931
 9717SOL     OW30827   8.870   1.173   7.698  0.1684 -0.2798  0.3223
 9717SOL    HW130828   8.800   1.116   7.731  0.6811 -0.6241  0.8188
 9717SOL    HW230829   8.939   1.166   7.763  0.3922  0.6097  0.1822
 9718SOL     OW30830   8.998   4.647   2.642 -0.2848  0.2929  0.3915
 9718SOL    HW130831   9.088   4.662   2.672 -0.5850  0.2546  1.3517
 9718SOL    HW230832   8.983   4.716   2.577  0.6063 -0.0178 -0.1552
 9719SOL     OW30833   4.938   2.925   6.835 -0.1109  0.4170 -0.1403
 9719SOL    HW130834   5.033   2.913   6.834 -0.1712 -0.5371  2.2385
 9719SOL    HW230835   4.925   3.015   6.805  1.4567  0.1511 -1.6616
 9720SOL     OW30836   6.067   6.590   2.338  0.0870 -0.2095 -0.5391
 9720SOL    HW130837   6.117   6.645   2.278  1.9353 -3.1497 -1.8081
 9720SOL    HW230838   6.111   6.601   2.423  1.6115 -1.1827 -1.1988
 9721SOL     OW30839   6.842   8.988   1.526 -0.0589  0.3864  0.1877
 9721SOL    HW130840   6.802   8.924   1.468  0.1157 -1.5783  2.1643
 9721SOL    HW230841   6.795   9.070   1.508  0.3336 -0.0541 -3.0057
 9722SOL     OW30842   6.192   0.610   3.448 -0.1294  0.3768 -0.4864
 9722SOL    HW130843   6.167   0.523   3.479 -0.3667  0.1900 -1.1827
 9722SOL    HW230844   6.142   0.670   3.503 -0.1286  0.0664 -0.1432
 9723SOL     OW30845   8.981   5.366   5.910 -0.7987 -0.3200 -0.1749
 9723SOL    HW130846   8.958   5.279   5.941  0.3780 -1.7250 -3.0717
 9723SOL    HW230847   9.024   5.407   5.985 -0.5874 -2.5436  0.9628
 9724SOL     OW30848   2.094   7.903   1.037  0.0330  0.3961  0.2330
 9724SOL    HW130849   2.026   7.838   1.051  1.1770 -0.9137 -0.2499
 9724SOL    HW230850   2.054   7.968   0.979 -0.6585 -0.5824 -0.3833
 9725SOL     OW30851   5.450   0.305   2.187  0.3936  0.2225 -0.1150
 9725SOL    HW130852   5.491   0.223   2.160  1.2233  0.1899  1.1884
 9725SOL    HW230853   5.523   0.366   2.196  0.0236  0.4921  1.0983
 9726SOL     OW30854   6.112   1.750   5.719  0.3606 -0.3674 -0.0289
 9726SOL    HW130855   6.097   1.807   5.794  0.3649  1.6454 -1.4873
 9726SOL    HW230856   6.205   1.730   5.721 -0.0309 -2.1036  1.6895
 9727SOL     OW30857   5.538   6.321   5.696  0.4149  0.1065  0.6435
 9727SOL    HW130858   5.487   6.240   5.703 -0.5722  0.7182  0.5539
 9727SOL    HW230859   5.525   6.350   5.605  0.5710  0.4884  0.7425
 9728SOL     OW30860   1.105   8.993   6.711  0.0532 -0.4867 -0.0499
 9728SOL    HW130861   1.148   8.919   6.668  0.3261 -0.7971  0.7423
 9728SOL    HW230862   1.126   9.068   6.657 -1.0038 -1.1358 -1.3801
 9729SOL     OW30863   7.838   1.688   3.017  0.4256  0.0093  0.1621
 9729SOL    HW130864   7.851   1.776   3.054 -0.2520  0.2962 -0.2676
 9729SOL    HW230865   7.802   1.637   3.089  0.7228  0.1188  0.3862
 9730SOL     OW30866   3.170   4.662   2.793  0.1273  0.6258  0.6551
 9730SOL    HW130867   3.232   4.678   2.721 -0.2632 -0.0772  0.1549
 9730SOL    HW230868   3.199   4.580   2.832 -1.1983 -0.3335 -0.3477
 9731SOL     OW30869   5.232   4.414   0.741 -0.1084 -0.0421 -0.7433
 9731SOL    HW130870   5.277   4.331   0.726 -0.2654 -0.2132 -0.2678
 9731SOL    HW230871   5.211   4.414   0.834  3.0669  2.0966  0.0749
 9732SOL     OW30872   4.288   7.909   5.302 -0.1345 -0.3192  0.1809
 9732SOL    HW130873   4.349   7.912   5.229 -0.2857  1.4449  0.1077
 9732SOL    HW230874   4.295   7.996   5.343 -2.5133 -0.1160  0.2323
 9733SOL     OW30875   4.778   3.666   6.143 -0.0706 -0.1187  0.6956
 9733SOL    HW130876   4.696   3.623   6.118 -1.3825  2.2201  0.7815
 9733SOL    HW230877   4.756   3.716   6.221  1.4494  0.5024  0.7466
 9734SOL     OW30878   1.731   7.375   4.642 -0.2646  0.3137  0.1062
 9734SOL    HW130879   1.812   7.325   4.649 -0.9838 -1.4095 -3.0941
 9734SOL    HW230880   1.759   7.461   4.611  0.4107  0.0525 -0.0238
 9735SOL     OW30881   0.566   0.714   5.285  0.0803 -0.5592  0.0369
 9735SOL    HW130882   0.477   0.733   5.257  0.2222  1.4360  0.8851
 9735SOL    HW230883   0.619   0.725   5.206 -0.2833 -0.6393 -0.2177
 9736SOL     OW30884   2.457   1.094   2.321  0.1760 -0.0005 -0.4429
 9736SOL    HW130885   2.409   1.012   2.308  0.4222 -0.4492  1.3187
 9736SOL    HW230886   2.393   1.163   2.304 -0.1347 -0.5659 -1.5695
 9737SOL     OW30887   9.177   1.030   3.325 -0.1652  0.3908  0.5534
 9737SOL    HW130888   9.202   1.004   3.413  1.6394  1.5047  0.4084
 9737SOL    HW230889   9.133   1.114   3.337  0.2385  0.6269  0.3735
 9738SOL     OW30890   6.555   8.825   3.163 -0.0535  0.4535  0.2098
 9738SOL    HW130891   6.497   8.893   3.198 -0.1804  1.7854 -2.4601
 9738SOL    HW230892   6.507   8.788   3.089  1.3306 -0.3550 -0.3052
 9739SOL     OW30893   1.501   4.656   3.653  0.1554 -1.3429 -0.0446
 9739SOL    HW130894   1.542   4.600   3.587  1.1876  0.0895 -0.6291
 9739SOL    HW230895   1.545   4.632   3.734  0.8090 -1.1654 -0.3440
 9740SOL     OW30896   4.046   2.548   3.957 -0.6864 -0.2490 -0.0666
 9740SOL    HW130897   3.989   2.483   3.997  0.1321 -1.1974 -0.4063
 9740SOL    HW230898   3.992   2.591   3.891 -1.3120 -0.3965  0.3521
 9741SOL     OW30899   1.363   6.606   6.657  0.2439  0.3538  0.5188
 9741SOL    HW130900   1.389   6.533   6.601 -0.3015  0.5123  0.0444
 9741SOL    HW230901   1.396   6.684   6.612  1.5121  0.3458  1.4301
 9742SOL     OW30902   0.092   1.678   3.707 -0.2216  0.3083 -0.2715
 9742SOL    HW130903   0.028   1.742   3.676 -1.4389 -0.4849  0.5243
 9742SOL    HW230904   0.112   1.706   3.797  0.3145  0.3712 -0.4083
 9743SOL     OW30905   8.674   1.222   8.119  0.1244  0.7090 -0.0118
 9743SOL    HW130906   8.604   1.287   8.125  0.2454  0.9266 -0.8695
 9743SOL    HW230907   8.698   1.221   8.026  3.6131  3.1307  0.7236
 9744SOL     OW30908   1.005   4.159   7.020 -0.3022 -0.1189 -0.0202
 9744SOL    HW130909   0.972   4.070   7.017 -0.4997 -0.0496  0.0513
 9744SOL    HW230910   0.935   4.209   7.063 -0.2160  0.0790 -0.1067
 9745SOL     OW30911   8.217   8.534   7.078 -0.1636 -0.2606 -0.0964
 9745SOL    HW130912   8.157   8.595   7.122 -0.1185 -0.4587  0.2428
 9745SOL    HW230913   8.296   8.536   7.132 -0.3689 -1.0595  0.2505
 9746SOL     OW30914   8.121   6.023   3.084  0.0965 -0.2009 -0.0283
 9746SOL    HW130915   8.101   5.935   3.054  1.0186 -0.4831  0.1699
 9746SOL    HW230916   8.069   6.081   3.027 -1.0914 -0.8925  0.3325
 9747SOL     OW30917   2.795   5.307   2.918  0.1668  0.3026  0.5195
 9747SOL    HW130918   2.837   5.371   2.975 -1.1053  0.9565  0.7255
 9747SOL    HW230919   2.822   5.222   2.955  2.3787  0.6656 -0.1450
 9748SOL     OW30920   7.321   9.106   9.128 -0.1332 -0.2896 -0.0456
 9748SOL    HW130921   7.401   9.120   9.078  0.1739 -1.3570  0.1187
 9748SOL    HW230922   7.343   9.130   9.218 -0.2794  0.3185 -0.1697
 9749SOL     OW30923   3.298   5.647   6.118  0.5067 -0.0263  0.5011
 9749SOL    HW130924   3.386   5.666   6.086  0.5580 -2.2214 -0.7838
 9749SOL    HW230925   3.313   5.603   6.202  0.6127  0.2430  0.6237
 9750SOL     OW30926   0.576   1.682   1.140 -0.0621  0.2089  0.0829
 9750SOL    HW130927   0.548   1.763   1.184 -0.8021  0.4008 -0.7327
 9750SOL    HW230928   0.511   1.669   1.071  0.1981 -0.9560  0.0590
 9751SOL     OW30929   3.544   3.212   1.626  0.0764 -0.7189  0.3756
 9751SOL    HW130930   3.517   3.300   1.600 -0.4885 -0.7207  0.9562
 9751SOL    HW230931   3.569   3.170   1.544  2.4315  0.6811  0.3260
 9752SOL     OW30932   5.695   6.317   3.657  0.0875 -0.3653 -0.7192
 9752SOL    HW130933   5.668   6.296   3.746  1.3836 -1.3516 -0.5359
 9752SOL    HW230934   5.679   6.411   3.648  1.6678  0.1105  1.1650
 9753SOL     OW30935   2.644   5.142   6.444  0.2454  0.4831 -0.2180
 9753SOL    HW130936   2.724   5.131   6.495 -1.5095 -1.9567  2.1617
 9753SOL    HW230937   2.636   5.060   6.395 -2.2429 -0.5328  1.7820
 9754SOL     OW30938   4.931   6.074   6.305 -0.0879 -0.4101  0.1911
 9754SOL    HW130939   4.910   6.167   6.294 -2.1019 -0.8532  0.0435
 9754SOL    HW230940   5.014   6.063   6.259 -0.1883  1.1831 -0.4183
 9755SOL     OW30941   2.502   5.075   2.733 -0.0808  0.1603 -0.0619
 9755SOL    HW130942   2.516   5.162   2.768 -0.7422 -0.2695  1.2821
 9755SOL    HW230943   2.589   5.035   2.731  0.1012  0.5574  0.0885
 9756SOL     OW30944   7.168   3.483   6.276  0.2187 -0.3410  0.1225
 9756SOL    HW130945   7.148   3.536   6.353  2.9336  0.6448  0.1921
 9756SOL    HW230946   7.099   3.505   6.214 -1.1124  0.0362  1.6915
 9757SOL     OW30947   7.457   7.262   9.000 -0.1993 -0.1728  0.9237
 9757SOL    HW130948   7.396   7.318   8.952  0.5365  0.7798  1.0764
 9757SOL    HW230949   7.421   7.174   8.992  1.4724 -0.5448 -3.9343
 9758SOL     OW30950   3.601   8.984   7.161 -0.1136 -0.3895 -0.3574
 9758SOL    HW130951   3.618   8.989   7.255 -1.9517 -2.1305  0.0883
 9758SOL    HW230952   3.658   8.914   7.129  0.6603  0.3363 -0.5946
 9759SOL     OW30953   6.021   6.155   5.557  0.0709  0.0116 -0.3803
 9759SOL    HW130954   6.035   6.064   5.584 -2.0772  0.3294  1.9734
 9759SOL    HW230955   5.926   6.163   5.547  0.0832  2.3746  0.9807
 9760SOL     OW30956   2.401   1.482   6.528 -0.5541 -0.2354 -0.0493
 9760SOL    HW130957   2.315   1.443   6.510 -0.5521 -0.1211 -0.3120
 9760SOL    HW230958   2.462   1.409   6.529 -0.8523 -0.4830  1.4447
 9761SOL     OW30959   5.620   1.079   0.890  0.4031 -0.4549  0.2487
 9761SOL    HW130960   5.612   1.027   0.811  1.7079 -0.7172  0.2748
 9761SOL    HW230961   5.699   1.044   0.934  0.7876  0.9487  0.6979
 9762SOL     OW30962   0.862   6.961   6.584 -0.3887  0.0711 -0.0782
 9762SOL    HW130963   0.881   6.944   6.491 -0.7447 -0.6136 -0.0212
 9762SOL    HW230964   0.944   6.998   6.618 -0.0500 -0.2759 -0.5114
 9763SOL     OW30965   7.683   2.260   0.892  0.3196  0.3520  0.0791
 9763SOL    HW130966   7.599   2.217   0.880  0.8204 -0.5487 -0.2526
 9763SOL    HW230967   7.693   2.315   0.814 -0.8653  2.0028  1.0767
 9764SOL     OW30968   3.565   9.157   1.055  0.2668  0.1577  0.6337
 9764SOL    HW130969   3.626   9.165   0.981  0.9990 -2.9260  0.8341
 9764SOL    HW230970   3.495   9.101   1.022 -0.5716  0.6712  1.5508
 9765SOL     OW30971   7.651   9.017   4.310 -0.0059  0.2984 -0.3864
 9765SOL    HW130972   7.634   9.095   4.258 -0.9848 -0.2004 -0.8208
 9765SOL    HW230973   7.728   8.977   4.269 -1.0003 -0.2999 -1.6940
 9766SOL     OW30974   0.623   5.302   1.557 -0.3624 -0.1091 -0.2642
 9766SOL    HW130975   0.676   5.232   1.593  2.1071  0.9896 -1.6812
 9766SOL    HW230976   0.599   5.272   1.469  0.0106  0.4760 -0.5656
 9767SOL     OW30977   0.196   1.359   8.358  0.5099 -0.7041 -0.3130
 9767SOL    HW130978   0.256   1.325   8.293  0.4768 -0.4719 -0.4647
 9767SOL    HW230979   0.112   1.364   8.313  0.1561 -1.9462  0.1733
 9768SOL     OW30980   0.651   1.061   0.920  0.0643 -0.1474 -0.2048
 9768SOL    HW130981   0.569   1.107   0.901  0.2140  0.2725  0.1415
 9768SOL    HW230982   0.623   0.974   0.949 -0.1843 -0.5719 -1.6943
 9769SOL     OW30983   1.957   8.452   5.031  0.2837 -0.0748  0.2104
 9769SOL    HW130984   1.978   8.413   5.116  2.3547  0.6302  0.0647
 9769SOL    HW230985   1.862   8.462   5.032  0.1263 -1.3616  1.8711
 9770SOL     OW30986   4.379   3.689   3.065 -0.6200 -0.2430  0.4197
 9770SOL    HW130987   4.467   3.665   3.035 -0.6834 -0.7214  0.6120
 9770SOL    HW230988   4.389   3.778   3.100 -0.5676  0.3479 -1.0850
 9771SOL     OW30989   3.301   3.578   0.830  0.1918  0.1180  0.0917
 9771SOL    HW130990   3.394   3.601   0.826  0.1719  0.6569  2.0879
 9771SOL    HW230991   3.279   3.585   0.923 -2.4129  2.2570 -0.6406
 9772SOL     OW30992   1.872   1.998   8.794  0.8656 -0.4993  0.0848
 9772SOL    HW130993   1.908   2.045   8.869 -0.4069 -0.8911  0.9518
 9772SOL    HW230994   1.777   2.013   8.799  0.8461  0.2011 -1.9391
 9773SOL     OW30995   8.464   2.119   5.365 -0.0886 -0.1454  0.1022
 9773SOL    HW130996   8.549   2.143   5.402 -0.6676  2.9857 -0.5063
 9773SOL    HW230997   8.405   2.116   5.440 -0.2673  1.6468  0.0589
 9774SOL     OW30998   9.045   0.987   1.401 -0.3621  0.0275  0.0276
 9774SOL    HW130999   8.999   1.001   1.319  0.3274 -1.1768 -0.5906
 9774SOL    HW231000   8.990   1.028   1.468 -2.2007 -1.1946 -0.7121
 9775SOL     OW31001   1.072   7.446   7.053 -0.0254 -0.2475 -0.0778
 9775SOL    HW131002   1.078   7.416   7.143 -0.6442  0.7680  0.3115
 9775SOL    HW231003   0.989   7.409   7.021  0.0402 -0.3487 -0.1310
 9776SOL     OW31004   1.927   4.810   2.383  0.4738 -0.2135  0.4694
 9776SOL    HW131005   1.967   4.898   2.380 -0.2550  0.1259  0.6510
 9776SOL    HW231006   1.945   4.779   2.472 -0.4355  0.3013  0.8332
 9777SOL     OW31007   4.015   5.988   7.205  0.0356  0.2000 -0.6793
 9777SOL    HW131008   3.943   5.952   7.256  0.9828 -0.5039  0.1961
 9777SOL    HW231009   3.997   5.963   7.115  0.4012 -2.0424 -0.1486
 9778SOL     OW31010   6.912   8.033   2.793 -0.3451 -0.4652  0.4121
 9778SOL    HW131011   7.000   8.022   2.757 -0.6636 -1.8652  0.0143
 9778SOL    HW231012   6.924   8.032   2.888 -0.0239 -1.6645  0.3728
 9779SOL     OW31013   2.677   5.143   0.388  0.7593 -0.2551 -0.2227
 9779SOL    HW131014   2.726   5.122   0.468  0.3652  0.0377  0.0979
 9779SOL    HW231015   2.628   5.222   0.411 -0.7562 -1.1892 -0.1676
 9780SOL     OW31016   7.752   4.098   4.073 -0.2314 -0.2982  0.2769
 9780SOL    HW131017   7.692   4.106   3.998 -0.1757  0.4996  0.3218
 9780SOL    HW231018   7.827   4.152   4.050 -0.4499  0.3862  1.1468
 9781SOL     OW31019   0.875   6.299   7.930 -0.0075  0.0108 -0.4895
 9781SOL    HW131020   0.839   6.274   8.015  1.8106  0.7297  0.5071
 9781SOL    HW231021   0.962   6.258   7.927  0.8539  1.8081 -1.0568
 9782SOL     OW31022   3.041   4.445   2.327  0.3757 -0.1308 -0.2010
 9782SOL    HW131023   3.117   4.490   2.363  0.0650 -0.1717  0.5141
 9782SOL    HW231024   3.072   4.358   2.305  1.5215  1.0348 -3.5243
 9783SOL     OW31025   6.862   2.804   1.712 -0.4092 -0.2354 -0.1090
 9783SOL    HW131026   6.904   2.795   1.798 -1.2194  1.2342  0.4550
 9783SOL    HW231027   6.931   2.835   1.654 -0.3191  0.6621  0.4663
 9784SOL     OW31028   2.742   8.656   3.380  1.0897 -0.1241 -0.3272
 9784SOL    HW131029   2.791   8.574   3.370  3.0008  0.8855  0.3858
 9784SOL    HW231030   2.777   8.713   3.311  0.7018  0.5205  0.0023
 9785SOL     OW31031   8.803   3.511   8.414 -0.5236  0.2315 -0.6014
 9785SOL    HW131032   8.712   3.537   8.429 -0.5860  0.5958 -1.6155
 9785SOL    HW231033   8.828   3.553   8.332  0.8752  0.9472  0.1560
 9786SOL     OW31034   8.468   6.237   6.927 -0.1392 -0.1096 -0.2615
 9786SOL    HW131035   8.387   6.228   6.877 -0.4868 -1.2274  0.4789
 9786SOL    HW231036   8.519   6.303   6.879 -1.1613  0.0495 -1.1459
 9787SOL     OW31037   3.834   7.940   2.310  0.4692  0.0665 -0.3016
 9787SOL    HW131038   3.798   8.002   2.247 -0.5649 -0.4013 -0.1682
 9787SOL    HW231039   3.928   7.959   2.310  0.1530  1.7064 -0.1781
 9788SOL     OW31040   4.996   0.502   6.848  0.3995  0.1760 -0.0747
 9788SOL    HW131041   5.001   0.408   6.832  2.5883  0.2030  0.2981
 9788SOL    HW231042   4.951   0.510   6.932 -0.6624 -0.4801 -0.5732
 9789SOL     OW31043   0.591   0.401   6.985  0.0003  0.6738  0.1689
 9789SOL    HW131044   0.635   0.483   7.007  1.5932 -0.3307  0.8329
 9789SOL    HW231045   0.597   0.396   6.890  3.2167 -0.4332  0.3668
 9790SOL     OW31046   3.646   7.890   2.935 -0.3957  0.8170 -0.0081
 9790SOL    HW131047   3.639   7.866   2.842 -0.4626  0.8108 -0.0015
 9790SOL    HW231048   3.670   7.808   2.978  1.4552  1.1956 -0.2498
 9791SOL     OW31049   4.679   4.434   6.942 -0.5148  0.0755 -0.2690
 9791SOL    HW131050   4.727   4.419   6.860 -0.0326  0.1556 -0.0018
 9791SOL    HW231051   4.634   4.351   6.959 -1.6519  0.4524 -1.2861
 9792SOL     OW31052   0.978   2.063   0.154 -0.0302  0.4705  0.1571
 9792SOL    HW131053   0.991   1.972   0.126  1.5819  1.0752 -1.0966
 9792SOL    HW231054   0.885   2.066   0.180 -0.3895 -1.2515 -0.8024
 9793SOL     OW31055   5.237   8.359   1.503 -0.3349 -0.5325  0.2507
 9793SOL    HW131056   5.330   8.357   1.483 -0.4413 -0.3770 -0.2451
 9793SOL    HW231057   5.221   8.276   1.549 -0.1266 -0.9492 -0.4264
 9794SOL     OW31058   2.253   7.726   0.891  0.3485  0.3629 -0.5464
 9794SOL    HW131059   2.197   7.786   0.939  0.3178 -0.0081 -0.1189
 9794SOL    HW231060   2.341   7.739   0.928  0.1744 -0.5207  0.1848
 9795SOL     OW31061   7.207   0.737   0.156 -0.0448  0.1053 -0.2504
 9795SOL    HW131062   7.161   0.657   0.129  0.7408 -0.9016  1.3362
 9795SOL    HW231063   7.299   0.713   0.158  0.2411  1.1864 -0.2223
 9796SOL     OW31064   4.515   5.436   2.106 -0.1963 -0.1223  0.1394
 9796SOL    HW131065   4.565   5.383   2.169  1.2610  0.4203 -0.5289
 9796SOL    HW231066   4.484   5.372   2.042  0.6486 -0.3187 -0.0836
 9797SOL     OW31067   7.468   1.759   2.653 -0.3103 -0.3836  0.2070
 9797SOL    HW131068   7.552   1.762   2.699  0.1446 -0.1309 -0.6226
 9797SOL    HW231069   7.408   1.808   2.709  0.2459 -0.0567  0.5197
 9798SOL     OW31070   1.253   7.289   6.238  0.5205  0.4114 -0.1468
 9798SOL    HW131071   1.338   7.275   6.281  1.0968 -2.0231 -2.0034
 9798SOL    HW231072   1.190   7.290   6.310  1.9203  0.5477  1.1131
 9799SOL     OW31073   5.580   5.103   0.191  0.0832 -0.5196  0.5554
 9799SOL    HW131074   5.506   5.163   0.180  0.5863  0.0654  0.3106
 9799SOL    HW231075   5.540   5.017   0.202 -0.6209 -0.2785 -0.0661
 9800SOL     OW31076   1.229   3.851   5.887 -0.3776  0.1850  0.0669
 9800SOL    HW131077   1.277   3.840   5.805 -0.2114  0.9781  0.0593
 9800SOL    HW231078   1.248   3.771   5.936  1.6643  0.8544  0.4271
 9801SOL     OW31079   6.295   3.421   8.938  1.0889  0.8625 -0.4867
 9801SOL    HW131080   6.386   3.395   8.952  1.1032  1.6694  0.9602
 9801SOL    HW231081   6.289   3.439   8.844  1.9057 -1.1589 -0.9513
 9802SOL     OW31082   7.286   6.828   8.546  0.8848  0.5428 -0.1512
 9802SOL    HW131083   7.297   6.759   8.612  0.7929 -1.4922 -2.2207
 9802SOL    HW231084   7.375   6.857   8.527  1.1605 -1.0164 -1.3382
 9803SOL     OW31085   0.058   2.770   2.961  0.3015 -0.0023 -0.0323
 9803SOL    HW131086   0.040   2.864   2.954 -1.0864 -0.1623  1.2477
 9803SOL    HW231087  -0.017   2.734   3.008  1.3093 -1.6039  0.3929
 9804SOL     OW31088   5.155   8.839   5.955  0.2952  0.0709 -0.2678
 9804SOL    HW131089   5.187   8.914   5.904  0.2939 -0.1810 -0.6400
 9804SOL    HW231090   5.146   8.769   5.891 -1.6002  0.3119 -0.3119
 9805SOL     OW31091   0.995   6.036   6.560  0.0200 -0.5830 -0.4142
 9805SOL    HW131092   1.047   5.956   6.571 -0.5375 -1.1080 -1.4380
 9805SOL    HW231093   0.980   6.068   6.649  0.6057 -1.3872 -0.0197
 9806SOL     OW31094   8.045   6.691   2.246 -0.7425  0.2212  0.4437
 9806SOL    HW131095   8.032   6.765   2.187  0.9886 -0.9052 -1.4129
 9806SOL    HW231096   7.969   6.634   2.231 -1.4777  1.0191  1.0290
 9807SOL     OW31097   1.355   3.914   9.025  0.0819 -0.2528  0.3034
 9807SOL    HW131098   1.274   3.960   9.050 -1.1068 -2.0951 -0.0723
 9807SOL    HW231099   1.411   3.923   9.102 -0.3712  1.2307  0.4954
 9808SOL     OW31100   1.953   2.537   4.983 -0.1796  0.3313  0.3583
 9808SOL    HW131101   1.983   2.617   4.940  0.4586  0.1750  0.5096
 9808SOL    HW231102   1.983   2.545   5.073  0.1773 -0.2279  0.2925
 9809SOL     OW31103   1.172   1.978   5.474  0.4742 -0.3363 -0.0766
 9809SOL    HW131104   1.228   1.955   5.548  1.1686 -2.3707 -1.1960
 9809SOL    HW231105   1.232   2.009   5.407 -0.1067  1.0084  0.0154
 9810SOL     OW31106   7.240   1.966   7.249 -0.2271  0.7692  0.0309
 9810SOL    HW131107   7.332   1.947   7.230 -0.3931  1.8580 -1.9943
 9810SOL    HW231108   7.238   2.060   7.266 -1.0036  0.7765 -0.0926
 9811SOL     OW31109   2.922   5.157   5.506 -0.6714  0.2280 -0.6041
 9811SOL    HW131110   2.830   5.162   5.478 -0.9392 -0.2040  0.1697
 9811SOL    HW231111   2.920   5.181   5.599 -0.0269  0.0328 -0.5369
 9812SOL     OW31112   2.179   3.240   5.592 -0.5482  0.5085 -0.0936
 9812SOL    HW131113   2.241   3.170   5.609 -2.6251 -1.6740 -1.2886
 9812SOL    HW231114   2.169   3.285   5.677  2.1217  0.5025  0.2453
 9813SOL     OW31115   0.789   8.940   6.488  0.2763  0.2634  0.6892
 9813SOL    HW131116   0.865   8.920   6.542 -0.2336 -0.5892  1.0943
 9813SOL    HW231117   0.743   8.857   6.479 -0.6583  0.7878  0.5240
 9814SOL     OW31118   4.200   4.101   4.413 -0.2124 -0.3080 -0.7514
 9814SOL    HW131119   4.173   4.048   4.487 -0.0029  0.1777 -0.3250
 9814SOL    HW231120   4.162   4.057   4.337 -0.0142 -1.0904 -0.4116
 9815SOL     OW31121   5.207   1.968   6.054 -0.6048  0.2983  0.5445
 9815SOL    HW131122   5.141   2.018   6.005 -2.1654 -1.2672  1.0071
 9815SOL    HW231123   5.268   1.938   5.986 -2.7615 -1.8661 -0.5243
 9816SOL     OW31124   2.247   7.508   5.626  0.3951 -0.5111  0.1130
 9816SOL    HW131125   2.258   7.424   5.671 -0.1893 -0.2065  0.8242
 9816SOL    HW231126   2.193   7.487   5.550 -0.3912 -0.6450  0.7052
 9817SOL     OW31127   0.496   7.196   0.377  0.2162 -0.1632  0.2920
 9817SOL    HW131128   0.563   7.128   0.373  0.1726 -0.2429  0.9232
 9817SOL    HW231129   0.448   7.178   0.457 -1.0378 -0.5501 -0.5320
 9818SOL     OW31130   2.243   0.422   2.451  0.4803  0.5011 -0.2282
 9818SOL    HW131131   2.234   0.444   2.358 -0.0790 -1.6522 -0.7152
 9818SOL    HW231132   2.290   0.339   2.452  0.7344  0.6416  1.4293
 9819SOL     OW31133   5.222   4.754   1.370  0.7028 -0.0300  0.4249
 9819SOL    HW131134   5.178   4.773   1.452  2.5650 -0.0124  1.4625
 9819SOL    HW231135   5.273   4.834   1.351  1.2619 -0.4986 -0.0758
 9820SOL     OW31136   6.085   1.309   0.809 -0.1010  0.8525  0.0776
 9820SOL    HW131137   5.995   1.320   0.778 -0.2384  2.2365  0.9252
 9820SOL    HW231138   6.077   1.308   0.905  0.7793  0.8700  0.1526
 9821SOL     OW31139   6.283   5.302   5.467  0.0445 -0.0723  0.3875
 9821SOL    HW131140   6.323   5.387   5.487 -0.9124  0.8233 -1.3868
 9821SOL    HW231141   6.240   5.276   5.548  1.9790  0.1804  1.5383
 9822SOL     OW31142   8.815   0.400   7.537 -0.0701  0.2928 -0.3013
 9822SOL    HW131143   8.805   0.341   7.612 -0.2649  0.9812  0.2190
 9822SOL    HW231144   8.895   0.370   7.493 -0.9979 -1.3332 -0.9326
 9823SOL     OW31145   7.897   8.720   9.083  0.4143  0.0609  0.0915
 9823SOL    HW131146   7.990   8.714   9.060 -0.0745  0.0759 -1.9669
 9823SOL    HW231147   7.892   8.679   9.170  2.4063  0.4558  0.4295
 9824SOL     OW31148   0.775   0.752   4.400  0.4117 -0.5356 -0.6811
 9824SOL    HW131149   0.732   0.838   4.402  0.3490 -0.5737 -0.4124
 9824SOL    HW231150   0.714   0.696   4.352  0.5154 -0.3967 -0.9778
 9825SOL     OW31151   2.430   1.588   5.803  0.0890 -0.0655 -0.2156
 9825SOL    HW131152   2.456   1.625   5.887  2.3464  0.4592 -1.1032
 9825SOL    HW231153   2.341   1.621   5.788  0.3346  1.2482  1.1359
 9826SOL     OW31154   2.315   4.606   4.183 -0.0986 -0.1581 -0.2475
 9826SOL    HW131155   2.392   4.661   4.202  0.5105 -1.2640  0.5300
 9826SOL    HW231156   2.329   4.527   4.234 -1.6040 -0.5157 -0.3732
 9827SOL     OW31157   5.593   1.815   2.512 -0.0500 -0.6149  0.5133
 9827SOL    HW131158   5.660   1.779   2.453 -0.7454  0.2467 -0.8451
 9827SOL    HW231159   5.632   1.897   2.545  0.3006 -1.0480  1.1767
 9828SOL     OW31160   8.917   5.105   6.033  0.1643 -0.1718 -0.1805
 9828SOL    HW131161   8.935   5.085   6.125 -1.0835  0.1615  0.1337
 9828SOL    HW231162   8.899   5.019   5.993  0.0332 -0.2440  0.0330
 9829SOL     OW31163   0.332   3.175   8.015 -0.2810  0.7344 -0.3849
 9829SOL    HW131164   0.274   3.238   8.058 -2.8160  0.4311 -3.1746
 9829SOL    HW231165   0.287   3.091   8.023  0.0866  0.3615 -1.9391
 9830SOL     OW31166   8.375   3.810   8.477 -0.1952  0.1799  0.0670
 9830SOL    HW131167   8.406   3.866   8.406 -0.8080  0.5208  0.0668
 9830SOL    HW231168   8.297   3.854   8.510 -0.6835 -0.6745  0.0629
 9831SOL     OW31169   4.345   8.299   0.664 -0.4331 -0.3287  0.7859
 9831SOL    HW131170   4.316   8.229   0.723 -1.4438 -1.9178 -1.5511
 9831SOL    HW231171   4.275   8.364   0.667 -0.2324 -0.1435  1.7217
 9832SOL     OW31172   7.353   3.907   5.258  0.2442  0.0659  0.4634
 9832SOL    HW131173   7.286   3.870   5.315  0.3967 -1.2994 -0.2084
 9832SOL    HW231174   7.417   3.836   5.246 -0.0656  0.1080 -1.8119
 9833SOL     OW31175   6.154   7.713   4.312  0.0195  0.0265 -0.0423
 9833SOL    HW131176   6.143   7.618   4.317  0.2093  0.0620  1.2201
 9833SOL    HW231177   6.082   7.743   4.258 -1.7624 -0.5334  1.9590
 9834SOL     OW31178   6.457   9.030   2.269 -0.3261 -0.0697 -0.2364
 9834SOL    HW131179   6.490   8.943   2.291 -0.8796 -0.0503  0.6955
 9834SOL    HW231180   6.536   9.084   2.261 -0.0562 -0.3161  0.6860
 9835SOL     OW31181   0.433   0.275   1.361 -0.7615 -0.2668 -0.0821
 9835SOL    HW131182   0.378   0.353   1.362 -1.5465 -0.8070 -1.2042
 9835SOL    HW231183   0.420   0.236   1.448 -1.5999 -0.0107 -0.0904
 9836SOL     OW31184   4.680   5.073   1.039 -0.0321 -0.4229 -0.8634
 9836SOL    HW131185   4.706   4.982   1.045  0.2322 -0.2883  0.1889
 9836SOL    HW231186   4.622   5.077   0.963  0.1442 -1.4136 -1.0540
 9837SOL     OW31187   8.053   2.107   0.700  0.0204  0.2225  0.6155
 9837SOL    HW131188   8.132   2.127   0.650  0.6944  2.0070  2.3200
 9837SOL    HW231189   8.085   2.055   0.774 -0.2788  1.3499  1.5681
 9838SOL     OW31190   7.285   5.276   3.894 -0.0619  0.3929 -0.1346
 9838SOL    HW131191   7.212   5.215   3.899 -0.2730  0.7121  0.7497
 9838SOL    HW231192   7.277   5.330   3.972  2.1569 -0.7319  0.9161
 9839SOL     OW31193   4.041   6.169   3.759  0.7723 -0.0991  0.7068
 9839SOL    HW131194   3.998   6.115   3.825  0.8386 -0.0711  0.7730
 9839SOL    HW231195   4.050   6.255   3.800 -1.3266  0.5945 -0.1980
 9840SOL     OW31196   2.400   8.886   8.208 -0.2324 -0.3744  0.4418
 9840SOL    HW131197   2.493   8.885   8.183 -0.1232  1.2237  0.7445
 9840SOL    HW231198   2.384   8.798   8.242  1.6379 -0.1751  1.9980
 9841SOL     OW31199   0.363   0.261   8.349  0.1239  0.2286 -0.2960
 9841SOL    HW131200   0.414   0.185   8.377  0.2530  1.0963  1.9470
 9841SOL    HW231201   0.350   0.312   8.429  0.6948  2.9880 -1.8906
 9842SOL     OW31202   0.363   3.174   2.710 -0.3155  0.1620  0.1099
 9842SOL    HW131203   0.365   3.228   2.630  2.0766 -1.1252 -0.7480
 9842SOL    HW231204   0.273   3.142   2.715 -0.8014  1.2350 -1.4150
 9843SOL     OW31205   0.064   3.854   5.939 -0.1427  0.4168 -0.0398
 9843SOL    HW131206   0.101   3.857   5.850 -0.0489 -0.9085 -0.0618
 9843SOL    HW231207   0.118   3.914   5.989  2.1280 -1.4989 -0.0672
 9844SOL     OW31208   2.553   2.065   0.982  0.0482  0.1147 -0.0044
 9844SOL    HW131209   2.592   1.998   0.925 -2.3325 -1.1189 -0.2745
 9844SOL    HW231210   2.626   2.123   1.005  2.0222 -2.0879 -0.4536
 9845SOL     OW31211   9.153   5.925   4.563 -0.3017  0.4171 -0.0353
 9845SOL    HW131212   9.158   5.915   4.658 -0.5211 -0.4463 -0.1098
 9845SOL    HW231213   9.227   5.874   4.530 -1.8752 -1.6384 -0.4657
 9846SOL     OW31214   5.960   8.013   0.414 -0.5165  0.0396 -0.0463
 9846SOL    HW131215   5.897   8.022   0.342  0.2906  0.1140 -0.7488
 9846SOL    HW231216   5.986   8.102   0.435 -0.7655  0.0198  0.3562
 9847SOL     OW31217   3.194   4.486   9.280 -0.0684  0.2012 -0.2576
 9847SOL    HW131218   3.187   4.398   9.316 -1.1753 -0.5510 -2.2284
 9847SOL    HW231219   3.284   4.491   9.248 -0.1021 -0.3392 -0.4485
 9848SOL     OW31220   8.331   4.578   0.369 -0.4187 -0.4829 -0.1913
 9848SOL    HW131221   8.265   4.579   0.438 -0.1351  0.3501  0.0688
 9848SOL    HW231222   8.415   4.578   0.416 -0.2271 -0.0521 -0.5339
 9849SOL     OW31223   2.522   8.948   0.124 -0.6464 -0.8757 -0.4878
 9849SOL    HW131224   2.496   9.034   0.156  0.3666 -0.7774  0.1128
 9849SOL    HW231225   2.460   8.887   0.165 -0.1405 -0.6237  0.6800
 9850SOL     OW31226   9.100   4.669   6.986  0.4887 -0.3325  0.1015
 9850SOL    HW131227   9.123   4.754   6.949  0.0572  0.1600  0.9319
 9850SOL    HW231228   9.127   4.605   6.920  2.5048  0.3210  0.2617
 9851SOL     OW31229   8.465   4.061   3.037 -0.2206 -0.3816  0.2538
 9851SOL    HW131230   8.521   3.984   3.045  0.7942  0.3853  0.7188
 9851SOL    HW231231   8.444   4.085   3.128  0.6676  0.7408  0.1722
 9852SOL     OW31232   5.421   4.480   2.101  0.1408 -0.0169  0.0429
 9852SOL    HW131233   5.462   4.559   2.067  0.6156 -0.6696 -0.9175
 9852SOL    HW231234   5.451   4.410   2.043 -0.5328 -0.8525  0.6848
 9853SOL     OW31235   0.425   7.661   1.284 -1.0082 -0.2488 -0.1419
 9853SOL    HW131236   0.503   7.704   1.318 -1.6129 -0.3407  1.4198
 9853SOL    HW231237   0.434   7.665   1.189 -0.9998  3.2076 -0.0490
 9854SOL     OW31238   1.632   2.716   1.813 -0.5021 -0.0020 -0.2848
 9854SOL    HW131239   1.597   2.783   1.754 -1.6360 -0.5522 -0.2464
 9854SOL    HW231240   1.563   2.650   1.818  0.8606 -1.4904 -0.8073
 9855SOL     OW31241   1.362   7.634   4.196  0.2958 -0.5000  0.2242
 9855SOL    HW131242   1.386   7.614   4.106  2.0632 -0.8494  0.7461
 9855SOL    HW231243   1.335   7.725   4.194 -1.6545 -1.0641 -1.0101
 9856SOL     OW31244   1.972   7.250   4.709  0.4009  0.0450  0.3131
 9856SOL    HW131245   1.944   7.202   4.630 -1.2118 -1.0305  1.4902
 9856SOL    HW231246   2.010   7.331   4.676  0.2624 -0.6424 -1.6036
 9857SOL     OW31247   6.093   1.472   4.282  0.3191  0.5308  0.2838
 9857SOL    HW131248   6.138   1.406   4.229  1.2879  1.5173 -0.1319
 9857SOL    HW231249   6.050   1.529   4.219  0.0114  0.6696  0.6190
 9858SOL     OW31250   2.717   0.292   4.203 -0.2774  0.3540 -0.1214
 9858SOL    HW131251   2.680   0.208   4.228  0.4877 -0.1443 -0.6370
 9858SOL    HW231252   2.699   0.350   4.278 -1.5791 -0.0149 -0.1330
 9859SOL     OW31253   8.045   4.440   5.586  0.5925 -0.1439 -0.3934
 9859SOL    HW131254   8.007   4.496   5.518 -0.1993 -1.3186 -0.9234
 9859SOL    HW231255   8.132   4.476   5.600  0.0919  1.2312 -0.7324
 9860SOL     OW31256   0.245   3.561   6.839  0.6824 -0.0667  0.4629
 9860SOL    HW131257   0.192   3.592   6.765 -0.1714 -1.4921  0.4631
 9860SOL    HW231258   0.223   3.621   6.911 -0.8973 -0.6134  0.4492
 9861SOL     OW31259   5.538   4.487   4.178  0.3224  0.5905  0.2294
 9861SOL    HW131260   5.458   4.510   4.131 -0.6482 -2.2284  0.3953
 9861SOL    HW231261   5.599   4.461   4.109 -0.2208 -0.9892  0.3244
 9862SOL     OW31262   7.509   0.375   6.434  0.4585  0.7253  0.6447
 9862SOL    HW131263   7.433   0.350   6.487 -0.4300  0.8360 -0.5394
 9862SOL    HW231264   7.568   0.300   6.438 -1.2833 -0.8125 -1.2373
 9863SOL     OW31265   3.960   1.755   2.611 -0.6308  0.5371  0.1998
 9863SOL    HW131266   3.896   1.725   2.547 -1.4881  0.6919  0.9840
 9863SOL    HW231267   3.917   1.744   2.696  0.9964 -0.9559  0.8576
 9864SOL     OW31268   0.783   4.742   6.233 -0.5139  0.2047 -0.9753
 9864SOL    HW131269   0.849   4.806   6.207 -1.6950  0.4776 -3.4354
 9864SOL    HW231270   0.833   4.663   6.253  0.8171  1.3967  0.5530
 9865SOL     OW31271   6.998   6.215   2.200  0.4444  0.2634 -0.0097
 9865SOL    HW131272   7.073   6.178   2.153 -0.7060 -0.8273 -1.0176
 9865SOL    HW231273   6.976   6.147   2.264  0.2138  0.5086  0.1663
 9866SOL     OW31274   6.946   8.600   2.383  0.1321  0.4096  0.1599
 9866SOL    HW131275   6.857   8.585   2.353  1.1947 -0.5392 -2.6340
 9866SOL    HW231276   6.956   8.695   2.381 -1.4499  0.6667  2.5123
 9867SOL     OW31277   6.758   5.198   6.264  0.3602 -0.0627 -0.2284
 9867SOL    HW131278   6.841   5.240   6.242  1.6043 -2.6741 -0.6997
 9867SOL    HW231279   6.783   5.111   6.295 -2.2141 -0.8547 -0.2789
 9868SOL     OW31280   7.503   1.765   9.248  0.6490  0.1598  0.1776
 9868SOL    HW131281   7.451   1.710   9.190  1.0749  0.8756 -0.8895
 9868SOL    HW231282   7.502   1.851   9.206  1.8339  0.4296  0.6913
 9869SOL     OW31283   3.153   6.500   5.207  0.1060  0.2953  0.4041
 9869SOL    HW131284   3.194   6.419   5.176 -0.1428 -0.8201  2.8961
 9869SOL    HW231285   3.130   6.483   5.298 -2.5338  2.2034  0.1762
 9870SOL     OW31286   3.568   0.182   6.515  0.2368 -0.3675  0.2037
 9870SOL    HW131287   3.523   0.241   6.577  1.7494  1.5299 -0.4470
 9870SOL    HW231288   3.498   0.133   6.474 -1.0817  0.9364  0.8290
 9871SOL     OW31289   2.316   0.790   6.386 -0.3246 -0.1125 -0.0764
 9871SOL    HW131290   2.388   0.818   6.330  2.5027  0.9871  3.9065
 9871SOL    HW231291   2.305   0.697   6.366  1.1884  0.0610 -1.8001
 9872SOL     OW31292   7.254   2.808   3.012  0.0558 -0.3661  0.1471
 9872SOL    HW131293   7.275   2.889   3.059 -2.1006 -0.7161  1.7916
 9872SOL    HW231294   7.167   2.784   3.043 -1.4080 -0.7422 -3.8865
 9873SOL     OW31295   0.503   0.778   7.297  0.2955  0.2360  0.3075
 9873SOL    HW131296   0.453   0.729   7.232  1.7416 -3.2966  1.6884
 9873SOL    HW231297   0.439   0.834   7.340 -1.2543  0.3268 -2.0091
 9874SOL     OW31298   5.008   0.364   5.184  0.2328 -0.0950  0.2995
 9874SOL    HW131299   5.028   0.272   5.171  1.7674  0.3186 -0.4328
 9874SOL    HW231300   4.961   0.389   5.104 -0.5621 -0.3272  0.6837
 9875SOL     OW31301   0.864   8.004   7.244  0.0253  0.2974  0.4131
 9875SOL    HW131302   0.819   8.002   7.328  0.3584 -0.6411  0.5763
 9875SOL    HW231303   0.917   8.083   7.246  0.1682  0.1844  1.1528
 9876SOL     OW31304   1.384   5.029   1.373 -0.2018 -0.3395 -0.0197
 9876SOL    HW131305   1.349   5.044   1.461 -1.2045  0.3235 -0.5195
 9876SOL    HW231306   1.339   5.093   1.318  1.6680  0.4088 -0.7242
 9877SOL     OW31307   2.075   2.937   9.046 -0.0548 -0.0192  0.1754
 9877SOL    HW131308   1.981   2.941   9.065  0.2832  0.1481  1.8748
 9877SOL    HW231309   2.116   2.920   9.130  1.5616  1.4747 -0.2721
 9878SOL     OW31310   3.467   1.145   0.627  0.2481  0.3881 -0.0594
 9878SOL    HW131311   3.525   1.072   0.649  2.2697  2.1002  0.5749
 9878SOL    HW231312   3.438   1.178   0.712 -0.5749  0.3777 -0.3382
 9879SOL     OW31313   1.085   8.313   7.178  0.2835 -0.5378  0.0024
 9879SOL    HW131314   1.050   8.352   7.258  1.1528 -0.3155  0.2870
 9879SOL    HW231315   1.148   8.378   7.145 -1.2154  0.0798 -1.7318
 9880SOL     OW31316   1.715   6.509   1.448 -0.1604  0.0560 -0.1624
 9880SOL    HW131317   1.693   6.433   1.395 -0.0138 -0.1481  0.0745
 9880SOL    HW231318   1.659   6.502   1.525 -1.0585  0.8502 -0.7240
 9881SOL     OW31319   8.043   4.434   8.203  0.3896  0.7592  0.1541
 9881SOL    HW131320   8.006   4.514   8.242 -1.0210  1.0838 -1.7628
 9881SOL    HW231321   7.993   4.363   8.242 -1.0328  1.0808 -1.0535
 9882SOL     OW31322   5.739   8.991   8.898 -0.0795 -0.2188  0.6944
 9882SOL    HW131323   5.821   9.032   8.924 -0.2581  0.4060  0.2739
 9882SOL    HW231324   5.748   8.976   8.804 -0.1178 -0.9058  0.7999
 9883SOL     OW31325   0.409   5.193   1.384  0.2127  0.2667 -0.3174
 9883SOL    HW131326   0.390   5.106   1.418 -0.3277  0.5587  0.1450
 9883SOL    HW231327   0.429   5.179   1.291  0.0902 -0.3414 -0.2548
 9884SOL     OW31328   4.858   3.769   4.611 -0.0249  0.0949  0.3538
 9884SOL    HW131329   4.844   3.683   4.571 -1.3020 -1.3720  3.7743
 9884SOL    HW231330   4.923   3.753   4.679  2.5899  2.6726 -1.4394
 9885SOL     OW31331   7.912   3.671   0.834  0.4775  0.0046 -0.8359
 9885SOL    HW131332   7.833   3.630   0.871 -0.5024 -0.3923 -3.2527
 9885SOL    HW231333   7.928   3.748   0.889  0.1619 -1.5502  1.5022
 9886SOL     OW31334   1.162   8.266   4.981  0.7461 -0.4840 -0.1709
 9886SOL    HW131335   1.093   8.237   4.922 -0.2514  0.9335  0.2468
 9886SOL    HW231336   1.152   8.209   5.058 -1.9150  1.5765  1.1097
 9887SOL     OW31337   8.395   5.769   7.926  0.0902  0.1441 -0.1497
 9887SOL    HW131338   8.425   5.798   8.012 -1.2114 -1.4372  0.8870
 9887SOL    HW231339   8.454   5.698   7.902 -0.4353 -0.3910  0.1222
 9888SOL     OW31340   7.421   0.471   2.200  0.2291 -0.0199  0.0039
 9888SOL    HW131341   7.477   0.541   2.168 -0.1650  0.4074  0.2567
 9888SOL    HW231342   7.465   0.440   2.280  0.0433  0.3985  0.2715
 9889SOL     OW31343   6.344   8.119   5.107 -0.4785  0.2444 -0.2708
 9889SOL    HW131344   6.292   8.161   5.039  1.3366  2.7684 -0.1839
 9889SOL    HW231345   6.420   8.084   5.061  0.9997  2.3872  0.4582
 9890SOL     OW31346   2.141   6.748   5.524  0.0499  0.0207 -0.6101
 9890SOL    HW131347   2.133   6.830   5.573 -0.7520  0.0309 -0.7616
 9890SOL    HW231348   2.168   6.775   5.437  0.7076  0.0566 -0.3999
 9891SOL     OW31349   8.726   0.187   0.532 -0.0728  0.6465 -0.0536
 9891SOL    HW131350   8.636   0.154   0.530 -0.1377  0.7369  1.0756
 9891SOL    HW231351   8.740   0.212   0.623  1.4470 -0.3201 -0.0120
 9892SOL     OW31352   1.066   6.598   4.631 -0.4093  0.0150  0.4935
 9892SOL    HW131353   1.044   6.617   4.540  0.5908  0.3533  0.3223
 9892SOL    HW231354   1.123   6.521   4.626 -0.4539 -0.0397  0.8405
 9893SOL     OW31355   5.680   8.807   0.405 -0.1416  0.1066 -0.2999
 9893SOL    HW131356   5.770   8.827   0.379  0.6448 -2.1303  0.5687
 9893SOL    HW231357   5.689   8.748   0.480 -2.3380 -0.2888 -0.3017
 9894SOL     OW31358   2.968   6.027   2.670  0.0960  0.2361  0.1442
 9894SOL    HW131359   3.045   6.081   2.653  0.6922 -0.0210  1.9359
 9894SOL    HW231360   2.895   6.078   2.635  0.9388  1.0168 -0.5118
 9895SOL     OW31361   9.014   2.155   8.135  0.0414 -0.3794  0.2020
 9895SOL    HW131362   8.999   2.204   8.055  0.1714  0.3014  0.5868
 9895SOL    HW231363   8.960   2.200   8.201 -0.5660 -1.3133  0.3569
 9896SOL     OW31364   6.530   1.618   4.232 -0.4854  0.3270  0.0725
 9896SOL    HW131365   6.501   1.596   4.143  0.8504  1.0111 -0.5493
 9896SOL    HW231366   6.533   1.533   4.277  0.3262 -0.2385 -1.0071
 9897SOL     OW31367   1.717   4.223   5.208 -0.2291 -0.0572 -0.3598
 9897SOL    HW131368   1.734   4.196   5.118 -0.2183  2.7742 -1.2554
 9897SOL    HW231369   1.755   4.153   5.262  0.2048 -1.5312 -2.5236
 9898SOL     OW31370   4.586   0.335   4.290 -0.4213  0.6705 -0.2773
 9898SOL    HW131371   4.669   0.381   4.277  0.5205 -0.7547  0.5414
 9898SOL    HW231372   4.537   0.352   4.210  0.6309  1.5845 -0.7539
 9899SOL     OW31373   8.858   7.750   5.979  0.0174  0.0167  0.0236
 9899SOL    HW131374   8.912   7.825   6.007  1.4669 -0.6389 -0.9793
 9899SOL    HW231375   8.918   7.694   5.930 -1.5239 -0.8717 -0.8750
 9900SOL     OW31376   6.109   4.696   2.238 -0.0773  0.1750  0.4234
 9900SOL    HW131377   6.076   4.782   2.263  3.1531  2.0326 -1.4021
 9900SOL    HW231378   6.157   4.665   2.314 -1.7657 -0.3411  1.3076
 9901SOL     OW31379   9.236   9.148   7.284  0.1420 -0.4056 -0.3597
 9901SOL    HW131380   9.181   9.213   7.241  0.9481 -0.8196 -2.0610
 9901SOL    HW231381   9.181   9.112   7.354 -1.0723  0.5373 -0.8196
 9902SOL     OW31382   1.813   1.139   0.992 -0.2296  0.6472 -0.2945
 9902SOL    HW131383   1.760   1.085   0.934 -1.7667  0.8501  0.8725
 9902SOL    HW231384   1.775   1.227   0.984  0.1734  0.8758  0.2680
 9903SOL     OW31385   2.451   1.645   4.109  0.0934  0.7836 -0.0448
 9903SOL    HW131386   2.418   1.625   4.196 -0.4352 -0.5305 -0.5378
 9903SOL    HW231387   2.394   1.715   4.077  0.0436  0.9961  0.5179
 9904SOL     OW31388   1.685   5.648   1.808  0.2485 -0.0310 -0.2092
 9904SOL    HW131389   1.592   5.653   1.788  0.3148 -0.8778 -0.7757
 9904SOL    HW231390   1.689   5.645   1.904 -0.3751 -1.0792 -0.2075
 9905SOL     OW31391   7.421   8.876   2.240 -0.1534 -0.2000 -0.7197
 9905SOL    HW131392   7.446   8.882   2.333 -0.0632 -1.5302 -0.6519
 9905SOL    HW231393   7.330   8.846   2.242 -0.6523  1.2389 -1.0425
 9906SOL     OW31394   8.334   2.706   7.297 -0.4498 -0.3113 -0.2295
 9906SOL    HW131395   8.323   2.800   7.286  1.1750  0.2134  2.1958
 9906SOL    HW231396   8.412   2.684   7.246 -2.0803 -0.7468 -2.5583
 9907SOL     OW31397   7.158   6.518   5.290 -0.0676  0.2903  0.2547
 9907SOL    HW131398   7.115   6.433   5.305  1.5082 -0.5205  0.2707
 9907SOL    HW231399   7.092   6.582   5.316 -1.7741 -0.8854 -1.0370
 9908SOL     OW31400   6.924   5.212   7.183  0.6303  0.5101 -0.2845
 9908SOL    HW131401   6.931   5.134   7.126 -0.6009  1.4455 -1.7481
 9908SOL    HW231402   6.871   5.273   7.133  0.7893  1.9471  1.2774
 9909SOL     OW31403   4.107   0.693   4.677  0.0704  0.3426 -0.2997
 9909SOL    HW131404   4.088   0.683   4.770  0.3001 -0.0864 -0.2993
 9909SOL    HW231405   4.021   0.705   4.636  0.1565  3.7716  0.3464
 9910SOL     OW31406   3.379   3.188   6.533  0.0085 -0.5015  0.4453
 9910SOL    HW131407   3.394   3.143   6.450  1.7063 -2.6910  1.8785
 9910SOL    HW231408   3.462   3.229   6.554 -0.3806 -0.0391  1.1097
 9911SOL     OW31409   5.976   6.923   1.929  0.0694 -0.0141 -0.3256
 9911SOL    HW131410   6.067   6.952   1.924  0.5214 -1.1957  0.7245
 9911SOL    HW231411   5.924   7.003   1.920  1.2410  0.8715  0.6833
 9912SOL     OW31412   7.939   0.224   3.200  0.0230  0.2442  0.1080
 9912SOL    HW131413   7.942   0.169   3.279 -0.6203  1.0408  0.7035
 9912SOL    HW231414   7.964   0.165   3.129 -2.2587 -1.2621  0.4856
 9913SOL     OW31415   3.287   1.429   4.412  0.0584  0.3535 -0.0879
 9913SOL    HW131416   3.270   1.384   4.330  1.5840  0.0240 -0.2372
 9913SOL    HW231417   3.239   1.511   4.405  0.6770  0.5965 -1.5640
 9914SOL     OW31418   7.354   1.861   3.900 -0.0779  0.1415 -0.0998
 9914SOL    HW131419   7.448   1.844   3.899 -0.5381 -2.6805  0.5052
 9914SOL    HW231420   7.326   1.845   3.810 -0.5689 -2.9042  0.5445
 9915SOL     OW31421   7.420   4.781   4.446  0.3022 -0.6293  0.1193
 9915SOL    HW131422   7.453   4.870   4.437  0.8604 -0.8715 -0.2950
 9915SOL    HW231423   7.350   4.775   4.380  1.6247 -1.1152 -1.2802
 9916SOL     OW31424   1.487   7.557   3.598 -0.0506  0.4709  0.5251
 9916SOL    HW131425   1.508   7.573   3.506  0.3089  1.4968  0.7858
 9916SOL    HW231426   1.395   7.581   3.606 -1.8053 -4.9310 -0.8436
 9917SOL     OW31427   1.539   1.355   2.139 -0.2026  0.3152  0.2571
 9917SOL    HW131428   1.542   1.402   2.056 -2.5318  0.4650  0.2346
 9917SOL    HW231429   1.463   1.298   2.132  0.2872 -0.5778  1.8242
 9918SOL     OW31430   3.151   4.242   7.362 -0.3202  0.3320 -0.1962
 9918SOL    HW131431   3.182   4.326   7.395 -1.5665  0.7958 -0.1755
 9918SOL    HW231432   3.185   4.237   7.272  0.1835  0.6166 -0.0236
 9919SOL     OW31433   5.251   1.083   0.312  0.0330  0.5847 -0.1258
 9919SOL    HW131434   5.297   1.129   0.241  0.3653 -1.6818 -1.4258
 9919SOL    HW231435   5.278   0.992   0.302 -1.7991 -0.1426  1.4625
 9920SOL     OW31436   2.988   0.042   4.836  0.4603 -0.0303  0.9971
 9920SOL    HW131437   2.959   0.116   4.783  0.8551 -0.1409  0.6314
 9920SOL    HW231438   3.077   0.025   4.808  0.5369 -0.3383  1.4221
 9921SOL     OW31439   1.965   0.840   8.996  0.2757 -0.2375 -0.2560
 9921SOL    HW131440   1.950   0.790   8.916  0.9191  0.7605 -1.0090
 9921SOL    HW231441   2.048   0.886   8.980  0.5204 -0.2057  1.0645
 9922SOL     OW31442   8.483   2.713   5.120 -0.6814  0.6577 -0.2371
 9922SOL    HW131443   8.553   2.654   5.149 -0.2581  0.1581 -2.2061
 9922SOL    HW231444   8.513   2.801   5.146  0.9709  0.5116 -1.5411
 9923SOL     OW31445   2.788   4.618   9.271  0.1487 -0.1328  0.3142
 9923SOL    HW131446   2.833   4.634   9.188  0.4024 -0.9895  0.2811
 9923SOL    HW231447   2.702   4.659   9.261  1.2954  2.4957  0.7659
 9924SOL     OW31448   5.311   4.091   5.209  0.0202 -0.0207 -0.0449
 9924SOL    HW131449   5.261   4.010   5.196  0.8362 -0.3141 -1.4934
 9924SOL    HW231450   5.246   4.154   5.242 -1.0773 -0.6803 -0.8901
 9925SOL     OW31451   1.051   2.018   7.779 -0.2321 -0.1521 -0.2932
 9925SOL    HW131452   1.099   1.952   7.729  2.4800  2.0982 -0.7998
 9925SOL    HW231453   1.010   1.970   7.850  2.3625 -2.2775 -0.1707
 9926SOL     OW31454   7.538   6.642   1.805 -0.0105 -0.0052 -0.1430
 9926SOL    HW131455   7.606   6.674   1.864 -0.8881  0.2507  0.7365
 9926SOL    HW231456   7.543   6.700   1.729  0.7528  0.0129 -0.0795
 9927SOL     OW31457   8.152   0.342   9.192  0.1398  0.6306  0.5685
 9927SOL    HW131458   8.193   0.286   9.258 -1.1919  1.4183  2.0724
 9927SOL    HW231459   8.063   0.306   9.182  0.4689  0.2203 -1.1685
 9928SOL     OW31460   0.887   8.543   6.094 -0.2150  0.3718 -0.1098
 9928SOL    HW131461   0.905   8.506   6.180 -2.0324  0.6708  0.4173
 9928SOL    HW231462   0.863   8.468   6.039  2.7814 -0.0820 -0.9198
 9929SOL     OW31463   6.882   7.534   4.939 -0.1058  0.1413 -0.0419
 9929SOL    HW131464   6.887   7.480   5.018  0.9096 -1.0433 -0.8844
 9929SOL    HW231465   6.788   7.547   4.925 -0.3703 -1.3221  0.2598
 9930SOL     OW31466   1.417   6.417   6.452 -0.2707 -0.0345 -0.0157
 9930SOL    HW131467   1.379   6.466   6.379  0.3390 -0.3436 -0.5443
 9930SOL    HW231468   1.393   6.326   6.436  3.2936 -0.7090 -2.0673
 9931SOL     OW31469   4.445   3.781   4.908 -0.1615 -0.4771 -0.3594
 9931SOL    HW131470   4.520   3.823   4.864 -0.5016  0.4032 -0.1184
 9931SOL    HW231471   4.485   3.719   4.969  0.3893  0.3663  0.1485
 9932SOL     OW31472   1.683   0.370   2.274 -0.1011 -0.3501 -0.3261
 9932SOL    HW131473   1.612   0.341   2.331  1.6168 -2.0520  0.9976
 9932SOL    HW231474   1.678   0.466   2.277  0.1363 -0.3950  2.9439
 9933SOL     OW31475   1.268   3.315   8.070 -0.2764 -0.2384 -0.4055
 9933SOL    HW131476   1.294   3.403   8.098 -0.2804  0.3401 -2.1625
 9933SOL    HW231477   1.186   3.298   8.116 -0.7990  1.0905 -0.8298
 9934SOL     OW31478   5.579   7.407   9.049  0.4394  0.3920 -0.5311
 9934SOL    HW131479   5.619   7.466   8.985  0.0767  0.4628 -0.6952
 9934SOL    HW231480   5.541   7.465   9.115  1.5006  0.3074  0.1811
 9935SOL     OW31481   3.041   7.179   4.271 -0.5059 -0.3651  0.0239
 9935SOL    HW131482   3.043   7.234   4.193 -1.0810  0.2703  0.4557
 9935SOL    HW231483   3.117   7.122   4.262  0.0179  0.4139 -0.4867
 9936SOL     OW31484   9.070   3.653   4.526 -0.0916 -0.1748  0.5102
 9936SOL    HW131485   9.047   3.630   4.436  1.8096 -0.1027 -0.0142
 9936SOL    HW231486   9.069   3.570   4.573 -0.1190 -0.3565  0.1930
 9937SOL     OW31487   2.605   1.294   6.498 -0.3024  0.1526 -0.6168
 9937SOL    HW131488   2.624   1.200   6.500  2.0570  0.5991  0.0861
 9937SOL    HW231489   2.676   1.332   6.445 -1.6065  1.4536 -1.4569
 9938SOL     OW31490   2.407   8.101   8.234 -0.1884 -0.2944 -0.1812
 9938SOL    HW131491   2.424   8.165   8.165 -1.0720 -0.4364 -0.5314
 9938SOL    HW231492   2.363   8.028   8.189 -0.4009 -0.5617  0.4610
 9939SOL     OW31493   2.173   8.066   0.784  0.4307  0.4572 -0.2132
 9939SOL    HW131494   2.257   8.052   0.828  0.1313 -1.5658 -0.2483
 9939SOL    HW231495   2.172   8.002   0.713 -0.9502  0.7971 -0.5140
 9940SOL     OW31496   1.571   8.106   0.585  0.2316 -0.3717  0.3118
 9940SOL    HW131497   1.625   8.061   0.521 -0.0096  0.2835 -0.3646
 9940SOL    HW231498   1.513   8.161   0.532 -0.2594 -0.1560  1.0767
 9941SOL     OW31499   1.153   7.441   4.371 -0.3021  0.4211 -0.0195
 9941SOL    HW131500   1.212   7.488   4.430  0.9928 -0.2147 -0.8064
 9941SOL    HW231501   1.119   7.508   4.312 -0.4949  0.8080  0.5237
 9942SOL     OW31502   7.135   5.684   4.874 -0.4381 -0.0456 -0.2598
 9942SOL    HW131503   7.200   5.741   4.834 -0.3858  0.8870  1.1016
 9942SOL    HW231504   7.154   5.597   4.839  0.4600  0.5095 -1.1773
 9943SOL     OW31505   4.752   1.610   8.331  0.3160  0.7599 -0.8159
 9943SOL    HW131506   4.717   1.697   8.350  1.0531  0.8018  0.3677
 9943SOL    HW231507   4.674   1.556   8.315 -0.1494  1.5989 -1.4117
 9944SOL     OW31508   0.253   7.665   2.656 -0.5992  0.3194  0.1773
 9944SOL    HW131509   0.296   7.698   2.735 -0.1386 -0.0544  0.0825
 9944SOL    HW231510   0.169   7.630   2.687  0.2280 -1.2319  0.7484
 9945SOL     OW31511   4.181   8.226   4.092  0.3238  0.2740  0.2297
 9945SOL    HW131512   4.165   8.266   4.007 -1.0779  2.5949  1.5406
 9945SOL    HW231513   4.273   8.244   4.111  1.0296 -1.4650 -1.3751
 9946SOL     OW31514   2.888   0.559   5.716  0.2577 -0.7826  0.8333
 9946SOL    HW131515   2.797   0.530   5.724 -0.5990  1.4725 -0.4030
 9946SOL    HW231516   2.893   0.602   5.631  2.4208 -0.5819  1.0247
 9947SOL     OW31517   4.012   9.069   0.989  0.7590  0.0727 -0.1759
 9947SOL    HW131518   4.056   9.039   0.909 -0.0120 -1.5440 -0.0178
 9947SOL    HW231519   3.921   9.082   0.963  0.2181 -1.7384  0.7219
 9948SOL     OW31520   8.486   3.125   5.659 -0.4140  0.1332 -0.2931
 9948SOL    HW131521   8.445   3.127   5.746 -1.3035  0.8053 -0.7160
 9948SOL    HW231522   8.421   3.081   5.604 -0.1378  0.3162 -0.7617
 9949SOL     OW31523   9.275   1.911   2.663 -0.1894 -0.6936  0.1261
 9949SOL    HW131524   9.209   1.977   2.687  0.0016 -0.7540  0.8270
 9949SOL    HW231525   9.359   1.954   2.680 -0.0066 -0.1911 -1.8702
 9950SOL     OW31526   7.548   0.643   5.025 -0.4933 -0.3498 -0.0036
 9950SOL    HW131527   7.527   0.673   4.937 -1.5600 -1.1657 -0.0407
 9950SOL    HW231528   7.643   0.640   5.028 -0.4532 -0.4312 -1.1638
 9951SOL     OW31529   7.193   1.007   4.144 -0.2293  0.3523  0.6121
 9951SOL    HW131530   7.210   1.099   4.121  0.2719 -0.1734 -1.2034
 9951SOL    HW231531   7.226   0.958   4.069 -2.1691 -1.2122  0.7476
 9952SOL     OW31532   1.551   8.240   3.226  0.0653  0.1647  0.2440
 9952SOL    HW131533   1.634   8.261   3.269  0.2632  0.9506 -0.5048
 9952SOL    HW231534   1.485   8.285   3.278  0.0511 -0.8473  1.1190
 9953SOL     OW31535   4.079   6.915   4.078 -0.4659 -0.1207 -0.4908
 9953SOL    HW131536   4.119   6.966   4.008  2.0832 -0.1321  0.8646
 9953SOL    HW231537   4.102   6.825   4.058  1.5524  0.0075  1.0884
 9954SOL     OW31538   3.478   2.033   1.985  0.6397 -0.1809 -0.5484
 9954SOL    HW131539   3.563   2.026   2.029 -0.1837 -0.9837  0.9730
 9954SOL    HW231540   3.442   2.116   2.016  0.4288 -0.3371 -0.3746
 9955SOL     OW31541   3.396   3.116   3.155 -0.1586  0.0987  0.2049
 9955SOL    HW131542   3.377   3.198   3.109 -0.2371 -0.7743 -1.3393
 9955SOL    HW231543   3.356   3.128   3.242 -0.7387  1.4304 -0.2308
 9956SOL     OW31544   3.216   6.864   2.264 -0.0078 -0.2291 -0.1763
 9956SOL    HW131545   3.121   6.872   2.271  0.0823 -0.1509  1.0770
 9956SOL    HW231546   3.230   6.821   2.180 -1.0924  0.8935 -0.9600
 9957SOL     OW31547   7.543   4.154   4.296 -0.0727  0.2029 -0.0306
 9957SOL    HW131548   7.618   4.200   4.257 -1.0578  1.7132 -0.1774
 9957SOL    HW231549   7.578   4.068   4.319  1.5612  0.6740 -0.6286
 9958SOL     OW31550   3.539   4.048   9.151 -0.4164 -0.8104 -0.3316
 9958SOL    HW131551   3.606   4.008   9.096  0.0007 -1.0306  0.3201
 9958SOL    HW231552   3.463   4.058   9.094  0.7376  1.0718 -1.5991
 9959SOL     OW31553   7.481   8.871   9.233  0.4350 -0.3123  0.1540
 9959SOL    HW131554   7.406   8.930   9.223  0.7372 -0.1331 -1.1655
 9959SOL    HW231555   7.513   8.888   9.322  0.2460  1.2041 -0.0459
 9960SOL     OW31556   4.945   0.636   1.193 -1.0055  0.0092  0.4544
 9960SOL    HW131557   4.984   0.548   1.190  1.1519  0.9668 -3.0691
 9960SOL    HW231558   4.862   0.626   1.146  0.3232  0.2703 -2.0365
 9961SOL     OW31559   5.155   8.123   5.367 -0.0685 -0.4050 -0.4452
 9961SOL    HW131560   5.165   8.211   5.402 -0.1887 -0.6912  0.3218
 9961SOL    HW231561   5.063   8.118   5.340 -1.1923 -1.6029  3.2464
 9962SOL     OW31562   7.856   5.462   3.552 -0.3845 -0.0560  0.0243
 9962SOL    HW131563   7.938   5.420   3.579  0.4793  1.2399 -0.5235
 9962SOL    HW231564   7.877   5.555   3.549 -1.4294  0.1488 -1.6543
 9963SOL     OW31565   7.828   1.554   4.612 -0.2692  0.6828  0.0285
 9963SOL    HW131566   7.824   1.493   4.538  0.2172 -0.9694  1.3251
 9963SOL    HW231567   7.789   1.635   4.579  0.0188  0.0066 -2.0555
 9964SOL     OW31568   7.861   5.781   0.585 -0.1693 -0.0376  0.7939
 9964SOL    HW131569   7.870   5.831   0.666  0.5013 -1.9928  1.9660
 9964SOL    HW231570   7.929   5.713   0.591  0.3935  0.2410 -1.7594
 9965SOL     OW31571   5.882   8.765   8.164 -0.0358  0.0105 -0.0104
 9965SOL    HW131572   5.787   8.770   8.166 -0.0976  0.6705 -2.6043
 9965SOL    HW231573   5.903   8.740   8.074  2.2927  1.7182  0.0121
 9966SOL     OW31574   0.466   8.054   2.697  0.0224  0.1779  0.1304
 9966SOL    HW131575   0.396   8.119   2.689 -0.3669 -0.1718  0.6735
 9966SOL    HW231576   0.475   8.019   2.608 -1.6030 -0.9024  0.3715
 9967SOL     OW31577   2.507   4.758   8.468  0.6108 -0.0111  0.2027
 9967SOL    HW131578   2.559   4.812   8.529  1.6285 -0.1085 -0.5805
 9967SOL    HW231579   2.426   4.809   8.456  1.1458  0.8726  0.2522
 9968SOL     OW31580   0.330   5.662   8.304 -0.4520 -0.2686  0.6579
 9968SOL    HW131581   0.260   5.614   8.258  0.8702 -0.8343 -0.8195
 9968SOL    HW231582   0.358   5.602   8.373  0.4027 -1.2014 -0.4614
 9969SOL     OW31583   7.932   0.319   4.222 -0.1826  0.2080  0.3101
 9969SOL    HW131584   8.022   0.326   4.256  0.2633 -2.2673 -0.2645
 9969SOL    HW231585   7.922   0.396   4.165  1.5952  0.4788  0.3311
 9970SOL     OW31586   0.879   3.847   6.044  0.1090  0.0082 -0.4525
 9970SOL    HW131587   0.786   3.871   6.048  0.6056  1.7405  1.5779
 9970SOL    HW231588   0.889   3.783   6.115 -0.0423 -2.0858 -2.2898
 9971SOL     OW31589   5.648   4.971   6.633  0.1955 -0.0154 -0.8193
 9971SOL    HW131590   5.667   4.945   6.543 -0.7382  0.9258 -1.2994
 9971SOL    HW231591   5.644   5.067   6.630  0.8721  0.0558  0.3659
 9972SOL     OW31592   8.754   5.544   6.870  0.6856 -0.0830  0.2081
 9972SOL    HW131593   8.730   5.590   6.789 -0.6122  0.1080  0.6838
 9972SOL    HW231594   8.750   5.611   6.938  1.6136 -0.2794  0.4702
 9973SOL     OW31595   7.451   0.638   3.647 -0.6390 -0.4091 -0.0019
 9973SOL    HW131596   7.492   0.672   3.567 -1.7954  1.1109  0.0284
 9973SOL    HW231597   7.492   0.689   3.717 -0.6970 -0.7144  0.2532
 9974SOL     OW31598   6.145   0.227   0.267 -0.0373  0.2376  0.4690
 9974SOL    HW131599   6.187   0.141   0.268  1.2050  0.8344  0.8846
 9974SOL    HW231600   6.149   0.255   0.176  0.4449  0.2817  0.5041
 9975SOL     OW31601   7.351   2.691   3.753 -0.2143  0.4640  0.0729
 9975SOL    HW131602   7.284   2.632   3.785  0.3898  0.1261  0.7283
 9975SOL    HW231603   7.314   2.729   3.673 -0.3337 -1.2938 -0.7164
 9976SOL     OW31604   6.416   5.731   2.392  0.1236  0.3418  0.1541
 9976SOL    HW131605   6.393   5.791   2.463 -1.5228 -0.4123  0.2891
 9976SOL    HW231606   6.416   5.785   2.313 -0.6895  0.6587  0.3701
 9977SOL     OW31607   8.417   5.707   1.414  0.5690  0.1264  0.5587
 9977SOL    HW131608   8.442   5.791   1.375  0.1836  0.9955  2.1450
 9977SOL    HW231609   8.496   5.675   1.457  0.7367 -0.3718 -0.1102
 9978SOL     OW31610   1.204   7.968   8.297 -0.1411  0.5381  0.2423
 9978SOL    HW131611   1.278   7.989   8.353  0.6932  0.8640 -0.9515
 9978SOL    HW231612   1.148   7.911   8.350 -0.1485  2.0713  1.9374
 9979SOL     OW31613   1.069   7.851   2.576  0.0692 -0.1305 -0.2047
 9979SOL    HW131614   0.976   7.849   2.601  0.1169 -0.0361 -0.0213
 9979SOL    HW231615   1.070   7.903   2.496 -0.1225 -0.6835 -0.5684
 9980SOL     OW31616   5.466   0.491   4.255  0.0425  0.1440 -0.3462
 9980SOL    HW131617   5.517   0.531   4.326  1.3520 -1.6432 -0.2519
 9980SOL    HW231618   5.526   0.492   4.180  0.9039 -3.5565  0.2211
 9981SOL     OW31619   5.155   0.817   0.004  0.6223 -0.2331  0.7918
 9981SOL    HW131620   5.229   0.794  -0.051  0.6459 -1.8604  1.4766
 9981SOL    HW231621   5.192   0.832   0.091  0.3624  0.6384  0.7621
 9982SOL     OW31622   4.137   3.779   3.697  0.6162  0.3043  0.0832
 9982SOL    HW131623   4.101   3.866   3.711 -1.5487 -0.3890 -0.9308
 9982SOL    HW231624   4.181   3.785   3.612 -0.0511  0.2728 -0.2732
 9983SOL     OW31625   0.363   5.617   7.367 -0.3888 -0.2162 -0.7850
 9983SOL    HW131626   0.374   5.545   7.305  0.6910 -0.4106 -0.3764
 9983SOL    HW231627   0.391   5.695   7.319 -0.2130 -0.2668 -0.7641
 9984SOL     OW31628   1.577   5.775   8.762 -0.1065  0.1307 -0.0582
 9984SOL    HW131629   1.636   5.834   8.809 -0.7902 -0.7707  1.9839
 9984SOL    HW231630   1.512   5.833   8.723  1.0592  0.9755 -0.7977
 9985SOL     OW31631   7.346   3.463   4.098  0.1010  0.4386  0.0272
 9985SOL    HW131632   7.302   3.538   4.137 -0.4487 -0.1217  0.5048
 9985SOL    HW231633   7.277   3.416   4.051 -0.2293 -1.4242  2.2574
 9986SOL     OW31634   0.707   4.549   5.462  0.4724 -0.1839 -0.2551
 9986SOL    HW131635   0.784   4.494   5.446  0.1824 -0.5110 -0.5228
 9986SOL    HW231636   0.729   4.599   5.541  0.5736 -0.9675  0.2113
 9987SOL     OW31637   4.514   1.957   7.375 -0.3091  0.4819 -0.2014
 9987SOL    HW131638   4.424   1.944   7.345  0.1428  0.0077 -1.3539
 9987SOL    HW231639   4.506   2.025   7.443 -1.2254  2.3394 -2.1034
 9988SOL     OW31640   7.777   7.202   0.456  0.0399  0.0553  0.3275
 9988SOL    HW131641   7.869   7.202   0.427  0.8168  3.1334  2.5809
 9988SOL    HW231642   7.732   7.258   0.393  0.4030  1.2784  1.1362
 9989SOL     OW31643   5.923   6.496   9.088 -0.1403  0.1932 -0.0799
 9989SOL    HW131644   5.868   6.471   9.163 -1.8171 -1.7624 -1.8895
 9989SOL    HW231645   5.914   6.591   9.083 -0.9391  0.2307  1.4993
 9990SOL     OW31646   3.621   6.634   4.522  0.7785 -0.0319 -0.3601
 9990SOL    HW131647   3.588   6.623   4.433 -0.1485  1.0361 -0.1628
 9990SOL    HW231648   3.658   6.723   4.523  1.2903 -0.2472  0.1619
 9991SOL     OW31649   4.863   3.818   1.688 -0.3360  0.2267  0.5616
 9991SOL    HW131650   4.920   3.810   1.611  0.4028  0.2689  1.0962
 9991SOL    HW231651   4.888   3.902   1.728 -0.3635 -0.0321  1.1285
 9992SOL     OW31652   6.794   6.609   0.263 -0.0949 -0.1152 -0.2106
 9992SOL    HW131653   6.751   6.691   0.240 -0.1122 -0.0099  0.1932
 9992SOL    HW231654   6.884   6.634   0.284  0.0800 -0.2914 -0.7432
 9993SOL     OW31655   4.034   7.472   4.281 -0.0527 -0.1672 -0.4255
 9993SOL    HW131656   4.081   7.393   4.304 -0.3611 -0.1608  0.2425
 9993SOL    HW231657   3.947   7.461   4.321 -0.8080 -0.4162 -2.0648
 9994SOL     OW31658   0.355   3.483   5.509  0.1543 -0.0396  0.0180
 9994SOL    HW131659   0.413   3.434   5.451  0.8804 -0.2282  0.8902
 9994SOL    HW231660   0.413   3.516   5.579 -0.6092  0.6405  0.3394
 9995SOL     OW31661   5.883   5.584   9.105 -0.2836 -0.8045  0.1638
 9995SOL    HW131662   5.919   5.656   9.157 -1.5660  0.9245 -1.2656
 9995SOL    HW231663   5.931   5.506   9.135  0.1602  0.3886  2.7334
 9996SOL     OW31664   4.263   6.663   6.555  0.2975 -0.1489 -0.1961
 9996SOL    HW131665   4.317   6.657   6.633  0.0458 -2.9071 -0.1878
 9996SOL    HW231666   4.200   6.733   6.574  1.7706  0.8586  1.0736
 9997SOL     OW31667   2.348   2.706   9.062 -0.0348  0.6500  0.1167
 9997SOL    HW131668   2.295   2.756   9.124 -0.4214  0.0133  0.3078
 9997SOL    HW231669   2.375   2.629   9.110  2.3482  1.6830  0.4973
 9998SOL     OW31670   2.966   5.365   4.338  0.0414  0.1561  0.3263
 9998SOL    HW131671   2.983   5.281   4.295 -1.9577  0.6103 -1.4464
 9998SOL    HW231672   2.891   5.401   4.291 -0.9520  1.6232  2.9252
 9999SOL     OW31673   1.090   4.113   3.803 -0.1769  0.1577  0.7467
 9999SOL    HW131674   1.085   4.203   3.836 -0.1669  1.1038 -1.7228
 9999SOL    HW231675   1.043   4.115   3.720 -1.2315 -2.4250  1.2320
10000SOL     OW31676   3.023   3.010   1.833 -0.0674  0.4693 -0.1389
10000SOL    HW131677   2.965   2.942   1.798 -1.5347  1.5756  0.1066
10000SOL    HW231678   2.971   3.053   1.901  1.8932 -0.0518  1.7114
10001SOL     OW31679   3.717   1.825   4.953  0.6693  0.0328  0.0524
10001SOL    HW131680   3.644   1.841   5.012  1.5611  1.7037  0.7440
10001SOL    HW231681   3.718   1.901   4.895  3.4666  1.4027  1.7881
10002SOL     OW31682   2.129   4.844   4.755  0.0711 -0.1616 -0.1357
10002SOL    HW131683   2.120   4.860   4.661 -1.6063  0.8567  0.1716
10002SOL    HW231684   2.142   4.749   4.762  0.7006 -0.1835 -1.4204
10003SOL     OW31685   7.871   6.780   3.135  0.2497 -0.1750 -0.6788
10003SOL    HW131686   7.818   6.754   3.210  1.1229  1.8064  0.6491
10003SOL    HW231687   7.808   6.818   3.074 -0.1036  0.5842  0.1567
10004SOL     OW31688   2.291   3.583   4.886 -0.2755  0.2744  0.2076
10004SOL    HW131689   2.295   3.569   4.980 -2.2582 -0.9973  0.1333
10004SOL    HW231690   2.339   3.508   4.849 -0.4891  0.1533  0.1747
10005SOL     OW31691   1.259   6.408   4.907  0.1250  0.1236 -0.5518
10005SOL    HW131692   1.235   6.327   4.951  0.0018  0.4036 -0.1059
10005SOL    HW231693   1.256   6.386   4.814  2.8175 -1.1706 -0.3813
10006SOL     OW31694   0.464   1.660   2.900  0.5148  0.1883 -0.0475
10006SOL    HW131695   0.519   1.656   2.822  0.4593  1.6606 -0.1922
10006SOL    HW231696   0.437   1.570   2.916  1.3836 -0.2721 -1.1105
10007SOL     OW31697   9.066   8.641   7.634  0.4117  0.3659  0.1121
10007SOL    HW131698   9.126   8.632   7.708  0.9484  0.3614 -0.3132
10007SOL    HW231699   9.066   8.555   7.592 -0.8741  0.0058  0.8344
10008SOL     OW31700   8.898   4.397   0.860 -0.5391 -0.1630  0.8206
10008SOL    HW131701   8.898   4.487   0.827  0.9528 -0.1147  0.9064
10008SOL    HW231702   8.925   4.405   0.951  0.0249 -0.7329  0.7072
10009SOL     OW31703   1.014   7.148   1.926  0.2182 -0.2866 -0.1764
10009SOL    HW131704   1.081   7.087   1.895  0.7050  0.1228  0.0699
10009SOL    HW231705   1.060   7.205   1.988 -0.8731 -1.4737  1.7616
10010SOL     OW31706   2.085   7.331   8.848  0.2854 -0.4621  0.0755
10010SOL    HW131707   2.138   7.341   8.927  0.6318 -0.2882 -0.1783
10010SOL    HW231708   2.039   7.414   8.839  0.3361 -0.4389  0.0315
10011SOL     OW31709   4.741   1.068   7.747 -0.2393 -0.3138 -0.3594
10011SOL    HW131710   4.837   1.064   7.745 -0.2638 -0.8440 -0.6644
10011SOL    HW231711   4.718   1.134   7.683 -0.0641  0.0255 -0.0733
10012SOL     OW31712   1.283   7.897   4.179 -0.2947  0.1857  0.0136
10012SOL    HW131713   1.311   7.967   4.238  0.3165  0.4210 -0.5462
10012SOL    HW231714   1.209   7.934   4.131 -0.5238  0.1411  0.3299
10013SOL     OW31715   8.678   0.022   8.856 -0.3458  0.0266  0.7718
10013SOL    HW131716   8.707   0.111   8.832 -1.5166 -0.3646 -2.3204
10013SOL    HW231717   8.751  -0.013   8.907  1.0035  2.0710  0.3485
10014SOL     OW31718   0.043   8.867   0.374  0.1859 -0.0530  0.2249
10014SOL    HW131719   0.114   8.803   0.374  0.8098  0.5910  2.5497
10014SOL    HW231720  -0.012   8.841   0.449  0.4635  2.1062  1.2153
10015SOL     OW31721   3.327   0.668   5.219  0.5455 -0.0702  0.2329
10015SOL    HW131722   3.337   0.740   5.281  2.6387 -2.0693  2.2939
10015SOL    HW231723   3.412   0.661   5.175  1.1518 -2.7603  1.7547
10016SOL     OW31724   6.054   2.060   4.438  0.3875  0.2673  0.2857
10016SOL    HW131725   6.071   2.114   4.514 -0.2527 -0.4897  0.9786
10016SOL    HW231726   6.069   1.970   4.469  2.1165  0.0653 -1.0165
10017SOL     OW31727   0.192   8.079   2.891 -0.1676  0.3779  0.3938
10017SOL    HW131728   0.120   8.030   2.850 -1.2833  1.7134  0.6814
10017SOL    HW231729   0.219   8.141   2.823  1.9223 -1.2857 -0.3280
10018SOL     OW31730   5.934   7.224   3.960 -0.5120 -0.3935  0.1269
10018SOL    HW131731   5.945   7.316   3.936 -0.4062 -0.3034  0.5117
10018SOL    HW231732   5.892   7.226   4.046 -2.0646 -0.7218 -0.6061
10019SOL     OW31733   7.127   3.135   6.623 -0.1696  0.1233 -0.3484
10019SOL    HW131734   7.149   3.042   6.619 -1.1432 -0.1240 -0.1203
10019SOL    HW231735   7.211   3.180   6.616  0.6497 -0.8314  2.5992
10020SOL     OW31736   8.573   6.641   5.394  0.0734  0.0384  0.2281
10020SOL    HW131737   8.635   6.579   5.356  1.9070  1.6544  0.4459
10020SOL    HW231738   8.541   6.597   5.473  1.6333 -0.5131  0.5883
10021SOL     OW31739   4.732   5.460   8.223 -0.0569 -0.4589 -0.0780
10021SOL    HW131740   4.767   5.384   8.176  2.6887  0.5185  0.2937
10021SOL    HW231741   4.782   5.462   8.305 -1.3722  0.7118  0.7140
10022SOL     OW31742   4.158   8.500   1.044 -0.1673  0.0332  0.6339
10022SOL    HW131743   4.215   8.475   0.971  0.0183  0.0767  0.7614
10022SOL    HW231744   4.130   8.589   1.023 -3.1360 -1.3093 -1.2301
10023SOL     OW31745   6.345   1.991   7.116 -0.6680  0.3745 -0.2573
10023SOL    HW131746   6.412   2.001   7.049  0.8523 -0.2779  1.1372
10023SOL    HW231747   6.298   2.074   7.117  1.1574  1.4100 -0.1545
10024SOL     OW31748   4.378   3.775   0.537 -0.8430  0.2060 -0.2356
10024SOL    HW131749   4.408   3.734   0.618  0.4422 -1.8099 -1.6912
10024SOL    HW231750   4.325   3.849   0.567 -1.7758 -1.4501  2.4764
10025SOL     OW31751   6.176   6.743   2.559 -0.0880 -0.0173  0.6011
10025SOL    HW131752   6.237   6.799   2.607 -0.3272 -0.2163  1.1517
10025SOL    HW231753   6.136   6.801   2.494  0.0158  0.3342  0.8473
10026SOL     OW31754   0.877   9.206   7.672  0.2352  0.4373  0.1627
10026SOL    HW131755   0.887   9.134   7.609 -0.7635 -0.3066  0.8482
10026SOL    HW231756   0.783   9.215   7.683  0.3838  1.3218  0.7036
10027SOL     OW31757   4.048   2.832   4.474  0.1873 -0.3043 -0.4470
10027SOL    HW131758   4.090   2.763   4.524  0.3767  0.0646 -0.0869
10027SOL    HW231759   4.045   2.799   4.385 -0.5812 -1.1690 -0.1052
10028SOL     OW31760   5.718   3.774   9.184 -0.7831  0.4310  0.1928
10028SOL    HW131761   5.747   3.775   9.275 -0.1777  0.2646  0.0054
10028SOL    HW231762   5.761   3.697   9.146  0.2616  1.4213 -0.6456
10029SOL     OW31763   7.174   4.531   5.111 -0.1208 -0.1789 -0.0349
10029SOL    HW131764   7.090   4.486   5.117 -0.0374 -0.1057  1.9036
10029SOL    HW231765   7.215   4.493   5.033 -2.3552  0.5157 -1.6239
10030SOL     OW31766   5.789   7.184   1.409  0.5441  0.2690 -0.6228
10030SOL    HW131767   5.695   7.194   1.393  0.7362  0.8882 -1.4121
10030SOL    HW231768   5.798   7.189   1.504 -0.4489 -1.8850 -0.3886
10031SOL     OW31769   8.941   5.665   9.093  0.6475 -0.0573  0.4689
10031SOL    HW131770   8.932   5.759   9.078 -0.0203 -0.2499 -0.3495
10031SOL    HW231771   8.930   5.625   9.007  1.7071 -0.8400  0.6869
10032SOL     OW31772   7.962   6.761   2.825  0.3805 -0.1941 -0.3543
10032SOL    HW131773   7.959   6.716   2.909 -0.5062  0.2716 -0.1339
10032SOL    HW231774   8.053   6.752   2.796  0.1432 -2.5463 -0.5297
10033SOL     OW31775   4.304   4.279   6.636 -0.0967 -0.2529  0.3153
10033SOL    HW131776   4.363   4.227   6.690 -0.3472  0.2536  1.0861
10033SOL    HW231777   4.338   4.368   6.640 -0.9277  0.0487  0.7909
10034SOL     OW31778   3.163   5.701   5.889 -0.0634  0.4943 -0.0100
10034SOL    HW131779   3.118   5.645   5.826 -2.7082  1.6701  0.7945
10034SOL    HW231780   3.213   5.640   5.944 -0.9246 -0.8568 -0.7035
10035SOL     OW31781   1.881   1.983   5.227 -0.3119 -0.3842  0.6717
10035SOL    HW131782   1.944   1.912   5.221 -1.9847 -1.7705 -1.3492
10035SOL    HW231783   1.879   2.021   5.139 -1.3442  0.4403  1.0402
10036SOL     OW31784   4.170   0.786   7.797 -0.2054 -0.0452 -0.4884
10036SOL    HW131785   4.262   0.761   7.801  0.3300  1.2541 -3.2507
10036SOL    HW231786   4.157   0.845   7.872  1.1035 -0.5168  0.1224
10037SOL     OW31787   4.909   4.605   7.867  0.2387  0.0968  0.1645
10037SOL    HW131788   4.849   4.544   7.824 -0.4837  1.0664 -0.2265
10037SOL    HW231789   4.864   4.629   7.948 -0.1191  1.1696 -0.3414
10038SOL     OW31790   2.203   4.037   4.321 -0.5952 -0.0726  0.4862
10038SOL    HW131791   2.252   4.021   4.401 -0.9357 -1.2539  0.4631
10038SOL    HW231792   2.168   4.126   4.332  1.8740  0.9513  0.3067
10039SOL     OW31793   5.289   1.400   6.503  0.2082 -0.7724  0.3180
10039SOL    HW131794   5.263   1.309   6.514 -1.8120 -0.2729 -0.0368
10039SOL    HW231795   5.331   1.423   6.586 -1.2961 -1.3813  1.2679
10040SOL     OW31796   4.761   2.741   8.649 -0.4914  0.0244 -0.5551
10040SOL    HW131797   4.772   2.664   8.705 -2.8881  0.5917  0.7972
10040SOL    HW231798   4.757   2.815   8.710 -1.2012  0.8718 -1.5957
10041SOL     OW31799   3.966   9.137   2.250 -0.2394  0.0617  0.5076
10041SOL    HW131800   4.037   9.109   2.307  0.3882  0.9850  0.1950
10041SOL    HW231801   4.009   9.156   2.166 -0.7000  1.5101  0.5861
10042SOL     OW31802   2.804   5.463   0.187  0.0994 -0.0196  0.2889
10042SOL    HW131803   2.709   5.463   0.198  0.1157  0.0866  0.4289
10042SOL    HW231804   2.828   5.370   0.186 -0.2719 -0.1094 -2.0540
10043SOL     OW31805   5.071   5.551   0.337 -0.3340 -0.0244  0.4997
10043SOL    HW131806   5.102   5.465   0.307  2.1076  0.8945  0.2541
10043SOL    HW231807   5.004   5.531   0.402  0.3552 -2.1305  0.5983
10044SOL     OW31808   2.726   0.826   6.659 -0.1271  0.6323  0.1789
10044SOL    HW131809   2.703   0.894   6.723 -0.1347 -0.0449  0.9027
10044SOL    HW231810   2.666   0.754   6.678  0.4814  0.0737  0.0117
10045SOL     OW31811   1.570   8.959   8.487  0.1650 -0.1679  0.0842
10045SOL    HW131812   1.524   8.919   8.413  1.0296 -0.3697 -0.3478
10045SOL    HW231813   1.663   8.947   8.467  0.4081  0.0774  1.0396
10046SOL     OW31814   6.149   5.052   2.556 -0.1632  0.5229 -0.0047
10046SOL    HW131815   6.113   5.139   2.536 -2.6248 -0.7103 -1.1287
10046SOL    HW231816   6.230   5.048   2.504  0.1038  2.2103  0.2326
10047SOL     OW31817   5.832   1.407   3.664 -0.1686  0.2398 -0.3270
10047SOL    HW131818   5.798   1.378   3.579 -1.0522  0.8252 -0.1840
10047SOL    HW231819   5.756   1.444   3.709  0.3454  0.1653  0.6239
10048SOL     OW31820   2.683   7.220   2.260  0.0264  0.3538  0.1520
10048SOL    HW131821   2.636   7.297   2.292 -0.8857  0.5534 -1.5759
10048SOL    HW231822   2.763   7.216   2.312 -0.9444  1.2016  1.7473
10049SOL     OW31823   0.760   0.181   6.183 -0.3497 -0.1784  0.6883
10049SOL    HW131824   0.741   0.134   6.264  0.6154 -2.1303 -0.1969
10049SOL    HW231825   0.842   0.144   6.152 -1.2062 -0.1516 -1.6907
10050SOL     OW31826   7.472   2.513   2.595  0.3018  0.2707 -0.2059
10050SOL    HW131827   7.524   2.433   2.603  0.7768  0.5076 -0.8781
10050SOL    HW231828   7.518   2.578   2.649  0.6787  0.4690 -0.7671
10051SOL     OW31829   0.168   5.247   3.293 -0.2834 -0.3359 -0.2077
10051SOL    HW131830   0.176   5.329   3.342 -0.2278  0.4102 -1.4377
10051SOL    HW231831   0.142   5.274   3.205 -0.3739 -1.6507 -0.6000
10052SOL     OW31832   3.178   5.452   3.126  0.0099  0.2200 -0.0690
10052SOL    HW131833   3.083   5.452   3.141  0.1039  0.6679  0.5368
10052SOL    HW231834   3.208   5.369   3.162 -0.0035  0.5552  0.7229
10053SOL     OW31835   2.868   3.598   3.719  0.6771 -0.2852  0.0503
10053SOL    HW131836   2.889   3.660   3.650 -1.0592  0.5570  0.2662
10053SOL    HW231837   2.860   3.651   3.798  1.2299 -1.0611  0.6518
10054SOL     OW31838   9.204   4.898   8.738  0.3640 -0.2395  0.0367
10054SOL    HW131839   9.242   4.981   8.767 -1.4853  0.2106  1.2588
10054SOL    HW231840   9.190   4.848   8.819 -2.8513  0.1586 -0.1950
10055SOL     OW31841   8.067   3.483   8.679  0.0796  0.2576  0.1851
10055SOL    HW131842   8.010   3.559   8.691 -0.4105  0.0243 -0.6416
10055SOL    HW231843   8.012   3.418   8.635  1.6501  0.9107 -2.8765
10056SOL     OW31844   8.247   5.642   7.468 -0.2509 -0.2547 -0.2691
10056SOL    HW131845   8.189   5.615   7.396  0.4274  1.3434 -1.4548
10056SOL    HW231846   8.244   5.569   7.530  0.5953 -2.4966 -2.7749
10057SOL     OW31847   3.139   3.409   8.902 -0.4911  0.5934 -0.0286
10057SOL    HW131848   3.217   3.367   8.938 -0.8725  0.4562  0.6710
10057SOL    HW231849   3.091   3.337   8.861 -1.5565  0.1448  1.9045
10058SOL     OW31850   3.415   5.376   0.328 -0.4480 -0.2124 -0.1016
10058SOL    HW131851   3.480   5.339   0.387 -0.1685 -0.7570 -0.7490
10058SOL    HW231852   3.460   5.449   0.285 -0.1563 -0.7941 -0.7917
10059SOL     OW31853   5.495   2.247   6.176 -0.3873 -0.2107  0.0488
10059SOL    HW131854   5.404   2.271   6.192  0.4045  3.4315 -0.5317
10059SOL    HW231855   5.492   2.190   6.098 -2.0642  0.7816 -0.6275
10060SOL     OW31856   7.772   0.290   1.171  0.0140  0.4942 -0.1185
10060SOL    HW131857   7.741   0.336   1.249  1.3540  0.6977  0.3030
10060SOL    HW231858   7.823   0.217   1.204 -1.6447 -1.0157 -0.7975
10061SOL     OW31859   7.061   1.089   5.485  0.2908  0.0282 -0.0154
10061SOL    HW131860   6.985   1.143   5.508  0.8112  1.2018 -0.9859
10061SOL    HW231861   7.027   0.999   5.484 -1.0487  0.5208 -0.2769
10062SOL     OW31862   5.616   0.963   6.869  0.1339  0.0358  0.2968
10062SOL    HW131863   5.684   0.921   6.816 -0.3989 -0.7182  0.2054
10062SOL    HW231864   5.630   0.929   6.957  0.5713  0.7405  0.5040
10063SOL     OW31865   6.072   3.249   8.540  0.3340  0.2397 -0.1437
10063SOL    HW131866   6.086   3.182   8.474  0.2258 -0.0945  0.1705
10063SOL    HW231867   6.006   3.307   8.502 -0.3772 -0.4495  0.0347
10064SOL     OW31868   3.286   2.894   3.296 -0.3836 -0.0685 -0.3728
10064SOL    HW131869   3.337   2.958   3.246  1.3013 -0.6437  0.5471
10064SOL    HW231870   3.347   2.822   3.312 -1.5757 -0.9065  0.5251
10065SOL     OW31871   3.893   3.447   0.266  0.0768 -0.4951 -0.1996
10065SOL    HW131872   3.814   3.395   0.275 -1.1294  1.0469 -1.6430
10065SOL    HW231873   3.932   3.419   0.183 -0.3554  0.5568 -0.7772
10066SOL     OW31874   5.925   3.567   4.914 -0.2768  0.2842 -0.2494
10066SOL    HW131875   5.957   3.656   4.896 -1.5288  0.3110 -2.6250
10066SOL    HW231876   5.836   3.581   4.947  0.2399 -0.0243  1.3190
10067SOL     OW31877   6.180   8.190   1.181 -0.0285  0.2566 -0.0434
10067SOL    HW131878   6.156   8.259   1.119  0.4732 -0.5103 -1.1188
10067SOL    HW231879   6.271   8.207   1.202  0.5289 -0.8761 -1.4241
10068SOL     OW31880   1.517   6.683   1.061  0.5218  0.4419  0.2458
10068SOL    HW131881   1.456   6.610   1.055  0.2192  0.8459 -2.4508
10068SOL    HW231882   1.595   6.652   1.014  1.0843  1.1554  0.7138
10069SOL     OW31883   5.007   7.367   6.810 -1.2934  0.4796 -0.0747
10069SOL    HW131884   5.075   7.410   6.861 -0.0504 -0.5514 -0.8178
10069SOL    HW231885   4.998   7.281   6.850 -3.1027  1.0714  0.8239
10070SOL     OW31886   1.832   4.080   1.853  0.2946  0.1099  0.4194
10070SOL    HW131887   1.807   4.121   1.936 -1.7138  0.1454 -0.1818
10070SOL    HW231888   1.857   3.990   1.877  2.2931  0.8967  1.3970
10071SOL     OW31889   5.985   6.081   3.960  0.6032 -0.0234  0.8595
10071SOL    HW131890   6.003   6.161   3.910 -0.1433 -0.7463 -0.5896
10071SOL    HW231891   6.035   6.092   4.041 -2.5391  3.7092  2.4814
10072SOL     OW31892   8.497   1.584   0.573  0.2845  0.1207 -0.1164
10072SOL    HW131893   8.422   1.622   0.526 -0.0345  1.8775  1.7281
10072SOL    HW231894   8.572   1.632   0.540  0.3026  0.0008 -0.2499
10073SOL     OW31895   1.607   0.639   4.226  0.0928  0.0735  0.5558
10073SOL    HW131896   1.566   0.553   4.225  1.0889 -0.4193 -2.0019
10073SOL    HW231897   1.697   0.623   4.254  0.4301  0.1844 -0.4314
10074SOL     OW31898   8.072   7.898   5.089  1.0466  0.1479 -0.3141
10074SOL    HW131899   8.149   7.952   5.106 -0.4023  2.0712  0.3113
10074SOL    HW231900   8.001   7.961   5.073 -0.6460 -1.5674  0.2041
10075SOL     OW31901   2.350   0.702   7.967  0.0325  0.1114 -0.3441
10075SOL    HW131902   2.418   0.677   8.030 -0.4271  0.9649  0.4964
10075SOL    HW231903   2.381   0.784   7.929 -0.2862  0.2329 -0.3412
10076SOL     OW31904   0.102   0.660   2.590 -0.3656  0.3449 -0.3027
10076SOL    HW131905   0.076   0.717   2.662 -0.3747 -0.0943  0.0437
10076SOL    HW231906   0.032   0.670   2.525 -0.3932  0.6871 -0.2205
10077SOL     OW31907   4.278   7.848   4.087  0.1039  0.2804 -0.6382
10077SOL    HW131908   4.260   7.824   4.178 -0.5047  0.5673 -0.6803
10077SOL    HW231909   4.253   7.770   4.037  1.3420 -0.2323 -0.4857
10078SOL     OW31910   6.626   3.811   1.310 -0.4847 -0.5870  0.8250
10078SOL    HW131911   6.660   3.727   1.342 -0.3287 -1.0004 -0.3752
10078SOL    HW231912   6.546   3.788   1.264  0.1956 -0.2492 -0.5616
10079SOL     OW31913   8.163   0.774   0.658 -0.2124  0.0660 -0.7859
10079SOL    HW131914   8.091   0.782   0.721  1.2357  0.8753  0.8350
10079SOL    HW231915   8.149   0.689   0.616 -0.8716 -0.8171  1.1281
10080SOL     OW31916   1.670   9.144   2.665 -0.0415  0.7660 -0.3434
10080SOL    HW131917   1.665   9.123   2.572 -2.2744 -0.7525  0.0876
10080SOL    HW231918   1.579   9.160   2.691  0.5173  0.8663  1.6364
10081SOL     OW31919   1.741   0.592   6.247 -0.4288  0.1002  0.1287
10081SOL    HW131920   1.652   0.574   6.279 -0.8122  0.7622 -0.5576
10081SOL    HW231921   1.729   0.614   6.154  0.5731 -0.9103 -0.2574
10082SOL     OW31922   8.191   2.707   3.321  0.3906  0.0280  0.3460
10082SOL    HW131923   8.213   2.679   3.410 -0.1157  1.0838  0.8166
10082SOL    HW231924   8.111   2.661   3.300 -0.6288  1.3469  1.2495
10083SOL     OW31925   3.878   6.275   6.954 -0.1735  0.4091  0.2305
10083SOL    HW131926   3.791   6.236   6.959 -0.7063  1.5939  0.5306
10083SOL    HW231927   3.906   6.283   7.045  0.1387  0.2499  0.1461
10084SOL     OW31928   4.660   7.373   6.649 -0.1463 -0.3052  0.4881
10084SOL    HW131929   4.610   7.321   6.712 -1.4376  0.1202 -0.1787
10084SOL    HW231930   4.600   7.387   6.576  0.5386  1.2179  0.2038
10085SOL     OW31931   7.299   7.896   3.621 -0.1334 -0.1042 -0.2345
10085SOL    HW131932   7.237   7.890   3.548 -0.4349  1.9849 -0.1709
10085SOL    HW231933   7.250   7.940   3.690  0.9064  0.0635  0.4020
10086SOL     OW31934   0.778   3.945   4.361 -0.0972 -0.0828  1.0660
10086SOL    HW131935   0.822   3.956   4.446  1.6630 -1.0235  0.2977
10086SOL    HW231936   0.825   4.005   4.303  2.0038 -3.0224 -0.4007
10087SOL     OW31937   1.078   9.215   5.052  0.2166 -0.2053  0.7399
10087SOL    HW131938   1.030   9.259   5.122  0.3126  0.9197  0.1073
10087SOL    HW231939   1.145   9.163   5.098  0.6811  1.0051  1.4572
10088SOL     OW31940   0.833   0.997   8.719 -0.0143 -0.0026  0.3494
10088SOL    HW131941   0.800   0.923   8.669  0.9838 -0.5312  0.4695
10088SOL    HW231942   0.823   1.072   8.661 -0.9263 -0.2417  0.1882
10089SOL     OW31943   4.317   2.667   6.866  0.1808 -0.3026 -0.2662
10089SOL    HW131944   4.320   2.573   6.850  1.2169  0.0528 -2.3522
10089SOL    HW231945   4.381   2.704   6.805  1.1588  1.6029  1.8073
10090SOL     OW31946   5.672   0.827   1.547 -0.3239 -0.6723  0.0208
10090SOL    HW131947   5.596   0.805   1.493  0.3408 -1.4131 -0.6360
10090SOL    HW231948   5.661   0.777   1.627 -2.0751  1.5612  1.2341
10091SOL     OW31949   0.512   2.077   3.303  0.2654  0.1070  0.5967
10091SOL    HW131950   0.509   2.016   3.377 -1.1397 -0.3085  0.2008
10091SOL    HW231951   0.424   2.074   3.266  1.2114 -0.4149 -1.6790
10092SOL     OW31952   8.546   8.371   4.725 -0.0746 -0.3208  0.1828
10092SOL    HW131953   8.570   8.348   4.635 -3.0258 -1.2963 -0.3957
10092SOL    HW231954   8.581   8.300   4.779  1.0169 -0.1244 -0.2355
10093SOL     OW31955   5.392   1.333   1.897 -0.6803  0.2154  0.0759
10093SOL    HW131956   5.468   1.279   1.873  1.4281  2.0822  2.2362
10093SOL    HW231957   5.320   1.271   1.907  1.2705 -1.9740  0.8298
10094SOL     OW31958   3.130   8.332   5.379  0.6744 -0.0626 -0.1760
10094SOL    HW131959   3.062   8.282   5.423  1.0348 -0.2525  0.1665
10094SOL    HW231960   3.206   8.275   5.379  1.1689  0.5807  0.4665
10095SOL     OW31961   5.662   3.001   0.900 -0.2344 -0.0256 -0.0677
10095SOL    HW131962   5.577   2.962   0.919  0.0006  0.2625  1.6269
10095SOL    HW231963   5.693   3.035   0.984  0.6028  1.7706 -1.0518
10096SOL     OW31964   4.874   0.277   4.656 -0.6134 -0.0490 -0.9029
10096SOL    HW131965   4.868   0.228   4.737  1.1788  0.3745 -0.4816
10096SOL    HW231966   4.798   0.336   4.657 -0.7134 -0.1959  0.3655
10097SOL     OW31967   8.507   2.682   1.619  0.1193 -0.0860 -0.2140
10097SOL    HW131968   8.470   2.674   1.707 -0.4918 -0.2445 -0.4820
10097SOL    HW231969   8.550   2.597   1.603  3.0022  1.0526  1.1676
10098SOL     OW31970   6.635   5.903   3.386  0.0042  0.7104 -0.5819
10098SOL    HW131971   6.644   5.810   3.365 -0.4747  1.3637 -3.8418
10098SOL    HW231972   6.724   5.933   3.404  0.0617 -0.5393  1.3693
10099SOL     OW31973   4.028   3.514   7.006  0.0627  0.2966  0.2605
10099SOL    HW131974   3.942   3.515   7.048 -0.4061  0.7105 -0.6897
10099SOL    HW231975   4.083   3.567   7.063 -0.9801  2.2391 -0.4870
10100SOL     OW31976   2.341   8.741   4.407 -0.5559  0.2769  0.0652
10100SOL    HW131977   2.384   8.798   4.471  1.1148  1.9106 -2.4113
10100SOL    HW231978   2.258   8.783   4.389  0.4463  1.7166 -1.3546
10101SOL     OW31979   3.717   3.939   0.186 -0.1261  0.3255 -0.1254
10101SOL    HW131980   3.757   3.988   0.114  1.1881  0.4609  0.6772
10101SOL    HW231981   3.721   3.848   0.158 -1.3483  0.5381 -1.0360
10102SOL     OW31982   3.732   0.011   8.493 -0.2463  0.1881 -0.1797
10102SOL    HW131983   3.696   0.093   8.459  1.6333  0.7098 -0.9904
10102SOL    HW231984   3.755   0.032   8.584 -1.0893  0.1178  0.0590
10103SOL     OW31985   7.571   5.118   2.438 -0.3459 -0.0135 -0.2550
10103SOL    HW131986   7.489   5.164   2.417 -0.7723  0.0064  1.4200
10103SOL    HW231987   7.606   5.165   2.514  1.4469  0.2373 -1.1965
10104SOL     OW31988   2.894   7.624   8.727  0.3708 -0.8493  0.4535
10104SOL    HW131989   2.809   7.600   8.688 -0.4590  1.1949  0.9733
10104SOL    HW231990   2.948   7.650   8.652  0.0115 -0.5693  0.2915
10105SOL     OW31991   4.871   2.624   8.298  0.0329  0.0790  0.0054
10105SOL    HW131992   4.918   2.626   8.215 -0.7602 -1.2384 -0.4918
10105SOL    HW231993   4.838   2.535   8.305  3.5215 -1.0644  3.6832
10106SOL     OW31994   3.576   5.681   2.769 -0.7801  0.4040  0.2403
10106SOL    HW131995   3.513   5.635   2.715 -0.4216  0.3141 -0.0996
10106SOL    HW231996   3.626   5.612   2.813 -0.9997  0.4759  0.6075
10107SOL     OW31997   1.203   4.620   2.319  0.5310  0.6065  0.4074
10107SOL    HW131998   1.171   4.551   2.261  0.8685 -0.3838  1.3935
10107SOL    HW231999   1.196   4.583   2.406  1.7811  1.4186  0.8593
10108SOL     OW32000   2.648   7.744   0.071 -0.1463 -0.5553  0.1768
10108SOL    HW132001   2.682   7.817   0.019  1.2154  0.3770  2.3270
10108SOL    HW232002   2.715   7.675   0.062 -0.1071 -0.5418  0.3658
10109SOL     OW32003   8.746   6.793   2.102  0.5279  0.2103 -0.2899
10109SOL    HW132004   8.693   6.814   2.026  1.0693 -2.5121 -1.4552
10109SOL    HW232005   8.822   6.851   2.095 -0.6767  1.8280 -0.3463
10110SOL     OW32006   3.491   4.509   7.243 -0.0125 -0.1865  0.0069
10110SOL    HW132007   3.501   4.435   7.184 -0.9991  0.3307 -0.8256
10110SOL    HW232008   3.580   4.528   7.273  0.8239  0.9570 -3.0480
10111SOL     OW32009   6.091   4.986   8.988  0.0660  0.1844 -0.0884
10111SOL    HW132010   6.078   4.926   8.914  0.9483  0.1189 -0.1955
10111SOL    HW232011   6.165   4.949   9.035 -1.0174 -0.2414  1.3187
10112SOL     OW32012   0.864   8.308   2.521 -0.0492 -0.1806  0.1334
10112SOL    HW132013   0.958   8.305   2.507 -0.0936  0.0911 -0.2188
10112SOL    HW232014   0.838   8.396   2.494 -0.3133 -0.0537  0.7859
10113SOL     OW32015   4.030   6.489   1.909 -0.3296 -0.7631 -0.1646
10113SOL    HW132016   4.030   6.549   1.835 -0.1745  1.0517  1.2837
10113SOL    HW232017   4.109   6.436   1.896 -0.8684 -1.1948 -1.8416
10114SOL     OW32018   2.558   0.105   5.411 -0.2389 -0.2459 -0.1927
10114SOL    HW132019   2.511   0.180   5.447  0.8042 -0.5090  1.7866
10114SOL    HW232020   2.489   0.044   5.383 -1.0768  0.9633 -0.8073
10115SOL     OW32021   1.065   4.257   5.644 -0.0420  0.7789  0.3318
10115SOL    HW132022   1.141   4.252   5.587  0.5726  0.5587  1.1682
10115SOL    HW232023   0.992   4.227   5.589  0.5651  0.4321 -0.2926
10116SOL     OW32024   2.905   1.781   4.533  0.6325 -0.2071  0.5975
10116SOL    HW132025   2.825   1.789   4.482  1.5500 -0.7039 -0.9290
10116SOL    HW232026   2.903   1.856   4.593 -0.1518  0.7105 -0.5688
10117SOL     OW32027   0.106   3.724   8.845 -0.0379 -0.5300  0.1982
10117SOL    HW132028   0.076   3.684   8.927 -0.6517  0.5716  0.5252
10117SOL    HW232029   0.117   3.817   8.867 -0.7693 -0.1219 -1.1142
10118SOL     OW32030   6.367   8.411   0.870 -0.1782  0.3921 -0.2447
10118SOL    HW132031   6.397   8.499   0.892 -2.0565  1.4000 -1.6239
10118SOL    HW232032   6.290   8.397   0.926  0.7719 -0.8562  0.8020
10119SOL     OW32033   3.346   7.866   3.242  0.0122  0.2525  0.1344
10119SOL    HW132034   3.300   7.845   3.323  1.1851 -1.4264  0.4091
10119SOL    HW232035   3.319   7.798   3.180 -0.4730  1.2214 -0.7380
10120SOL     OW32036   5.537   6.486   4.911 -0.5133 -0.3297 -0.0662
10120SOL    HW132037   5.625   6.474   4.875 -0.7267  0.3840 -0.8506
10120SOL    HW232038   5.479   6.455   4.842 -0.9130  0.4826 -0.1011
10121SOL     OW32039   0.038   2.167   0.755  0.4185  0.1407  0.1351
10121SOL    HW132040   0.118   2.216   0.736  1.0032 -0.3007  1.4166
10121SOL    HW232041   0.069   2.084   0.792 -0.6025 -0.6231 -0.6865
10122SOL     OW32042   1.949   1.718   7.481 -0.0817  0.1140 -0.3987
10122SOL    HW132043   1.978   1.703   7.391 -1.3426 -0.4258 -0.7243
10122SOL    HW232044   2.023   1.762   7.523  1.0333 -0.8614 -1.3156
10123SOL     OW32045   7.491   8.965   5.528 -0.4467 -0.2021  0.1799
10123SOL    HW132046   7.564   8.983   5.468 -0.6133  0.0736  0.0579
10123SOL    HW232047   7.521   8.891   5.580 -0.4253 -0.6539 -0.4599
10124SOL     OW32048   6.900   3.776   5.490 -0.1546 -0.0890 -0.0539
10124SOL    HW132049   6.839   3.731   5.548 -1.2349  2.1992  0.6649
10124SOL    HW232050   6.845   3.812   5.420  0.5792  0.6956 -0.2369
10125SOL     OW32051   5.242   7.922   6.067  0.3639  0.2987 -0.4086
10125SOL    HW132052   5.253   7.893   5.976  2.8383 -2.1506  0.6127
10125SOL    HW232053   5.147   7.924   6.080 -0.0646  1.2477 -3.1942
10126SOL     OW32054   3.389   8.276   5.665  0.2981  0.0406  0.4593
10126SOL    HW132055   3.366   8.262   5.573  1.2595 -3.6433  0.7155
10126SOL    HW232056   3.455   8.346   5.662 -2.4746  2.6853 -1.2443
10127SOL     OW32057   3.845   5.838   6.091  0.1068 -0.2306 -0.4053
10127SOL    HW132058   3.871   5.930   6.083 -0.9209  0.1641  0.6356
10127SOL    HW232059   3.834   5.808   6.001  1.5144  0.3550 -0.7851
10128SOL     OW32060   5.298   2.099   5.292 -0.0619 -0.7200 -0.3214
10128SOL    HW132061   5.203   2.109   5.289 -0.0430 -0.7191 -0.8740
10128SOL    HW232062   5.332   2.182   5.259  0.1290 -0.8959 -0.5677
10129SOL     OW32063   9.156   7.299   0.701 -0.6808  0.0808  0.0422
10129SOL    HW132064   9.129   7.335   0.616 -0.9176  0.5050  0.2956
10129SOL    HW232065   9.190   7.212   0.680  1.4344  1.0785 -0.8088
10130SOL     OW32066   1.089   8.315   4.632  0.2431 -0.3162 -0.1727
10130SOL    HW132067   1.166   8.265   4.657  0.5860  0.8722  1.2263
10130SOL    HW232068   1.021   8.289   4.694 -0.3061 -0.8575 -0.9812
10131SOL     OW32069   2.994   9.279   1.085 -0.0324  0.2777 -0.4356
10131SOL    HW132070   3.010   9.187   1.107  0.3422  0.4812  0.1504
10131SOL    HW232071   3.063   9.302   1.023  0.3836  0.4097  0.0783
10132SOL     OW32072   2.452   2.704   5.279 -0.1977 -0.2921 -0.0546
10132SOL    HW132073   2.375   2.652   5.257 -1.5620  1.6602  0.0242
10132SOL    HW232074   2.438   2.731   5.370  1.4909 -1.4520  0.5957
10133SOL     OW32075   1.913   4.717   1.545  0.2554 -0.4767  0.0479
10133SOL    HW132076   1.963   4.636   1.552  0.0311 -0.5111  1.3726
10133SOL    HW232077   1.979   4.786   1.549  0.3063 -0.5541  0.6103
10134SOL     OW32078   9.280   6.698   0.681  0.2733  0.0454 -0.0635
10134SOL    HW132079   9.240   6.632   0.737  0.1784 -0.2576 -0.4875
10134SOL    HW232080   9.366   6.661   0.658 -0.5251 -0.7815 -1.8187
10135SOL     OW32081   3.007   5.229   4.884 -0.1530  0.7316 -0.2094
10135SOL    HW132082   2.955   5.150   4.868  0.0205 -0.0683  2.9240
10135SOL    HW232083   2.954   5.300   4.846 -1.0412 -0.6783 -1.6782
10136SOL     OW32084   4.965   3.653   8.929 -0.1759 -0.9637 -0.1149
10136SOL    HW132085   4.909   3.651   8.851 -1.0272  2.0544  0.3632
10136SOL    HW232086   5.045   3.697   8.900  0.1414 -1.2497  0.3233
10137SOL     OW32087   2.047   3.979   2.275 -0.1246 -0.6541 -0.3148
10137SOL    HW132088   2.103   4.001   2.349  0.1288  0.1701 -0.7386
10137SOL    HW232089   2.064   4.049   2.211 -1.7870 -0.2781 -0.3672
10138SOL     OW32090   1.996   1.896   6.910  0.4338  0.1707 -0.5933
10138SOL    HW132091   2.044   1.849   6.978  2.5741 -0.0323 -2.1969
10138SOL    HW232092   1.944   1.828   6.866 -0.3340  0.1696  0.2998
10139SOL     OW32093   3.608   2.346   3.893  0.1016  0.0371  0.4120
10139SOL    HW132094   3.697   2.326   3.924 -0.5515 -1.0216  1.6685
10139SOL    HW232095   3.591   2.434   3.924  0.2241 -0.2565  1.3303
10140SOL     OW32096   7.072   4.537   6.986 -0.0089  0.2513 -0.4572
10140SOL    HW132097   7.144   4.532   7.049  0.7885  1.2498 -1.2739
10140SOL    HW232098   7.067   4.449   6.948 -0.7034 -0.4473  1.2079
10141SOL     OW32099   5.423   5.036   2.950 -0.1439  0.0503  0.0501
10141SOL    HW132100   5.490   5.041   3.018  1.1510 -1.4110 -1.0789
10141SOL    HW232101   5.363   4.968   2.981 -0.7736  0.9033  0.7462
10142SOL     OW32102   9.047   1.907   7.606 -0.3280  0.3141  0.6461
10142SOL    HW132103   9.000   1.955   7.674  0.2797  1.1615  0.4761
10142SOL    HW232104   9.137   1.940   7.610 -0.8313  2.2521 -2.2396
10143SOL     OW32105   4.700   4.192   0.491 -0.0049  0.2916  0.2886
10143SOL    HW132106   4.741   4.136   0.424 -0.2529  0.0563  0.3336
10143SOL    HW232107   4.718   4.148   0.574  1.2696  1.1655  0.4888
10144SOL     OW32108   4.824   7.679   2.374  0.3328 -0.0078  0.4089
10144SOL    HW132109   4.884   7.733   2.426 -1.1214  1.7663  0.2888
10144SOL    HW232110   4.824   7.721   2.287 -0.2223 -0.6583  0.0964
10145SOL     OW32111   6.612   7.085   1.340  0.1358 -0.6300  0.1335
10145SOL    HW132112   6.620   7.180   1.353  1.1218 -0.9057  1.7227
10145SOL    HW232113   6.645   7.070   1.251 -0.2153  0.5479 -0.2006
10146SOL     OW32114   6.885   2.662   8.332  0.4403 -0.4271 -0.5083
10146SOL    HW132115   6.910   2.754   8.324  0.7784 -0.6022 -1.5607
10146SOL    HW232116   6.814   2.662   8.397  0.9535  0.4745  0.0605
10147SOL     OW32117   8.568   7.306   5.396 -0.3240  0.1802  0.0720
10147SOL    HW132118   8.566   7.299   5.301  0.4258 -0.3527  0.0900
10147SOL    HW232119   8.656   7.337   5.416 -0.4541  0.2172  0.5976
10148SOL     OW32120   5.442   2.105   2.908 -0.2341 -0.7731 -0.4682
10148SOL    HW132121   5.513   2.127   2.848 -0.3991  0.2063 -0.3223
10148SOL    HW232122   5.411   2.190   2.940 -0.3348 -1.2732  0.7894
10149SOL     OW32123   6.862   3.760   3.205 -0.1070 -0.0635  0.8848
10149SOL    HW132124   6.904   3.788   3.287 -1.4489  1.5514  1.0560
10149SOL    HW232125   6.855   3.841   3.153 -0.0527 -0.9123 -0.4674
10150SOL     OW32126   1.773   2.328   0.027  0.3057  0.0300  0.8243
10150SOL    HW132127   1.783   2.257  -0.036  1.8276  1.6145 -0.7771
10150SOL    HW232128   1.690   2.369   0.003 -0.0287 -0.5331  1.0302
10151SOL     OW32129   0.827   6.478   5.885  0.1053  0.3679  0.5399
10151SOL    HW132130   0.833   6.494   5.791 -2.2529 -1.9117 -0.0725
10151SOL    HW232131   0.747   6.523   5.912  0.2532  0.2007  1.2764
10152SOL     OW32132   3.431   7.097   6.760 -0.3884 -0.3420 -0.0935
10152SOL    HW132133   3.388   7.012   6.764  0.4556 -0.7604  0.1809
10152SOL    HW232134   3.457   7.107   6.669  0.8139 -1.0356  0.1633
10153SOL     OW32135   3.294   8.714   1.388  0.4589  0.3519 -0.5763
10153SOL    HW132136   3.334   8.653   1.450  2.9529  1.4796 -0.9715
10153SOL    HW232137   3.201   8.712   1.408  0.8941 -1.2592  1.4520
10154SOL     OW32138   3.779   4.815   5.179  0.5078 -0.3346 -0.1056
10154SOL    HW132139   3.708   4.866   5.217  1.1841  0.2341  0.4117
10154SOL    HW232140   3.857   4.841   5.228  1.2253 -0.3201 -1.2262
10155SOL     OW32141   5.530   9.282   8.070 -0.0215  0.2198 -0.2026
10155SOL    HW132142   5.511   9.375   8.081  1.4252  0.2826  2.1796
10155SOL    HW232143   5.503   9.242   8.153 -1.5219 -1.6624 -1.5408
10156SOL     OW32144   7.004   9.239   2.438 -0.1795 -0.9849 -0.0447
10156SOL    HW132145   7.065   9.176   2.399  0.0923 -2.3413  2.4089
10156SOL    HW232146   7.058   9.290   2.498 -0.4821  1.3815 -1.7420
10157SOL     OW32147   3.025   8.292   3.548  0.0737 -0.1644  0.4766
10157SOL    HW132148   2.949   8.328   3.503  2.0035  1.0701 -1.8874
10157SOL    HW232149   3.062   8.365   3.598  1.9999  0.3264 -1.5900
10158SOL     OW32150   6.580   6.594   5.666  0.6105 -0.2188 -0.8163
10158SOL    HW132151   6.510   6.606   5.730 -1.0157 -0.4365 -2.5267
10158SOL    HW232152   6.655   6.641   5.703 -0.9734  1.6206  0.1343
10159SOL     OW32153   3.478   6.141   2.611 -0.5602 -0.6555  0.7356
10159SOL    HW132154   3.417   6.104   2.676 -0.0507  0.1184  1.6783
10159SOL    HW232155   3.498   6.228   2.646 -0.2238 -0.2577 -0.4423
10160SOL     OW32156   8.822   3.540   1.883  0.2982 -0.3586  0.2142
10160SOL    HW132157   8.870   3.493   1.952  0.0564  0.2672  0.8123
10160SOL    HW232158   8.733   3.505   1.889 -0.2266  1.1531  1.5831
10161SOL     OW32159   7.049   0.176   7.139 -0.2437  0.3257 -0.1031
10161SOL    HW132160   7.101   0.126   7.202 -0.0664 -0.4912 -0.8840
10161SOL    HW232161   7.113   0.218   7.082 -0.4022 -0.8008 -1.1584
10162SOL     OW32162   0.823   0.530   2.436  0.4692 -0.0300  0.1294
10162SOL    HW132163   0.900   0.526   2.492  0.1051  1.5112  0.7774
10162SOL    HW232164   0.831   0.454   2.379  2.4003  0.0219  0.2781
10163SOL     OW32165   1.365   8.789   0.223  0.2174 -0.2363 -0.4077
10163SOL    HW132166   1.345   8.699   0.250 -0.5236  0.1815  0.4650
10163SOL    HW232167   1.284   8.837   0.239  0.5950  0.5807 -0.9276
10164SOL     OW32168   2.596   6.970   7.642 -0.6902 -0.5860  0.4786
10164SOL    HW132169   2.669   6.921   7.605 -1.5274 -0.6391 -1.1319
10164SOL    HW232170   2.634   7.053   7.670 -0.0005 -0.6463 -0.2823
10165SOL     OW32171   4.986   0.881   1.305  0.3254 -0.7946 -0.1987
10165SOL    HW132172   4.966   0.941   1.234  1.6838 -0.3463 -0.2335
10165SOL    HW232173   4.992   0.795   1.264 -1.4060 -0.9211 -0.1883
10166SOL     OW32174   7.433   5.509   0.407  0.0987  0.2717 -0.2219
10166SOL    HW132175   7.495   5.512   0.480  1.9574  0.3652 -1.7540
10166SOL    HW232176   7.388   5.593   0.409 -0.3443  0.0203  1.1899
10167SOL     OW32177   2.349   0.402   3.052  0.6524  0.4933 -0.0618
10167SOL    HW132178   2.349   0.311   3.024 -0.2009  0.6105 -0.4705
10167SOL    HW232179   2.257   0.421   3.072  0.9962  0.9159  1.1650
10168SOL     OW32180   5.038   8.518   5.159  0.2147 -0.0790 -0.3829
10168SOL    HW132181   5.093   8.481   5.228  0.1188 -1.0011 -0.7818
10168SOL    HW232182   4.950   8.486   5.179 -0.3677  2.1227  0.7632
10169SOL     OW32183   8.393   6.501   6.003  0.8412  0.1866 -0.7440
10169SOL    HW132184   8.304   6.535   6.005 -0.2037 -2.3907 -1.2346
10169SOL    HW232185   8.449   6.578   5.994 -1.4238  1.7020 -2.1798
10170SOL     OW32186   8.083   7.530   5.952 -0.0527 -0.0482  0.7472
10170SOL    HW132187   8.147   7.544   6.022 -1.2591  1.2444  1.6220
10170SOL    HW232188   8.091   7.608   5.897 -0.0191 -0.4577  0.1742
10171SOL     OW32189   2.982   9.224   2.893 -0.6711  0.1519  0.0726
10171SOL    HW132190   2.909   9.203   2.835 -0.6668 -0.7911  0.3887
10171SOL    HW232191   3.048   9.263   2.836 -0.5770 -0.9782 -0.6159
10172SOL     OW32192   7.007   6.410   4.116 -0.4874  0.4092 -0.7020
10172SOL    HW132193   7.079   6.467   4.144 -0.5620  0.0012  0.3068
10172SOL    HW232194   6.929   6.466   4.122 -0.3551  0.6515 -1.1708
10173SOL     OW32195   0.754   2.703   4.140  0.2279 -0.0039 -0.2355
10173SOL    HW132196   0.752   2.608   4.130 -1.1567  0.1376 -1.4070
10173SOL    HW232197   0.841   2.721   4.175  1.1316 -1.5701 -1.5814
10174SOL     OW32198   3.608   5.089   2.849  0.0794 -0.0429  0.1821
10174SOL    HW132199   3.630   5.014   2.904  1.3218 -0.0714 -0.3446
10174SOL    HW232200   3.534   5.131   2.895 -0.5253 -1.4746  0.5600
10175SOL     OW32201   2.814   7.387   6.906 -0.0565 -0.0422 -0.3136
10175SOL    HW132202   2.876   7.459   6.920 -0.1099 -0.0181 -0.2001
10175SOL    HW232203   2.733   7.430   6.879  0.3500 -0.1510 -1.7107
10176SOL     OW32204   7.414   2.393   0.522  0.0721 -0.1623  0.2327
10176SOL    HW132205   7.357   2.390   0.599 -1.4120  1.0707 -0.7905
10176SOL    HW232206   7.367   2.345   0.454  0.6639  0.0809 -0.3605
10177SOL     OW32207   6.728   5.678   1.623 -0.4402  0.0398 -0.2908
10177SOL    HW132208   6.780   5.758   1.612 -1.7031  0.9266  0.0324
10177SOL    HW232209   6.663   5.682   1.552  0.0256 -1.1427 -0.7955
10178SOL     OW32210   0.800   1.068   6.068 -0.2995  0.5135 -0.1549
10178SOL    HW132211   0.885   1.041   6.102 -0.4064  0.6981  0.2618
10178SOL    HW232212   0.736   1.031   6.129 -0.4497  1.6460  0.4033
10179SOL     OW32213   1.688   0.499   1.171 -0.0742 -0.0997  0.0422
10179SOL    HW132214   1.739   0.419   1.176 -0.8358 -0.4661  2.0638
10179SOL    HW232215   1.683   0.531   1.261 -1.5101  1.1265 -0.4504
10180SOL     OW32216   2.094   2.122   4.223  0.3851 -0.1635  0.2893
10180SOL    HW132217   2.080   2.032   4.192  1.0347 -0.7487  1.6599
10180SOL    HW232218   2.099   2.174   4.143 -1.2639 -1.1607 -0.4786
10181SOL     OW32219   4.056   3.165   8.102 -0.1791  0.4845 -0.5012
10181SOL    HW132220   4.038   3.183   8.010  1.7683  1.0098 -0.7901
10181SOL    HW232221   4.063   3.251   8.143 -0.7847  0.2556  0.0970
10182SOL     OW32222   3.890   0.713   8.337 -0.0860 -0.3849  0.0081
10182SOL    HW132223   3.838   0.789   8.362 -1.1884 -0.9593 -0.4827
10182SOL    HW232224   3.981   0.740   8.350 -0.5266  0.4612  1.3781
10183SOL     OW32225   1.358   8.919   2.569  0.0108  0.1057  0.4321
10183SOL    HW132226   1.355   8.965   2.485  2.5213  3.9509  2.2705
10183SOL    HW232227   1.438   8.866   2.565 -0.5188 -0.6549 -0.0542
10184SOL     OW32228   8.618   6.851   5.993 -0.0412  0.0519  0.4168
10184SOL    HW132229   8.699   6.889   6.028 -1.0495  0.7911  2.0075
10184SOL    HW232230   8.572   6.819   6.071 -0.2478 -2.4627 -0.6662
10185SOL     OW32231   7.933   2.161   5.996 -0.2908  0.2632  0.5830
10185SOL    HW132232   7.918   2.084   6.051 -0.8917 -0.7950 -1.0480
10185SOL    HW232233   7.976   2.224   6.055 -0.7752 -0.9007  2.2168
10186SOL     OW32234   5.844   6.871   0.042  0.5505 -0.1454  0.1093
10186SOL    HW132235   5.893   6.946   0.008 -0.9225  1.3516  1.2159
10186SOL    HW232236   5.795   6.906   0.117  0.4381 -2.3935  1.1143
10187SOL     OW32237   5.839   0.030   1.090 -0.1101  0.4117  0.2572
10187SOL    HW132238   5.852  -0.030   1.017 -0.3307  1.0177 -0.2812
10187SOL    HW232239   5.791   0.104   1.053 -0.3877  0.6406  1.0513
10188SOL     OW32240   4.687   5.881   3.756  0.4235  0.3718 -0.4637
10188SOL    HW132241   4.653   5.825   3.687  1.0776  0.8780 -1.1970
10188SOL    HW232242   4.609   5.913   3.802  0.0426 -1.1843  0.0106
10189SOL     OW32243   7.710   8.298   0.826 -0.2460 -0.4240  0.7029
10189SOL    HW132244   7.756   8.215   0.824 -1.3001 -1.0225  0.8556
10189SOL    HW232245   7.688   8.315   0.734 -0.1648 -0.3851  0.6902
10190SOL     OW32246   6.424   3.928   2.832 -0.1453  0.2000  0.0127
10190SOL    HW132247   6.422   3.970   2.746  1.5591 -0.0748 -0.1872
10190SOL    HW232248   6.427   4.001   2.894  2.5650  0.4219 -0.3266
10191SOL     OW32249   1.419   0.153   4.528  0.2620  0.0216 -0.2244
10191SOL    HW132250   1.379   0.166   4.442  0.5309  0.6171 -0.2605
10191SOL    HW232251   1.349   0.171   4.591  0.2388  0.1980 -0.3027
10192SOL     OW32252   3.882   6.211   2.588 -0.2210  0.1092 -0.0690
10192SOL    HW132253   3.875   6.280   2.521 -0.9631  0.6300  0.5358
10192SOL    HW232254   3.820   6.144   2.560 -0.4283  0.2624  0.0268
10193SOL     OW32255   7.150   9.227   1.574 -0.0753 -0.5145  0.6391
10193SOL    HW132256   7.115   9.238   1.485 -0.6830 -0.5848  0.8688
10193SOL    HW232257   7.085   9.270   1.630  0.8391  0.4815  0.9561
10194SOL     OW32258   7.762   2.195   1.183  0.0806 -0.2442 -0.5325
10194SOL    HW132259   7.713   2.122   1.145 -0.0260  0.3049 -1.4591
10194SOL    HW232260   7.843   2.199   1.133 -0.5719  1.2296 -1.5210
10195SOL     OW32261   6.384   3.877   8.212 -0.2968  0.5221 -0.1301
10195SOL    HW132262   6.379   3.833   8.128  2.6374 -0.4694  0.1814
10195SOL    HW232263   6.376   3.970   8.190  0.2489  0.2633 -1.4823
10196SOL     OW32264   0.844   7.935   3.177  0.3953  0.2989 -0.7153
10196SOL    HW132265   0.927   7.888   3.191 -0.2161 -0.4857  0.3594
10196SOL    HW232266   0.836   7.941   3.082  1.2023 -0.4875 -0.8451
10197SOL     OW32267   0.633   3.457   6.122  0.9726  0.1965  0.1345
10197SOL    HW132268   0.584   3.504   6.188 -1.2186 -1.4782 -0.2227
10197SOL    HW232269   0.628   3.512   6.044  0.0758  0.2794  0.2468
10198SOL     OW32270   1.014   2.314   0.532  0.3495  0.3454 -0.0744
10198SOL    HW132271   0.923   2.287   0.537  0.1964  0.7719 -0.4605
10198SOL    HW232272   1.057   2.246   0.481  0.2853  0.0515  0.2636
10199SOL     OW32273   7.333   4.442   7.099  0.6578 -0.2388  0.6005
10199SOL    HW132274   7.420   4.482   7.093  1.5621 -2.3270 -0.3359
10199SOL    HW232275   7.290   4.492   7.168  2.4298  1.1340  0.7642
10200SOL     OW32276   5.474   2.423   4.398 -0.4410  0.3238  0.0428
10200SOL    HW132277   5.557   2.451   4.438 -0.8283  1.9927 -0.2809
10200SOL    HW232278   5.484   2.443   4.305 -1.4022  1.0458  0.0826
10201SOL     OW32279   5.271   3.724   6.873  0.3360 -0.0280 -0.2604
10201SOL    HW132280   5.357   3.758   6.851  1.2900 -1.4835  1.1272
10201SOL    HW232281   5.263   3.643   6.822 -0.1183  0.0006 -0.2371
10202SOL     OW32282   2.860   3.907   7.852  0.1896 -0.0050 -0.2440
10202SOL    HW132283   2.775   3.926   7.891  0.7931 -0.5468  1.3913
10202SOL    HW232284   2.899   3.992   7.835  0.5129  0.2675  1.7228
10203SOL     OW32285   3.337   7.109   2.434 -0.8755 -0.1388 -0.5015
10203SOL    HW132286   3.323   7.033   2.491 -1.9141 -0.2863 -0.9525
10203SOL    HW232287   3.369   7.071   2.351 -0.0812  0.0228 -0.2761
10204SOL     OW32288   0.696   6.378   0.223 -0.1498 -0.0116  0.0125
10204SOL    HW132289   0.620   6.321   0.225 -0.0268 -0.2289 -1.0712
10204SOL    HW232290   0.771   6.318   0.225 -0.0186  0.1215 -0.9059
10205SOL     OW32291   7.804   9.278   5.562  0.1317 -0.4328 -0.2256
10205SOL    HW132292   7.720   9.311   5.597  0.4500 -0.1472  0.2884
10205SOL    HW232293   7.842   9.230   5.636  0.7172 -0.0031 -0.2480
10206SOL     OW32294   6.787   4.853   6.949  0.0762  0.0281 -0.7375
10206SOL    HW132295   6.809   4.810   6.866 -1.1170  0.0523 -1.0710
10206SOL    HW232296   6.692   4.855   6.951  0.1026  2.0420 -0.4094
10207SOL     OW32297   2.104   5.917   0.834  0.5370  0.0600 -0.1804
10207SOL    HW132298   2.162   5.963   0.774  0.7654 -0.1407 -0.1140
10207SOL    HW232299   2.113   5.963   0.917 -2.2103  2.3759 -1.0673
10208SOL     OW32300   8.508   1.658   4.946 -0.1671  0.4620  0.0288
10208SOL    HW132301   8.596   1.619   4.943 -1.4197 -2.4947  0.3757
10208SOL    HW232302   8.461   1.618   4.873 -1.3519  1.7464  0.0700
10209SOL     OW32303   6.551   3.189   3.026 -0.3300 -0.3381 -0.0173
10209SOL    HW132304   6.524   3.262   3.082  0.1685 -1.0834  1.2188
10209SOL    HW232305   6.608   3.229   2.961 -0.3779  0.4373  0.4068
10210SOL     OW32306   2.350   8.576   8.915 -0.0291 -0.4185  0.2682
10210SOL    HW132307   2.426   8.571   8.857 -0.0992 -1.5183  0.2653
10210SOL    HW232308   2.346   8.668   8.941  0.9539 -0.2370 -0.1942
10211SOL     OW32309   4.927   2.817   4.578  0.0659  0.1295 -0.0801
10211SOL    HW132310   4.877   2.840   4.500 -0.6285 -0.0421  0.3069
10211SOL    HW232311   4.978   2.740   4.552 -2.4578 -1.8191  0.5054
10212SOL     OW32312   1.880   7.099   7.525 -0.0944 -0.0727 -0.6436
10212SOL    HW132313   1.811   7.161   7.500 -0.5548 -0.0874  0.5755
10212SOL    HW232314   1.934   7.147   7.587 -0.6546 -0.9879  0.5791
10213SOL     OW32315   5.795   7.999   1.357  0.5522 -0.5856 -0.4876
10213SOL    HW132316   5.832   8.036   1.438 -0.2291 -0.7131 -0.0636
10213SOL    HW232317   5.846   8.038   1.287 -0.7059  1.8668 -0.0876
10214SOL     OW32318   0.731   7.790   2.872  0.0311 -0.9875 -0.0995
10214SOL    HW132319   0.741   7.750   2.958  2.1417 -2.7985 -1.1480
10214SOL    HW232320   0.813   7.838   2.858 -1.1800  1.1242 -0.2134
10215SOL     OW32321   9.264   7.655   0.552 -0.4959  0.4852 -0.5861
10215SOL    HW132322   9.274   7.603   0.472 -0.0183 -2.4474  1.3064
10215SOL    HW232323   9.176   7.693   0.545 -0.7830 -0.4011 -2.0927
10216SOL     OW32324   4.344   5.231   3.678  0.1128  0.3081  0.9136
10216SOL    HW132325   4.431   5.242   3.639 -0.3899  0.2148 -0.2593
10216SOL    HW232326   4.357   5.165   3.747  1.1202  0.8693  1.2742
10217SOL     OW32327   6.610   7.165   2.236  0.5312 -0.1488  0.1363
10217SOL    HW132328   6.655   7.220   2.172  1.1471 -1.6390 -0.7339
10217SOL    HW232329   6.646   7.077   2.222 -3.6591 -1.7136 -1.5566
10218SOL     OW32330   4.224   2.855   7.667 -0.5116 -0.1275  0.2840
10218SOL    HW132331   4.199   2.880   7.756 -0.0419  1.8851 -0.1341
10218SOL    HW232332   4.141   2.855   7.618 -0.6209 -0.1916  0.4679
10219SOL     OW32333   5.329   8.972   2.560 -0.4783 -0.6770 -0.4054
10219SOL    HW132334   5.250   8.937   2.518 -0.4732  0.0186 -0.9979
10219SOL    HW232335   5.296   9.019   2.636 -0.3867 -3.1230  1.2025
10220SOL     OW32336   3.092   1.687   0.261  0.0821  0.5327  0.1276
10220SOL    HW132337   3.171   1.742   0.258 -0.3953  1.3333  1.5751
10220SOL    HW232338   3.117   1.614   0.317  0.4446 -0.2916 -1.1015
10221SOL     OW32339   4.598   3.483   8.292 -0.3187  0.4488 -0.5347
10221SOL    HW132340   4.529   3.428   8.327  1.1914 -2.1317 -1.4984
10221SOL    HW232341   4.583   3.484   8.197  1.5896 -1.0427 -0.8696
10222SOL     OW32342   7.395   6.875   5.290 -0.5036  0.8394 -0.7344
10222SOL    HW132343   7.312   6.893   5.335 -0.3967  0.3887 -0.3577
10222SOL    HW232344   7.368   6.840   5.205 -0.7153 -1.4800  0.2467
10223SOL     OW32345   3.334   8.102   0.966  0.0946  0.4135  0.4954
10223SOL    HW132346   3.305   8.119   1.056  0.2290 -0.7286  0.7718
10223SOL    HW232347   3.254   8.102   0.915  0.0762  1.6550  0.5093
10224SOL     OW32348   8.724   4.031   1.973 -0.3805  0.0998 -0.2375
10224SOL    HW132349   8.683   4.042   1.888  0.5208  1.4092 -0.5099
10224SOL    HW232350   8.697   4.107   2.024 -1.3734 -0.9486  0.8569
10225SOL     OW32351   1.846   4.083   7.925 -0.0923 -0.2021 -0.0799
10225SOL    HW132352   1.846   4.164   7.975 -1.6001 -1.9079  2.8649
10225SOL    HW232353   1.760   4.080   7.884  0.2874  0.0938 -0.9032
10226SOL     OW32354   5.970   7.871   0.090 -0.5555 -0.1055  0.3060
10226SOL    HW132355   5.995   7.850   0.180  0.1690 -0.1135  0.1028
10226SOL    HW232356   5.917   7.796   0.062 -0.3211 -0.3570  0.5377
10227SOL     OW32357   1.420   5.540   2.869  0.1359  0.3992 -0.1750
10227SOL    HW132358   1.386   5.474   2.929  1.3373  0.0342  0.1293
10227SOL    HW232359   1.348   5.603   2.858 -1.2470 -1.2772 -0.9811
10228SOL     OW32360   7.166   3.270   4.274 -0.0873  0.2456 -0.1385
10228SOL    HW132361   7.246   3.219   4.281 -1.6943 -2.4094 -0.2931
10228SOL    HW232362   7.165   3.324   4.353  0.7260 -1.3812  1.0084
10229SOL     OW32363   4.738   0.297   6.667 -0.1211  0.3882  0.5289
10229SOL    HW132364   4.658   0.348   6.665  1.2536  2.6068  0.3300
10229SOL    HW232365   4.726   0.230   6.600 -0.4601  2.7974 -1.8781
10230SOL     OW32366   2.264   5.106   2.867  0.0765  0.1621 -0.1077
10230SOL    HW132367   2.325   5.075   2.800  0.6453 -0.8338  0.8663
10230SOL    HW232368   2.318   5.159   2.925 -0.0040 -0.6149  0.6816
10231SOL     OW32369   3.144   3.616   0.583 -0.0144  0.6911 -0.1809
10231SOL    HW132370   3.198   3.586   0.656 -2.4555  1.0544  1.8511
10231SOL    HW232371   3.127   3.708   0.601 -1.4416  0.5427 -0.6781
10232SOL     OW32372   3.153   5.149   1.838 -0.2412  0.0590  0.3584
10232SOL    HW132373   3.219   5.089   1.871 -0.6603 -0.6585 -0.0778
10232SOL    HW232374   3.201   5.209   1.781  0.4666  1.2675  2.1947
10233SOL     OW32375   4.785   9.002   1.614  0.2695  0.2883 -0.5592
10233SOL    HW132376   4.869   9.013   1.659 -0.5659  1.1991  0.7999
10233SOL    HW232377   4.808   8.994   1.521  1.8214  0.9873 -0.2470
10234SOL     OW32378   3.605   7.173   8.803  0.0227 -0.2542 -0.6203
10234SOL    HW132379   3.553   7.093   8.791 -0.9455  0.6324 -2.5934
10234SOL    HW232380   3.540   7.243   8.809  0.9301  0.6352 -1.0617
10235SOL     OW32381   4.520   4.831   0.571  0.1756  0.1652  0.0410
10235SOL    HW132382   4.438   4.783   0.580 -0.2398  0.6697 -0.9628
10235SOL    HW232383   4.497   4.922   0.591  0.9366 -0.0332  1.8459
10236SOL     OW32384   9.064   8.191   4.820  0.6161 -0.0761 -0.0320
10236SOL    HW132385   8.998   8.151   4.764  0.3953  0.9120 -0.4945
10236SOL    HW232386   9.033   8.280   4.834  1.5660  0.2326  0.1942
10237SOL     OW32387   5.096   0.833   3.411 -0.4274  0.3430  0.2886
10237SOL    HW132388   5.103   0.927   3.426 -1.1838  0.3546  0.5610
10237SOL    HW232389   5.159   0.794   3.472 -0.1783  0.6640  0.2392
10238SOL     OW32390   8.524   1.430   3.040 -0.5657  0.1332 -0.0175
10238SOL    HW132391   8.429   1.434   3.053 -1.1854 -0.9714 -3.6920
10238SOL    HW232392   8.547   1.512   2.998 -0.2787 -0.5337 -1.1924
10239SOL     OW32393   7.372   1.917   4.331 -0.0771  0.8047  0.6163
10239SOL    HW132394   7.292   1.874   4.300  0.5474 -0.0639  0.1974
10239SOL    HW232395   7.346   2.008   4.345 -1.2405  0.4469  0.8460
10240SOL     OW32396   4.262   7.026   5.854 -0.7859 -0.1596 -0.3175
10240SOL    HW132397   4.222   7.063   5.775 -0.1619  0.7049 -0.2355
10240SOL    HW232398   4.269   7.100   5.914  0.4579 -0.4028 -0.1448
10241SOL     OW32399   1.526   3.377   7.612  0.1200 -0.1479  0.2073
10241SOL    HW132400   1.466   3.398   7.683  0.0881  0.6184 -0.0430
10241SOL    HW232401   1.572   3.299   7.642 -0.1083 -0.0036  0.9449
10242SOL     OW32402   1.659   4.353   6.219 -0.3526 -0.3666 -0.7451
10242SOL    HW132403   1.622   4.342   6.306 -0.0137  0.5881 -0.4773
10242SOL    HW232404   1.700   4.439   6.221  2.0960 -1.4866 -0.9455
10243SOL     OW32405   5.919   4.506   6.413 -0.2153 -0.3535  1.0460
10243SOL    HW132406   5.916   4.465   6.326  2.3968  1.9508 -0.2113
10243SOL    HW232407   5.984   4.455   6.461  1.7182  1.1138  0.0722
10244SOL     OW32408   2.797   1.958   6.272  0.0399  0.0413  0.0955
10244SOL    HW132409   2.840   1.962   6.187 -0.6478 -1.0659 -0.3288
10244SOL    HW232410   2.854   1.902   6.325  0.5178  0.8095  0.3979
10245SOL     OW32411   0.311   8.111   9.011 -0.0809  0.4686  0.4451
10245SOL    HW132412   0.362   8.141   9.086  0.7259  0.4419 -0.0811
10245SOL    HW232413   0.330   8.175   8.942  1.8213 -1.3009 -0.7570
10246SOL     OW32414   3.003   0.130   1.756 -0.9692  0.0638 -0.2401
10246SOL    HW132415   3.010   0.040   1.724  0.8607  1.4816 -4.1781
10246SOL    HW232416   2.916   0.159   1.728 -1.7973 -0.5724  1.5401
10247SOL     OW32417   8.202   3.489   7.577  0.3676  0.3084  0.2491
10247SOL    HW132418   8.253   3.511   7.499  0.7747 -1.1385  0.0786
10247SOL    HW232419   8.259   3.429   7.626 -0.2757  0.4513  1.1712
10248SOL     OW32420   7.359   2.354   3.904 -0.1997 -0.3604  0.1275
10248SOL    HW132421   7.348   2.353   3.809 -3.4666 -0.2560  0.4683
10248SOL    HW232422   7.317   2.435   3.932  1.2036 -0.1333  1.6588
10249SOL     OW32423   5.948   6.750   0.809 -0.2618  0.0221 -0.5605
10249SOL    HW132424   5.862   6.777   0.841 -0.0501  0.7923 -0.6420
10249SOL    HW232425   6.000   6.830   0.809  0.3162 -0.3509 -0.9643
10250SOL     OW32426   4.697   6.690   0.376 -0.6543  0.4866 -0.0249
10250SOL    HW132427   4.770   6.714   0.432 -1.5607 -1.2632  1.9660
10250SOL    HW232428   4.713   6.598   0.354 -0.6329  0.9621 -2.1881
10251SOL     OW32429   7.803   7.988   0.478  0.1450 -0.2298  0.7900
10251SOL    HW132430   7.754   7.978   0.396 -0.0063  0.0225  0.8470
10251SOL    HW232431   7.742   7.959   0.546 -0.5098  1.5552  1.0103
10252SOL     OW32432   9.022   6.502   5.456  0.2410  0.2374  0.3732
10252SOL    HW132433   9.010   6.580   5.511  3.1842  0.4112  0.8331
10252SOL    HW232434   9.085   6.448   5.504  2.0799 -0.0916 -2.2905
10253SOL     OW32435   0.242   6.690   2.026  0.2598  0.1504 -0.1386
10253SOL    HW132436   0.277   6.779   2.030 -1.4817  0.9001 -1.3267
10253SOL    HW232437   0.320   6.634   2.031  1.2328  1.6562  2.6690
10254SOL     OW32438   6.751   2.789   7.816  0.2528 -0.0891 -0.0383
10254SOL    HW132439   6.703   2.870   7.800  1.6564  1.0086  1.1866
10254SOL    HW232440   6.734   2.769   7.908 -0.6781 -1.6158 -0.5087
10255SOL     OW32441   0.214   0.574   1.058  0.1183 -0.1613 -0.1619
10255SOL    HW132442   0.250   0.560   1.146  1.3578 -2.0948 -0.9309
10255SOL    HW232443   0.290   0.568   1.000 -1.1025 -2.0301 -1.6266
10256SOL     OW32444   1.472   9.217   5.853  0.6809 -0.1004 -0.0073
10256SOL    HW132445   1.428   9.140   5.817  0.9618 -1.0362  1.5903
10256SOL    HW232446   1.562   9.210   5.822  1.4454 -1.9922  2.3877
10257SOL     OW32447   6.760   8.684   0.700 -0.0264 -0.1882  0.5753
10257SOL    HW132448   6.766   8.597   0.739 -2.0470 -0.6174  0.0151
10257SOL    HW232449   6.680   8.681   0.647  0.4698  1.6591 -0.3409
10258SOL     OW32450   7.972   0.770   5.043 -0.1235 -0.0662 -0.7463
10258SOL    HW132451   7.891   0.719   5.038  0.5148 -1.1878  0.0316
10258SOL    HW232452   7.945   0.860   5.026 -1.6462 -0.3038  0.3179
10259SOL     OW32453   4.672   2.632   4.229 -0.1101  0.3356  0.0487
10259SOL    HW132454   4.718   2.708   4.193  0.1401 -0.1650 -0.6942
10259SOL    HW232455   4.686   2.638   4.324  0.6038  0.7620 -0.0795
10260SOL     OW32456   4.943   1.012   3.771 -0.7043 -0.1266 -0.2444
10260SOL    HW132457   4.891   1.002   3.851 -0.1193 -0.0014  0.1586
10260SOL    HW232458   4.891   1.069   3.715 -1.3944 -0.7049 -0.1991
10261SOL     OW32459   1.438   6.156   2.181 -0.4526  0.2138  0.0362
10261SOL    HW132460   1.417   6.063   2.180 -0.9896  0.3379 -0.4957
10261SOL    HW232461   1.529   6.161   2.150 -0.5149 -0.1070 -0.1945
10262SOL     OW32462   1.157   7.609   2.259 -0.2463 -0.1957  0.2743
10262SOL    HW132463   1.153   7.687   2.203  0.3162  0.1040  0.6387
10262SOL    HW232464   1.099   7.629   2.333  0.9109  0.4345  1.0343
10263SOL     OW32465   8.305   8.593   3.471 -0.2918 -0.1175 -0.4407
10263SOL    HW132466   8.279   8.662   3.531 -0.0636  0.4897 -1.0378
10263SOL    HW232467   8.376   8.548   3.516  0.7014  1.1023 -0.7655
10264SOL     OW32468   2.570   2.888   8.529  0.3152 -0.7874  0.1210
10264SOL    HW132469   2.487   2.919   8.564  0.4939  0.7121 -0.7788
10264SOL    HW232470   2.610   2.839   8.602 -0.4061  0.2649  1.2315
10265SOL     OW32471   3.386   6.238   5.908  0.2753 -0.1371  0.2735
10265SOL    HW132472   3.454   6.177   5.937 -1.4665 -1.1393  2.4228
10265SOL    HW232473   3.337   6.189   5.842  0.8829  0.1824 -0.4374
10266SOL     OW32474   3.209   1.170   7.923  0.2007  0.0888  0.0335
10266SOL    HW132475   3.266   1.234   7.880  0.0160 -0.8639 -1.6665
10266SOL    HW232476   3.244   1.162   8.011  0.8585  1.7523 -0.0552
10267SOL     OW32477   6.607   2.512   4.726 -0.2276  0.1461  0.0158
10267SOL    HW132478   6.634   2.567   4.799  0.3402  0.4279 -0.3990
10267SOL    HW232479   6.550   2.445   4.765 -0.0699  0.3986  0.6784
10268SOL     OW32480   1.176   3.681   5.573  0.0476  0.0974 -0.5679
10268SOL    HW132481   1.122   3.602   5.566  0.1412  0.1606 -2.1730
10268SOL    HW232482   1.261   3.650   5.602  0.2679 -0.4966 -1.7945
10269SOL     OW32483   4.564   2.302   3.766 -0.4795  0.2946 -0.0981
10269SOL    HW132484   4.625   2.254   3.710  0.3979  0.7213  0.4705
10269SOL    HW232485   4.512   2.354   3.706  0.7756  1.1160 -0.5051
10270SOL     OW32486   5.959   8.367   4.718  0.2897 -0.3465  0.6154
10270SOL    HW132487   5.975   8.347   4.626  0.9697  1.4619  0.3236
10270SOL    HW232488   6.043   8.398   4.751 -0.0839 -0.4928  1.7223
10271SOL     OW32489   2.271   4.628   2.445  0.3330  0.4445 -1.4643
10271SOL    HW132490   2.345   4.579   2.409  0.3628 -1.4223  0.9648
10271SOL    HW232491   2.194   4.579   2.415  0.3408 -0.8292  0.5264
10272SOL     OW32492   0.668   8.734   6.164 -0.9827 -0.4440  0.1317
10272SOL    HW132493   0.744   8.694   6.123  0.7614  2.0160  0.8434
10272SOL    HW232494   0.676   8.711   6.257 -1.2381 -0.4034  0.1645
10273SOL     OW32495   8.593   2.552   3.768 -0.2056 -0.4000  0.3053
10273SOL    HW132496   8.608   2.543   3.674  1.2360  0.6433  0.4259
10273SOL    HW232497   8.658   2.615   3.797 -2.1359  1.0601  1.6030
10274SOL     OW32498   6.721   8.143   7.938 -0.0019  0.1340 -0.3778
10274SOL    HW132499   6.796   8.103   7.894 -0.7261 -1.9916  0.2167
10274SOL    HW232500   6.653   8.146   7.870 -0.2947 -0.6953 -0.1271
10275SOL     OW32501   8.671   1.420   5.039  0.3843  0.0816  0.1876
10275SOL    HW132502   8.660   1.325   5.044 -0.7218  0.1093 -1.3128
10275SOL    HW232503   8.718   1.434   4.957  0.5652  0.8273  0.4200
10276SOL     OW32504   3.608   7.412   1.053  0.0080 -0.7602  0.3623
10276SOL    HW132505   3.645   7.370   0.976 -1.4325 -1.3936  0.0095
10276SOL    HW232506   3.676   7.402   1.120  0.1144 -2.7384 -0.0125
10277SOL     OW32507   4.646   1.710   7.527  0.2808  0.3849 -0.3104
10277SOL    HW132508   4.560   1.681   7.496  1.8862 -1.2200 -3.4265
10277SOL    HW232509   4.662   1.791   7.479  0.2100  1.0819  0.8263
10278SOL     OW32510   3.772   8.433   6.602 -0.5168  0.0302  0.6240
10278SOL    HW132511   3.724   8.461   6.679 -0.7059 -0.3606  0.6519
10278SOL    HW232512   3.706   8.397   6.543 -0.4056  0.5558  0.1731
10279SOL     OW32513   2.666   5.568   3.246 -0.1630  0.2546  1.1045
10279SOL    HW132514   2.626   5.603   3.166  1.4144  0.4100  0.3590
10279SOL    HW232515   2.599   5.580   3.313 -1.7494 -0.4452 -0.3049
10280SOL     OW32516   5.298   1.882   4.853  1.0696  0.2879  0.2474
10280SOL    HW132517   5.336   1.934   4.782 -0.4071  0.7242 -0.2428
10280SOL    HW232518   5.262   1.947   4.913  1.9401 -0.0968  1.1879
10281SOL     OW32519   2.305   9.204   5.385  0.2218 -0.2022 -0.0339
10281SOL    HW132520   2.218   9.225   5.420 -0.0323  0.9640 -1.3589
10281SOL    HW232521   2.294   9.205   5.290  1.3670 -1.4479 -0.1981
10282SOL     OW32522   8.140   4.477   1.669  0.0969  0.3203  0.4355
10282SOL    HW132523   8.072   4.499   1.733  0.6173  0.0976  1.0732
10282SOL    HW232524   8.182   4.399   1.705  2.0526  1.6519  1.1147
10283SOL     OW32525   6.725   3.516   7.094 -0.6816  0.1660 -0.3745
10283SOL    HW132526   6.713   3.587   7.156  1.4942  0.7306 -0.5242
10283SOL    HW232527   6.735   3.560   7.009 -1.6271 -0.4607 -0.8126
10284SOL     OW32528   0.303   1.471   0.737  0.4144 -0.1171  0.5587
10284SOL    HW132529   0.333   1.470   0.646 -0.2473  3.4364  0.2111
10284SOL    HW232530   0.208   1.460   0.730  0.2562  1.0739  0.7219
10285SOL     OW32531   0.170   9.108   2.182  0.3690 -0.4739  0.7889
10285SOL    HW132532   0.082   9.136   2.209  0.1544 -0.2152 -0.1804
10285SOL    HW232533   0.225   9.126   2.259 -0.9459 -3.2988  2.4936
10286SOL     OW32534   4.015   5.056   4.801  0.1032 -0.2163 -0.4304
10286SOL    HW132535   3.936   5.047   4.749  0.0339 -0.8299 -0.2210
10286SOL    HW232536   3.985   5.058   4.892  0.2238  0.8699 -0.4082
10287SOL     OW32537   0.590   3.038   5.995 -0.4707  0.4547  0.4799
10287SOL    HW132538   0.634   3.000   6.071 -1.4010 -0.1088  0.7478
10287SOL    HW232539   0.661   3.064   5.937  0.2330  0.2154  1.2181
10288SOL     OW32540   1.126   6.363   4.496  0.8042  0.2498 -0.1214
10288SOL    HW132541   1.067   6.378   4.423  0.9046 -0.2776 -0.3144
10288SOL    HW232542   1.202   6.419   4.478  0.0897  1.4243  0.4626
10289SOL     OW32543   6.338   4.831   7.221 -0.0166 -0.4647  0.7516
10289SOL    HW132544   6.401   4.885   7.173 -2.4529  0.9878 -0.8855
10289SOL    HW232545   6.328   4.875   7.305 -0.6778  0.6994  0.0777
10290SOL     OW32546   6.610   8.184   2.344  0.0976  0.2027  0.0515
10290SOL    HW132547   6.669   8.247   2.387 -0.1860  1.5074 -1.4077
10290SOL    HW232548   6.531   8.235   2.324 -0.2096 -0.6621 -1.0029
10291SOL     OW32549   8.651   8.319   5.252 -0.4537  0.2075 -0.4889
10291SOL    HW132550   8.613   8.324   5.340  2.6234  1.1992  0.8752
10291SOL    HW232551   8.641   8.407   5.217  0.4158  0.4479 -0.1612
10292SOL     OW32552   5.192   9.162   4.690  0.0905 -0.2678 -0.2809
10292SOL    HW132553   5.251   9.140   4.618 -0.3865  1.4432 -1.2074
10292SOL    HW232554   5.124   9.217   4.650 -0.3620  0.4234  1.4049
10293SOL     OW32555   6.624   3.034   4.311 -0.0718 -0.4432  0.1242
10293SOL    HW132556   6.703   3.087   4.324 -1.0755  1.3817 -0.8917
10293SOL    HW232557   6.656   2.949   4.283  1.5652  0.0565  0.4241
10294SOL     OW32558   0.261   2.932   0.753 -0.3761 -0.7389 -0.0062
10294SOL    HW132559   0.248   2.858   0.694  0.4763 -1.2426  0.4279
10294SOL    HW232560   0.228   2.902   0.838  0.0388 -0.6589  0.1895
10295SOL     OW32561   8.518   0.223   3.787 -0.4164 -0.0904  0.1543
10295SOL    HW132562   8.550   0.134   3.802 -0.0249 -0.2257 -1.3968
10295SOL    HW232563   8.546   0.243   3.698 -0.5607  1.5689  0.4806
10296SOL     OW32564   8.269   0.506   4.297 -0.0530 -0.1802 -0.2366
10296SOL    HW132565   8.185   0.496   4.343 -1.3902  1.2833 -2.2864
10296SOL    HW232566   8.270   0.434   4.233  0.0330  0.0773 -0.5274
10297SOL     OW32567   6.083   7.713   6.106  0.3290 -0.2816  0.1542
10297SOL    HW132568   6.087   7.622   6.075 -1.1033 -0.7152  1.1786
10297SOL    HW232569   6.044   7.760   6.032 -0.4906 -0.8122  0.2354
10298SOL     OW32570   1.699   8.452   5.083 -0.4524 -0.1018 -0.1250
10298SOL    HW132571   1.666   8.542   5.082 -0.1172  0.0191 -0.5965
10298SOL    HW232572   1.683   8.422   5.172  0.9979  1.0110  0.5333
10299SOL     OW32573   6.369   2.961   2.439 -0.4128 -0.0441  0.3089
10299SOL    HW132574   6.350   2.894   2.505  0.7658 -0.2505  0.4538
10299SOL    HW232575   6.453   2.998   2.466  0.1409 -0.2142 -1.1346
10300SOL     OW32576   0.108   8.171   4.277  0.1467  0.1171  0.1462
10300SOL    HW132577   0.193   8.188   4.318  0.7398  1.5363 -1.6037
10300SOL    HW232578   0.123   8.095   4.221  0.7739  1.4659 -1.5604
10301SOL     OW32579   4.976   1.243   2.136 -0.1717  0.5557 -0.1818
10301SOL    HW132580   4.928   1.163   2.155 -0.4112  0.5421 -0.8282
10301SOL    HW232581   5.010   1.272   2.221 -0.3003 -0.0887  0.0896
10302SOL     OW32582   7.135   0.276   6.735 -0.2506  0.0762  0.9730
10302SOL    HW132583   7.085   0.251   6.658  0.1127  3.2514 -0.4026
10302SOL    HW232584   7.113   0.369   6.748  2.8083  0.6920  2.2159
10303SOL     OW32585   5.074   7.962   8.054  0.4341  0.3912 -0.0522
10303SOL    HW132586   5.131   7.919   8.117  1.1407  1.8901  0.3614
10303SOL    HW232587   5.081   7.909   7.974 -1.1552 -2.0246  1.3504
10304SOL     OW32588   8.945   5.877   6.445 -0.4414  0.0187  0.3984
10304SOL    HW132589   8.986   5.953   6.485 -0.3730 -0.8245  1.9652
10304SOL    HW232590   8.962   5.805   6.506 -1.0409 -1.1227 -0.7494
10305SOL     OW32591   4.961   3.186   3.893 -0.0474  0.1956 -0.1605
10305SOL    HW132592   4.871   3.179   3.927  0.4735 -1.9476  0.8772
10305SOL    HW232593   4.987   3.096   3.876  1.5318  0.8814 -1.5546
10306SOL     OW32594   0.985   6.843   7.277  0.2243 -0.0381  0.4546
10306SOL    HW132595   0.901   6.882   7.252  0.0913  0.1597  1.1762
10306SOL    HW232596   0.984   6.845   7.373  0.1194 -2.0502  0.5148
10307SOL     OW32597   4.593   4.191   7.041  0.3094 -0.1467  1.6066
10307SOL    HW132598   4.537   4.146   7.104  0.1546 -0.2665  1.3819
10307SOL    HW232599   4.644   4.122   7.000 -0.2445 -0.1651  0.9427
10308SOL     OW32600   3.168   0.813   3.723 -0.2124 -0.7188  0.2861
10308SOL    HW132601   3.096   0.847   3.777 -0.6573 -0.0961 -0.6889
10308SOL    HW232602   3.125   0.771   3.649  0.4347  0.3118 -0.6906
10309SOL     OW32603   6.127   4.119   3.453  0.2940  0.1841  0.4318
10309SOL    HW132604   6.054   4.170   3.419  0.4467  1.4294  1.9093
10309SOL    HW232605   6.168   4.177   3.518  1.6959 -1.0549  0.6691
10310SOL     OW32606   1.964   3.447   9.111 -0.0670  0.5891  0.1953
10310SOL    HW132607   2.037   3.384   9.115 -0.3754  0.2597  0.6487
10310SOL    HW232608   1.907   3.423   9.184 -0.6631  0.8083 -0.1918
10311SOL     OW32609   2.048   0.473   0.987  0.3095 -0.1325 -0.4455
10311SOL    HW132610   2.135   0.435   1.005  1.1440  0.3384 -3.2516
10311SOL    HW232611   2.060   0.567   0.998 -0.6688 -0.2963  2.2486
10312SOL     OW32612   7.164   5.746   9.179  0.1734 -0.1264 -0.1860
10312SOL    HW132613   7.183   5.722   9.088  0.5964 -1.2814  0.1989
10312SOL    HW232614   7.149   5.840   9.176 -3.0759 -0.6069 -1.9900
10313SOL     OW32615   0.350   1.670   1.900 -0.5026  0.3352 -0.0252
10313SOL    HW132616   0.379   1.699   1.813  1.3878 -3.0905 -0.5852
10313SOL    HW232617   0.264   1.632   1.885 -0.4035  0.2196 -0.2980
10314SOL     OW32618   4.571   0.554   5.280 -0.9376  0.5559  0.0927
10314SOL    HW132619   4.579   0.578   5.187 -2.1391 -0.0476 -0.1705
10314SOL    HW232620   4.635   0.483   5.291 -0.4756  0.9263 -0.1610
10315SOL     OW32621   4.292   6.173   0.766  0.1627  0.1887 -0.4354
10315SOL    HW132622   4.351   6.241   0.797 -0.8386  0.1451  1.7084
10315SOL    HW232623   4.345   6.119   0.708  2.1860  0.2796  1.2567
10316SOL     OW32624   0.492   6.489   2.448  0.1993 -0.0290 -0.7685
10316SOL    HW132625   0.484   6.581   2.473  0.0889  0.2155 -1.6948
10316SOL    HW232626   0.533   6.447   2.524 -0.4071  0.6468 -0.0675
10317SOL     OW32627   5.798   6.581   0.054 -0.4969 -0.4585 -0.6676
10317SOL    HW132628   5.844   6.663   0.071 -1.9985 -0.1627  2.2485
10317SOL    HW232629   5.706   6.603   0.067 -0.8718 -2.7276  0.6822
10318SOL     OW32630   6.415   4.807   6.175 -0.0627  0.0427 -0.2480
10318SOL    HW132631   6.480   4.752   6.219 -2.0601 -1.8322  0.4349
10318SOL    HW232632   6.396   4.877   6.238  1.1058  0.4894 -0.3725
10319SOL     OW32633   2.897   8.228   8.274  0.0306  0.5069  0.9148
10319SOL    HW132634   2.969   8.165   8.271  0.0585  0.4876  1.8773
10319SOL    HW232635   2.892   8.263   8.185  1.8293  1.1868  1.0702
10320SOL     OW32636   7.179   7.000   2.788 -0.1942  0.3800  0.4307
10320SOL    HW132637   7.162   6.906   2.780  1.5200 -0.0660  1.6756
10320SOL    HW232638   7.253   7.015   2.729  0.3258  0.7148  1.1752
10321SOL     OW32639   5.652   7.346   1.124 -0.1314 -0.4921 -0.1465
10321SOL    HW132640   5.572   7.326   1.173  0.3518 -1.8252  0.1199
10321SOL    HW232641   5.669   7.267   1.073  1.2138 -0.3584  0.0838
10322SOL     OW32642   6.402   5.311   7.426 -0.5112  0.1765 -0.3249
10322SOL    HW132643   6.435   5.266   7.348  2.1097  1.1330  0.1823
10322SOL    HW232644   6.332   5.367   7.393  1.0760  1.1416 -2.1435
10323SOL     OW32645   5.499   4.820   6.795  0.1338  0.4790 -0.3273
10323SOL    HW132646   5.537   4.867   6.722 -1.4178  1.1654 -0.7066
10323SOL    HW232647   5.499   4.883   6.867  1.5933 -0.1715  0.2541
10324SOL     OW32648   4.900   1.767   0.297 -0.1560  0.2998  0.8771
10324SOL    HW132649   4.848   1.813   0.364  0.5602  2.0694  0.2285
10324SOL    HW232650   4.986   1.808   0.301  0.3352 -0.6151 -0.1103
10325SOL     OW32651   6.303   0.018   0.580  0.5366  0.0112  0.3998
10325SOL    HW132652   6.303   0.094   0.637 -1.3377 -0.2992  0.8347
10325SOL    HW232653   6.322  -0.056   0.637 -2.7255 -0.4820  0.9291
10326SOL     OW32654   8.741   1.751   8.483 -0.3444  0.0615  0.1298
10326SOL    HW132655   8.776   1.840   8.488  2.1065 -0.9139  0.7127
10326SOL    HW232656   8.737   1.721   8.573 -2.3689 -0.0062  0.0503
10327SOL     OW32657   1.991   2.472   3.547 -0.0190 -0.0593  0.2277
10327SOL    HW132658   1.970   2.522   3.626  1.2602  0.1551  0.4370
10327SOL    HW232659   2.065   2.417   3.572 -0.5791 -1.1159 -0.3869
10328SOL     OW32660   5.685   0.400   0.539  0.0493 -0.6798  0.0206
10328SOL    HW132661   5.684   0.341   0.614 -1.2177 -0.1767  0.4219
10328SOL    HW232662   5.654   0.345   0.466  0.5315 -0.9649  0.0301
10329SOL     OW32663   2.793   2.079   8.797  0.0615  0.7501  0.1732
10329SOL    HW132664   2.722   2.123   8.842 -0.8140 -0.1866 -0.2681
10329SOL    HW232665   2.866   2.081   8.860 -0.5276  1.1970  0.8501
10330SOL     OW32666   1.163   1.582   5.947  0.1048  0.0564 -0.6607
10330SOL    HW132667   1.152   1.487   5.954 -0.8525  0.1096 -1.3197
10330SOL    HW232668   1.154   1.614   6.037  0.0051 -0.4411 -0.4913
10331SOL     OW32669   0.581   7.591   5.020  0.8954  0.5233  0.4995
10331SOL    HW132670   0.518   7.616   5.088 -1.1842 -0.3070 -1.0583
10331SOL    HW232671   0.593   7.671   4.969 -0.1253  0.2905 -0.1265
10332SOL     OW32672   5.407   3.277   1.140 -0.0952  0.3099 -0.3276
10332SOL    HW132673   5.433   3.292   1.049 -0.0976  0.3267 -0.3256
10332SOL    HW232674   5.452   3.345   1.189  2.0673 -1.3654  0.0339
10333SOL     OW32675   9.046   7.234   3.288 -0.1588 -0.0944 -0.1489
10333SOL    HW132676   9.081   7.179   3.219 -0.2175 -0.4953  0.1364
10333SOL    HW232677   8.970   7.185   3.321 -0.6053  0.4683 -0.3385
10334SOL     OW32678   2.186   1.662   8.991 -0.2352 -0.0115  0.3663
10334SOL    HW132679   2.160   1.665   8.899  0.8283 -0.4588  0.0426
10334SOL    HW232680   2.222   1.574   9.002 -1.3254 -0.3377  1.4877
10335SOL     OW32681   8.459   8.453   5.427 -0.0412 -0.0299 -0.3736
10335SOL    HW132682   8.393   8.425   5.363 -2.2828  3.7823  0.1211
10335SOL    HW232683   8.422   8.428   5.512 -0.5489  1.4267 -0.1490
10336SOL     OW32684   8.222   2.096   5.503 -0.2969 -0.5148 -0.2786
10336SOL    HW132685   8.159   2.167   5.512 -0.3300 -0.6065  0.2046
10336SOL    HW232686   8.193   2.028   5.564  0.1048 -0.6758 -0.2578
10337SOL     OW32687   3.244   4.080   8.479 -0.0920  0.7340  0.1545
10337SOL    HW132688   3.182   4.008   8.484 -0.3596  1.0297  1.2515
10337SOL    HW232689   3.313   4.058   8.542 -0.2285  1.4800  0.5732
10338SOL     OW32690   8.490   0.219   2.961 -0.2254 -0.1313 -0.8819
10338SOL    HW132691   8.441   0.302   2.958  0.0369  0.0377 -0.4658
10338SOL    HW232692   8.511   0.201   2.869  1.2514  1.1739 -0.8155
10339SOL     OW32693   1.293   6.888   2.246  0.3687  0.5122 -0.0124
10339SOL    HW132694   1.306   6.982   2.253  1.4123  0.3664  0.0033
10339SOL    HW232695   1.206   6.873   2.282  0.5306  1.3686  0.7319
10340SOL     OW32696   0.657   8.983   8.724 -0.2040 -0.4785  0.3616
10340SOL    HW132697   0.587   9.036   8.761  0.8973  1.9878 -0.9893
10340SOL    HW232698   0.677   8.919   8.792 -1.8998  0.4906  1.8249
10341SOL     OW32699   7.853   0.167   4.496  0.5364  0.6989  0.4812
10341SOL    HW132700   7.779   0.107   4.485  0.4564  0.6298  1.3058
10341SOL    HW232701   7.814   0.254   4.489  0.5224  0.6525  0.0319
10342SOL     OW32702   3.858   5.831   6.621  0.1604  0.0794 -0.2173
10342SOL    HW132703   3.769   5.795   6.619 -0.9993  2.9021 -1.5295
10342SOL    HW232704   3.892   5.815   6.533 -0.3490  2.0761 -0.7980
10343SOL     OW32705   1.086   7.980   6.219 -0.0614  0.2129  0.0702
10343SOL    HW132706   1.175   7.947   6.210  0.0022  0.4390 -0.1373
10343SOL    HW232707   1.091   8.072   6.192 -0.5855 -0.0957 -1.0905
10344SOL     OW32708   4.350   8.474   3.407 -0.0795  0.2262 -0.0559
10344SOL    HW132709   4.286   8.516   3.465 -0.5353  1.0947 -1.1779
10344SOL    HW232710   4.347   8.382   3.431  0.3852  0.7058  1.9344
10345SOL     OW32711   2.682   7.064   5.162  0.0697 -0.1009  0.9390
10345SOL    HW132712   2.746   6.994   5.171 -1.6814 -1.6387  1.7585
10345SOL    HW232713   2.625   7.056   5.239 -1.9492  0.3391 -0.4490
10346SOL     OW32714   6.568   5.214   3.509  0.3986 -0.1428 -0.2930
10346SOL    HW132715   6.522   5.224   3.425  0.0907  1.7230  0.0762
10346SOL    HW232716   6.661   5.217   3.485  0.3230 -1.2101 -0.7405
10347SOL     OW32717   2.771   6.175   1.155 -0.3079  0.1205 -0.0365
10347SOL    HW132718   2.863   6.159   1.176 -0.4576 -2.9776 -1.4661
10347SOL    HW232719   2.723   6.133   1.227 -0.6331  0.1685 -0.2255
10348SOL     OW32720   7.280   2.244   6.060  0.2080 -0.1952 -0.3369
10348SOL    HW132721   7.325   2.318   6.020  0.1741  0.3670  0.6590
10348SOL    HW232722   7.318   2.238   6.148 -1.7789  0.3735  0.5659
10349SOL     OW32723   5.798   3.508   6.308  0.5831 -0.3116 -0.2734
10349SOL    HW132724   5.738   3.562   6.360  1.7227  0.5672  0.1567
10349SOL    HW232725   5.741   3.457   6.251 -0.6527 -0.6714  1.2603
10350SOL     OW32726   4.239   6.227   0.119  0.1858 -0.8366 -1.0882
10350SOL    HW132727   4.156   6.204   0.077 -0.1281  0.1939 -1.0363
10350SOL    HW232728   4.296   6.254   0.047  0.0895 -0.3907 -0.9980
10351SOL     OW32729   5.106   6.108   7.546  0.5158  0.2678 -0.0156
10351SOL    HW132730   5.097   6.017   7.575 -1.4963 -0.1272 -1.6739
10351SOL    HW232731   5.016   6.141   7.547  1.2878  2.3706  0.9501
10352SOL     OW32732   6.320   7.286   4.040 -0.4980  0.0858 -0.0030
10352SOL    HW132733   6.409   7.279   4.006 -0.2474 -0.1734  0.7043
10352SOL    HW232734   6.269   7.227   3.985 -0.4919  1.2580 -1.2861
10353SOL     OW32735   1.339   7.159   2.247 -0.0685  0.2021 -0.4091
10353SOL    HW132736   1.340   7.188   2.339 -1.7497 -0.9704 -0.0051
10353SOL    HW232737   1.431   7.153   2.223  0.4244  5.1280 -0.2757
10354SOL     OW32738   7.478   0.668   8.823  0.0156  0.2156  0.5820
10354SOL    HW132739   7.507   0.578   8.838  0.1171  0.2223  0.4310
10354SOL    HW232740   7.424   0.689   8.899 -3.6239 -1.4541 -1.4187
10355SOL     OW32741   5.864   2.452   3.072 -0.0191  0.1573 -0.1786
10355SOL    HW132742   5.949   2.487   3.046  0.1724 -1.2912 -1.5771
10355SOL    HW232743   5.806   2.528   3.073  1.0955  1.0179 -0.0157
10356SOL     OW32744   4.778   8.363   2.744 -0.0709 -0.0226 -0.1091
10356SOL    HW132745   4.751   8.291   2.687  0.0230 -1.0888  1.1749
10356SOL    HW232746   4.741   8.441   2.702 -1.1064 -0.9323 -0.9322
10357SOL     OW32747   2.129   4.020   7.879 -0.4432  0.0816  0.5464
10357SOL    HW132748   2.044   4.004   7.921  0.4246  0.1726  2.4223
10357SOL    HW232749   2.181   3.942   7.901 -0.1382 -0.1170 -0.8520
10358SOL     OW32750   7.201   2.398   2.330 -0.2157  0.4060  0.5166
10358SOL    HW132751   7.165   2.422   2.245  0.9639 -1.3243 -0.4742
10358SOL    HW232752   7.182   2.305   2.340 -1.0021  0.7486  2.4870
10359SOL     OW32753   2.249   0.969   4.732  0.2253  0.0752 -0.1514
10359SOL    HW132754   2.197   1.023   4.792 -0.0484  0.3574 -0.6481
10359SOL    HW232755   2.287   0.901   4.789 -1.0784 -0.4221  0.1312
10360SOL     OW32756   8.816   4.974   6.344  0.3088 -0.3546  0.2184
10360SOL    HW132757   8.841   4.942   6.257  0.7528  0.4007  0.0676
10360SOL    HW232758   8.895   4.966   6.396  0.7679  1.6114 -0.1380
10361SOL     OW32759   5.223   1.433   0.817 -0.8500  0.0055 -0.0214
10361SOL    HW132760   5.234   1.343   0.848  0.0978  0.4055  0.8259
10361SOL    HW232761   5.249   1.430   0.725  3.1020  0.1875  1.0051
10362SOL     OW32762   7.510   1.214   8.284 -0.3817 -0.1117  0.6242
10362SOL    HW132763   7.590   1.259   8.313 -0.6198 -0.1639  1.3728
10362SOL    HW232764   7.539   1.158   8.212  0.1645  0.2365  0.5652
10363SOL     OW32765   1.828   7.028   6.915 -0.0016 -0.0866 -0.2056
10363SOL    HW132766   1.738   7.009   6.889  0.5382 -0.0277 -2.1590
10363SOL    HW232767   1.852   6.956   6.973 -1.8182  0.7129  1.6060
10364SOL     OW32768   6.922   2.664   3.370  0.4721  0.0382  0.3708
10364SOL    HW132769   6.847   2.614   3.336  3.0697 -1.1632 -3.8857
10364SOL    HW232770   6.935   2.734   3.307  3.0272  0.1097  0.9238
10365SOL     OW32771   4.695   6.617   0.083  0.3591 -0.4599  0.0585
10365SOL    HW132772   4.770   6.571   0.045  1.0788  0.9807 -0.2994
10365SOL    HW232773   4.714   6.621   0.177 -0.1204 -1.6251  0.2181
10366SOL     OW32774   0.059   3.294   7.655  0.1126  0.1006  0.1167
10366SOL    HW132775  -0.015   3.236   7.671 -0.0743  0.3001 -0.0399
10366SOL    HW232776   0.135   3.235   7.654 -0.2548 -0.3662 -1.7276
10367SOL     OW32777   4.211   5.656   7.487 -0.0223 -0.1216  0.6757
10367SOL    HW132778   4.138   5.647   7.548 -0.5859  1.1112  0.1989
10367SOL    HW232779   4.174   5.632   7.401 -0.4800  2.6549  0.0638
10368SOL     OW32780   8.249   6.316   8.195 -0.4036 -0.4293 -0.8154
10368SOL    HW132781   8.177   6.371   8.164 -0.0050  0.6686  0.1812
10368SOL    HW232782   8.210   6.262   8.265 -0.5003 -0.5588 -0.9676
10369SOL     OW32783   4.890   4.707   1.424 -0.0025 -0.0156 -0.2339
10369SOL    HW132784   4.952   4.739   1.491 -1.1449  0.9298  0.3851
10369SOL    HW232785   4.900   4.769   1.352 -0.6799  0.5324  0.1284
10370SOL     OW32786   6.570   0.410   5.582  0.2121  0.5402 -0.6207
10370SOL    HW132787   6.510   0.457   5.640  1.7531  2.2119 -0.3332
10370SOL    HW232788   6.648   0.395   5.634  0.3744 -0.8957 -1.2464
10371SOL     OW32789   2.139   1.964   2.562  0.3508  0.0858 -0.4601
10371SOL    HW132790   2.229   1.994   2.551  0.1204  0.5127 -1.1538
10371SOL    HW232791   2.085   2.041   2.545 -0.1937 -0.4433 -1.1508
10372SOL     OW32792   7.556   3.133   8.717 -0.1194  0.5879  0.2572
10372SOL    HW132793   7.516   3.160   8.634  0.2418  2.3610  0.6191
10372SOL    HW232794   7.482   3.115   8.775 -0.3702 -0.6157 -0.4463
10373SOL     OW32795   5.062   5.323   7.604  0.0871  0.3033 -0.3127
10373SOL    HW132796   5.054   5.369   7.521  1.3346  0.3175 -0.4293
10373SOL    HW232797   5.125   5.253   7.588 -2.6247 -2.2494 -0.4666
10374SOL     OW32798   7.830   7.562   1.652 -0.2319  0.7683 -0.2119
10374SOL    HW132799   7.812   7.476   1.614 -1.8879  0.8859  0.2468
10374SOL    HW232800   7.924   7.562   1.667  0.2659  0.2314 -3.0983
10375SOL     OW32801   1.359   6.830   3.958  0.3558 -0.2588  0.8524
10375SOL    HW132802   1.379   6.812   3.867 -0.4201 -1.1450  0.8504
10375SOL    HW232803   1.343   6.924   3.961  1.0303 -0.1206  0.2020
10376SOL     OW32804   5.546   4.489   7.452 -0.3653  0.2585 -0.1415
10376SOL    HW132805   5.496   4.412   7.424  0.6926  0.1764 -1.8957
10376SOL    HW232806   5.481   4.548   7.490 -1.6222 -0.3448 -1.3086
10377SOL     OW32807   8.745   1.530   7.003 -0.0785  0.2275  0.0649
10377SOL    HW132808   8.805   1.586   6.953  2.4702  0.2370  3.0313
10377SOL    HW232809   8.753   1.444   6.962  0.3426  0.7024 -0.8784
10378SOL     OW32810   3.638   6.673   2.770  0.6927  0.1507  0.0119
10378SOL    HW132811   3.543   6.664   2.764  0.7629 -0.3026 -0.4545
10378SOL    HW232812   3.671   6.637   2.688  1.2358  0.8979 -0.0961
10379SOL     OW32813   7.348   3.035   7.481  0.4067 -0.1062 -0.9051
10379SOL    HW132814   7.256   3.016   7.464  0.1021  0.0081  0.5675
10379SOL    HW232815   7.359   3.021   7.575  1.9381 -0.3033 -1.0939
10380SOL     OW32816   7.773   5.739   7.295 -0.2083  1.0187 -0.0110
10380SOL    HW132817   7.851   5.739   7.351  0.2540  1.5306 -0.6509
10380SOL    HW232818   7.723   5.815   7.325 -0.3304  0.8558  0.2068
10381SOL     OW32819   2.959   3.420   7.814 -0.3674 -0.2327  0.0764
10381SOL    HW132820   3.034   3.379   7.772  1.1912  3.1450 -0.5766
10381SOL    HW232821   2.994   3.500   7.852 -3.4539  0.8883  0.6763
10382SOL     OW32822   5.246   7.031   7.208  0.3883  0.4188  0.1544
10382SOL    HW132823   5.167   6.989   7.242  0.5134  0.5405  0.5885
10382SOL    HW232824   5.305   6.958   7.189  1.6967  0.5296  3.5790
10383SOL     OW32825   7.104   5.520   4.559  0.3511 -0.3095  0.2429
10383SOL    HW132826   7.161   5.596   4.561  1.6690 -1.3067  1.2705
10383SOL    HW232827   7.079   5.511   4.467  1.3039  0.5304 -0.0982
10384SOL     OW32828   7.181   1.587   1.358  0.1254 -0.5357  0.0025
10384SOL    HW132829   7.210   1.583   1.449  1.2791  1.8147 -0.2419
10384SOL    HW232830   7.150   1.677   1.346 -1.0474 -1.1216 -1.6368
10385SOL     OW32831   8.436   8.487   2.646 -0.2741  0.0064 -0.3825
10385SOL    HW132832   8.444   8.395   2.622 -1.6766 -0.7386  1.7756
10385SOL    HW232833   8.499   8.533   2.591  0.4361 -2.2505 -1.4868
10386SOL     OW32834   5.253   3.057   3.206 -0.1254  0.9965 -0.1758
10386SOL    HW132835   5.307   3.058   3.127  1.0356  1.3137  0.6178
10386SOL    HW232836   5.315   3.046   3.278 -1.1270  1.2351  0.7372
10387SOL     OW32837   1.155   8.174   8.123 -0.0963  0.1520 -0.2476
10387SOL    HW132838   1.240   8.156   8.082 -1.0615 -2.8979 -1.0136
10387SOL    HW232839   1.143   8.102   8.185 -2.8349 -0.3512 -1.3021
10388SOL     OW32840   7.544   3.639   7.588  0.2462  0.1219  0.1496
10388SOL    HW132841   7.451   3.663   7.592  0.6645  1.8589 -0.0445
10388SOL    HW232842   7.572   3.636   7.679 -0.5557 -2.7790  0.3432
10389SOL     OW32843   6.224   7.403   1.007  0.0345  0.2262  0.1012
10389SOL    HW132844   6.214   7.338   1.077 -0.7024  0.8177  0.5560
10389SOL    HW232845   6.135   7.416   0.973  0.3634  0.0650 -0.8386
10390SOL     OW32846   3.838   5.910   2.565  0.5608 -0.1132  0.3032
10390SOL    HW132847   3.839   5.901   2.660  2.8009  0.2125  0.3395
10390SOL    HW232848   3.752   5.876   2.538  0.2470 -0.9892  2.3520
10391SOL     OW32849   8.277   1.766   1.589 -0.2548 -0.5272 -0.2543
10391SOL    HW132850   8.342   1.836   1.598 -0.9588  0.2316 -1.0093
10391SOL    HW232851   8.243   1.753   1.677  0.9513 -0.9687  0.1631
10392SOL     OW32852   8.532   1.182   2.612 -0.0087 -0.3434 -0.0081
10392SOL    HW132853   8.616   1.204   2.571 -1.0101 -0.5251 -2.2418
10392SOL    HW232854   8.508   1.260   2.662  0.5798  0.4425 -0.9293
10393SOL     OW32855   7.848   7.448   3.084  0.5496  0.3085 -0.9228
10393SOL    HW132856   7.814   7.456   3.174  1.8096  0.2899 -0.4387
10393SOL    HW232857   7.943   7.449   3.094  0.7111 -1.1646 -2.1382
10394SOL     OW32858   7.800   0.716   3.624 -0.9987  0.3749 -0.7341
10394SOL    HW132859   7.747   0.716   3.704  0.6737 -0.6603  0.4162
10394SOL    HW232860   7.827   0.808   3.614  0.3250  0.2003  0.9762
10395SOL     OW32861   3.549   0.413   6.360 -0.1502  0.4173  0.1169
10395SOL    HW132862   3.556   0.325   6.398 -0.0938  0.3683 -0.0060
10395SOL    HW232863   3.519   0.398   6.270 -0.0855  0.5206  0.0782
10396SOL     OW32864   3.758   7.781   2.703  0.4086  0.4198 -0.4865
10396SOL    HW132865   3.760   7.705   2.760  1.9607  0.0703 -0.9870
10396SOL    HW232866   3.740   7.745   2.616  3.2912  0.3467 -1.1023
10397SOL     OW32867   5.149   1.119   7.891  0.4932  0.4878  0.2431
10397SOL    HW132868   5.113   1.157   7.971  0.5862 -1.3049  1.1563
10397SOL    HW232869   5.218   1.060   7.921  1.3002  0.6357 -1.2359
10398SOL     OW32870   6.716   2.640   4.956 -0.3059 -0.0482  0.1275
10398SOL    HW132871   6.765   2.560   4.973 -2.1354 -0.8286  1.8923
10398SOL    HW232872   6.722   2.690   5.038 -0.5921  0.8413 -0.3873
10399SOL     OW32873   6.795   7.349   4.036  0.2333 -0.5076  0.3169
10399SOL    HW132874   6.736   7.281   4.003  0.2289 -0.9745  1.2609
10399SOL    HW232875   6.752   7.431   4.013  1.1030 -0.7660 -2.4352
10400SOL     OW32876   0.554   2.381   7.844 -0.4293 -0.0985  0.4901
10400SOL    HW132877   0.492   2.327   7.893 -1.9498 -0.3277 -1.6022
10400SOL    HW232878   0.616   2.318   7.807 -1.4239 -0.3178 -0.8506
10401SOL     OW32879   9.149   4.596   3.817 -0.2618  0.1328  0.1558
10401SOL    HW132880   9.229   4.555   3.848 -0.4768  0.3317  1.0076
10401SOL    HW232881   9.111   4.534   3.755 -0.0391 -0.4729  0.6267
10402SOL     OW32882   4.981   2.706   7.652 -0.3820 -0.2471 -0.6222
10402SOL    HW132883   4.998   2.737   7.563  1.0888  1.0222  0.0908
10402SOL    HW232884   4.885   2.712   7.660 -0.4411  0.6682 -1.7458
10403SOL     OW32885   8.859   2.988   4.682  0.4619  0.0020 -0.3971
10403SOL    HW132886   8.854   2.929   4.757  0.7682  1.4399  0.7902
10403SOL    HW232887   8.952   2.999   4.666  0.4032  0.0244 -0.7127
10404SOL     OW32888   9.287   8.376   3.756  0.2078  0.7038  0.4201
10404SOL    HW132889   9.326   8.385   3.843 -2.2918 -0.3546  1.6826
10404SOL    HW232890   9.298   8.284   3.734  0.2434  0.8329 -0.1122
10405SOL     OW32891   7.905   3.970   2.955  0.5368  0.4474  0.1468
10405SOL    HW132892   7.870   3.985   3.043  0.5065 -0.1013  0.2326
10405SOL    HW232893   7.994   4.006   2.958  0.8820 -0.4279  0.7028
10406SOL     OW32894   8.198   8.221   0.458  0.1960 -0.3458 -0.5678
10406SOL    HW132895   8.103   8.222   0.467 -0.0318 -0.1745 -2.6612
10406SOL    HW232896   8.213   8.217   0.363  2.2286 -3.2708 -0.2248
10407SOL     OW32897   3.878   4.581   3.958  0.1336  0.0278 -0.2257
10407SOL    HW132898   3.887   4.675   3.940 -1.1008  0.1390 -0.3687
10407SOL    HW232899   3.944   4.562   4.024 -1.7952  1.7400  2.3452
10408SOL     OW32900   6.691   6.990   5.774  0.4788 -0.2457 -0.2951
10408SOL    HW132901   6.745   6.926   5.821  0.1447  0.3746  0.9817
10408SOL    HW232902   6.738   7.073   5.784  0.0770  0.0102 -0.5180
10409SOL     OW32903   2.065   5.651   0.308 -0.3043  0.1821 -0.0673
10409SOL    HW132904   2.103   5.653   0.396 -1.4489 -1.0696  0.4726
10409SOL    HW232905   1.995   5.586   0.313 -0.2388 -0.0746 -1.9779
10410SOL     OW32906   0.580   5.770   6.600  0.3525  0.0295 -0.2462
10410SOL    HW132907   0.551   5.680   6.616  0.7149  0.1336  1.0535
10410SOL    HW232908   0.653   5.782   6.661 -1.1507  1.9664  1.2001
10411SOL     OW32909   1.139   9.215   3.851 -0.1246 -0.0199  0.1546
10411SOL    HW132910   1.065   9.273   3.831  0.1028  0.6692  1.2507
10411SOL    HW232911   1.102   9.148   3.908 -0.7207 -1.8495 -2.2995
10412SOL     OW32912   9.016   8.437   0.814  0.1553  0.2713  0.1327
10412SOL    HW132913   8.959   8.369   0.778 -1.4882  0.3154  2.5528
10412SOL    HW232914   8.973   8.519   0.791 -0.7935  0.3060  1.9426
10413SOL     OW32915   9.285   6.286   5.957  0.2515 -0.3665 -0.4304
10413SOL    HW132916   9.344   6.326   6.020 -0.7842  0.2465  0.1712
10413SOL    HW232917   9.342   6.252   5.889  1.2259  1.2038 -0.4242
10414SOL     OW32918   5.099   5.444   2.826 -0.6638  0.4715  0.1506
10414SOL    HW132919   5.174   5.427   2.883  1.1517  0.7718 -2.0642
10414SOL    HW232920   5.070   5.357   2.797  1.9291  0.4667 -2.7687
10415SOL     OW32921   3.050   4.837   0.517  0.3990  0.6634  0.0201
10415SOL    HW132922   3.019   4.926   0.500 -0.8493  0.3951  0.8037
10415SOL    HW232923   2.970   4.788   0.539  1.2492 -0.3239  0.9531
10416SOL     OW32924   2.464   7.047   2.745  0.1767  0.5228 -0.1691
10416SOL    HW132925   2.435   6.956   2.741  0.7108  0.3812 -1.0868
10416SOL    HW232926   2.558   7.043   2.725  0.1100  1.3232 -0.6679
10417SOL     OW32927   5.641   4.973   7.667 -0.5057  0.0685 -0.6910
10417SOL    HW132928   5.623   5.056   7.711  0.6078 -0.2563  0.4000
10417SOL    HW232929   5.726   4.986   7.624 -0.4893 -0.3901 -0.8028
10418SOL     OW32930   5.356   0.434   0.536 -0.3311  0.3831  0.2545
10418SOL    HW132931   5.364   0.340   0.523  0.2201  0.8203 -2.9857
10418SOL    HW232932   5.274   0.445   0.583 -0.9285 -1.6685 -0.2629
10419SOL     OW32933   0.427   3.741   5.910 -0.2888  0.0732 -0.5107
10419SOL    HW132934   0.453   3.691   5.833 -0.2929  0.3685 -0.7021
10419SOL    HW232935   0.376   3.814   5.876 -2.4919 -1.2034 -0.0548
10420SOL     OW32936   7.199   2.356   8.083  0.1538 -0.0740 -0.5576
10420SOL    HW132937   7.112   2.347   8.044  0.0891  0.6075 -0.5793
10420SOL    HW232938   7.228   2.266   8.099 -0.6021 -0.2986 -0.4435
10421SOL     OW32939   1.872   8.089   1.002  0.6371 -0.3743  0.2414
10421SOL    HW132940   1.797   8.144   0.979  1.7017  0.7864 -0.5258
10421SOL    HW232941   1.868   8.015   0.941  0.6457  0.1756 -0.4311
10422SOL     OW32942   4.097   5.721   4.047  0.3013 -0.0755  0.2677
10422SOL    HW132943   4.105   5.634   4.085 -0.4303 -0.6275 -0.7825
10422SOL    HW232944   4.012   5.719   4.002 -0.2702  1.5743  1.2321
10423SOL     OW32945   7.515   0.170   9.041  0.6313 -0.0781 -0.0825
10423SOL    HW132946   7.607   0.147   9.051  0.2968 -1.7234 -0.5687
10423SOL    HW232947   7.476   0.095   8.996 -1.1673  0.1252  1.0484
10424SOL     OW32948   7.247   6.359   9.266  0.4775  0.2243 -0.6972
10424SOL    HW132949   7.242   6.351   9.170 -0.5279 -0.0665 -0.6261
10424SOL    HW232950   7.252   6.453   9.281  2.5994  0.2193 -1.1063
10425SOL     OW32951   3.125   9.194   0.522 -0.3547  0.2285  0.1645
10425SOL    HW132952   3.141   9.119   0.465  0.0092 -1.1456  2.0225
10425SOL    HW232953   3.164   9.268   0.476 -0.3510 -0.7967 -1.5012
10426SOL     OW32954   3.023   4.492   4.405 -0.0357 -0.2700 -0.0048
10426SOL    HW132955   3.017   4.414   4.460 -0.9746  0.9323  1.6404
10426SOL    HW232956   3.117   4.502   4.388  0.1823 -1.1333  0.6680
10427SOL     OW32957   7.694   0.505   3.981  0.6347  0.0803  0.3612
10427SOL    HW132958   7.668   0.591   3.947 -0.9832 -0.9081 -1.0124
10427SOL    HW232959   7.789   0.512   3.995  1.1996  0.9937 -3.2189
10428SOL     OW32960   6.441   8.300   0.064 -0.2109  0.0664 -0.1288
10428SOL    HW132961   6.522   8.258   0.094 -1.0627 -1.6388 -0.1684
10428SOL    HW232962   6.378   8.282   0.133 -0.5601  1.4369 -0.0769
10429SOL     OW32963   1.104   5.896   8.090  0.5895 -0.3127  0.0943
10429SOL    HW132964   1.195   5.900   8.063  0.5173  1.2506  0.0241
10429SOL    HW232965   1.090   5.805   8.116  2.0702 -0.6319 -0.2030
10430SOL     OW32966   7.859   4.643   1.767 -0.2186 -0.4273  0.3121
10430SOL    HW132967   7.911   4.638   1.847 -3.2389  0.6890  2.4218
10430SOL    HW232968   7.860   4.735   1.742 -0.3260 -0.5719 -0.2535
10431SOL     OW32969   0.466   4.803   4.831 -0.0577  0.1345  0.6450
10431SOL    HW132970   0.399   4.792   4.764  0.8992 -0.4803 -0.2241
10431SOL    HW232971   0.539   4.844   4.785  0.3164  0.4448  1.4996
10432SOL     OW32972   0.853   7.844   6.080  0.1412  0.2719  0.0041
10432SOL    HW132973   0.820   7.906   6.015  2.2223 -0.6507 -1.9690
10432SOL    HW232974   0.924   7.892   6.124 -0.7557  0.6134  1.1311
10433SOL     OW32975   4.003   6.123   9.280  0.2353  0.4842  0.5721
10433SOL    HW132976   3.919   6.143   9.237  1.4799  2.5149 -0.9808
10433SOL    HW232977   3.981   6.056   9.344 -2.5820  0.9079  0.1255
10434SOL     OW32978   1.146   2.158   8.441 -0.1359 -0.0061 -0.3012
10434SOL    HW132979   1.160   2.171   8.347 -1.3443  0.1362 -0.4720
10434SOL    HW232980   1.179   2.239   8.481  0.7619 -0.2393 -0.5636
10435SOL     OW32981   6.112   7.908   6.493 -0.1041 -0.2829 -0.1154
10435SOL    HW132982   6.071   7.823   6.480 -0.5516 -0.1682  0.5504
10435SOL    HW232983   6.121   7.917   6.588 -0.6524  0.6953 -0.1454
10436SOL     OW32984   8.901   2.920   3.570 -0.3215 -0.4182  0.3357
10436SOL    HW132985   8.870   3.011   3.574 -0.0774 -0.3616  1.1187
10436SOL    HW232986   8.828   2.872   3.531 -1.5900 -0.3586  2.5317
10437SOL     OW32987   5.219   0.303   7.010 -0.2217  0.1299 -0.0032
10437SOL    HW132988   5.127   0.325   7.027 -0.4461  0.6842 -1.8121
10437SOL    HW232989   5.218   0.208   6.992 -0.3303  0.0010  0.6732
10438SOL     OW32990   4.440   1.165   5.367 -0.6182 -0.2949  0.8651
10438SOL    HW132991   4.481   1.081   5.350 -0.5295 -0.2255  0.7295
10438SOL    HW232992   4.463   1.185   5.458  0.4613  0.1903  0.5047
10439SOL     OW32993   6.402   5.076   8.330  0.3809  0.1282 -0.4100
10439SOL    HW132994   6.385   5.026   8.250  1.1004 -1.8250  0.6111
10439SOL    HW232995   6.476   5.133   8.307  1.1482 -1.0449 -0.9066
10440SOL     OW32996   6.078   2.963   6.044 -0.3835  0.0263 -0.4001
10440SOL    HW132997   6.079   2.877   6.002 -1.4774 -0.7767  1.1529
10440SOL    HW232998   5.985   2.981   6.057 -0.0635  0.1630  1.8181
10441SOL     OW32999   0.388   7.020   2.379  0.1159  0.6989 -0.0303
10441SOL    HW133000   0.335   6.989   2.453  0.9127  1.7783  1.0080
10441SOL    HW233001   0.471   7.048   2.419 -0.1113  2.9643 -1.0886
10442SOL     OW33002   5.328   7.392   2.844 -0.6147 -0.9636  0.0498
10442SOL    HW133003   5.236   7.373   2.825 -1.2456  0.0718  1.9373
10442SOL    HW233004   5.352   7.459   2.780 -1.6772 -0.0214  0.6182
10443SOL     OW33005   6.458   5.431   8.193  0.0176  0.2184 -0.1816
10443SOL    HW133006   6.481   5.509   8.243 -1.1370  0.5064 -0.0874
10443SOL    HW233007   6.507   5.360   8.234  1.3276  0.9421 -0.4697
10444SOL     OW33008   0.675   1.338   3.839 -0.9639  0.2355 -0.7133
10444SOL    HW133009   0.721   1.379   3.766 -0.1643  0.8395  0.1254
10444SOL    HW233010   0.607   1.401   3.864  0.5870  1.2966  0.9022
10445SOL     OW33011   3.668   6.782   6.833  0.4404 -0.1733 -0.2978
10445SOL    HW133012   3.700   6.868   6.804  0.4626 -0.1387 -0.1684
10445SOL    HW233013   3.702   6.721   6.768  2.4969 -0.4230  0.9763
10446SOL     OW33014   1.683   9.100   6.027 -0.2933  0.5096 -0.2330
10446SOL    HW133015   1.653   9.133   6.112 -0.5192  0.5273 -0.3171
10446SOL    HW233016   1.728   9.174   5.987 -0.2096  0.5103 -0.1380
10447SOL     OW33017   2.707   8.499   0.726  0.0806  0.6345  0.0535
10447SOL    HW133018   2.781   8.559   0.721  0.7928 -0.3778 -1.8186
10447SOL    HW233019   2.693   8.470   0.635 -2.4765  0.6723  0.4009
10448SOL     OW33020   7.085   6.951   4.677 -0.4006 -0.5905 -0.5416
10448SOL    HW133021   7.026   7.025   4.662  1.9674  1.7639  1.2305
10448SOL    HW233022   7.171   6.984   4.652  0.6938 -2.8445  0.1374
10449SOL     OW33023   3.810   3.406   8.669  0.0356  0.0010 -0.1398
10449SOL    HW133024   3.838   3.460   8.595 -0.4961  0.6112  0.1046
10449SOL    HW233025   3.731   3.362   8.638  0.1609 -0.2192 -0.1469
10450SOL     OW33026   8.833   1.626   9.227 -0.1310  0.0739  0.4484
10450SOL    HW133027   8.869   1.541   9.202  0.0543 -0.0101  1.0000
10450SOL    HW233028   8.842   1.628   9.322 -2.2975 -0.2868  0.6852
10451SOL     OW33029   0.421   8.452   1.511 -0.6336 -0.4529  0.0981
10451SOL    HW133030   0.336   8.425   1.547 -0.6607 -0.6732 -0.1287
10451SOL    HW233031   0.478   8.378   1.530 -0.2087  0.1573  1.2578
10452SOL     OW33032   6.438   2.772   3.208  0.7115  0.4930 -0.4085
10452SOL    HW133033   6.521   2.725   3.201  0.5080  0.3979 -2.2684
10452SOL    HW233034   6.459   2.849   3.261  1.6018 -0.3846  0.5421
10453SOL     OW33035   0.805   5.193   3.488  0.3021  0.9156 -0.8040
10453SOL    HW133036   0.838   5.171   3.575 -3.0017  2.0327  0.8019
10453SOL    HW233037   0.851   5.274   3.465 -0.7569  2.0885  1.0976
10454SOL     OW33038   0.400   4.601   0.426 -0.3506 -0.7451 -0.2153
10454SOL    HW133039   0.449   4.662   0.481 -1.6958 -1.4784  1.8532
10454SOL    HW233040   0.467   4.548   0.382  0.7546  0.4106  0.0559
10455SOL     OW33041   4.475   2.027   4.830  0.4859  0.2684 -0.0180
10455SOL    HW133042   4.432   1.969   4.893 -0.0687  1.3094  0.5759
10455SOL    HW233043   4.501   1.969   4.758  0.9401 -0.9006  1.0641
10456SOL     OW33044   0.268   1.380   5.084  0.4019 -0.1133 -0.3003
10456SOL    HW133045   0.286   1.367   4.991  1.1745 -1.4294  0.0111
10456SOL    HW233046   0.297   1.470   5.102 -1.1284  0.6622 -1.6370
10457SOL     OW33047   3.021   8.927   1.339 -0.8630 -0.1235 -0.3698
10457SOL    HW133048   3.036   8.933   1.245 -2.4746  0.2641 -0.6304
10457SOL    HW233049   3.081   8.990   1.378 -0.6093  0.1467 -1.1984
10458SOL     OW33050   8.347   0.962   3.117 -0.8354 -0.2073 -1.4029
10458SOL    HW133051   8.411   1.031   3.134  0.6256 -2.3558  2.2617
10458SOL    HW233052   8.266   0.995   3.156 -1.0112  0.8175 -2.5890
10459SOL     OW33053   5.173   4.088   3.521 -0.0163  0.6188 -0.0068
10459SOL    HW133054   5.268   4.088   3.511 -0.0521  2.4525 -0.4034
10459SOL    HW233055   5.155   4.011   3.575  1.4235 -1.5107 -2.4193
10460SOL     OW33056   7.363   8.869   4.262  0.0937 -0.0953 -0.0859
10460SOL    HW133057   7.400   8.954   4.239  2.7376 -1.4426 -0.9868
10460SOL    HW233058   7.309   8.845   4.186 -1.4354  1.1702  0.5704
10461SOL     OW33059   3.733   1.997   1.342  0.3983  0.4788  0.3402
10461SOL    HW133060   3.776   1.998   1.428 -0.0218  1.3944  0.5409
10461SOL    HW233061   3.802   1.969   1.282  1.0946  1.2566  0.7593
10462SOL     OW33062   3.615   5.294   4.600 -0.5335 -0.3649 -0.4871
10462SOL    HW133063   3.560   5.351   4.654  0.0267 -0.5787  0.3177
10462SOL    HW233064   3.692   5.347   4.579 -1.0208 -0.0686 -1.6093
10463SOL     OW33065   0.215   0.092   1.233  0.1113 -0.1246  0.2974
10463SOL    HW133066   0.215   0.176   1.279 -1.5412  0.1467 -0.1546
10463SOL    HW233067   0.175   0.031   1.295 -1.7564  0.1597 -0.5765
10464SOL     OW33068   8.131   4.950   3.533  0.3697  0.4316 -0.8829
10464SOL    HW133069   8.195   4.992   3.590 -0.3851  2.3675 -1.4017
10464SOL    HW233070   8.142   4.995   3.448 -0.2896 -0.5993 -1.5257
10465SOL     OW33071   3.513   3.942   3.093  0.3528  0.2465 -0.1014
10465SOL    HW133072   3.457   3.878   3.137 -0.6341  0.6628 -0.7304
10465SOL    HW233073   3.538   4.004   3.161 -2.4922  1.8117 -0.4114
10466SOL     OW33074   7.300   2.234   4.788 -0.3365  0.1614 -0.3229
10466SOL    HW133075   7.389   2.268   4.798 -0.0408 -0.2946 -1.3639
10466SOL    HW233076   7.244   2.308   4.811  0.2845  0.0358  1.7698
10467SOL     OW33077   2.624   0.674   6.916  0.0385 -0.1095  0.5367
10467SOL    HW133078   2.717   0.677   6.940  0.1431 -0.6332  0.1902
10467SOL    HW233079   2.622   0.626   6.833 -0.6034 -0.6246  0.8486
10468SOL     OW33080   0.087   1.219   3.712 -0.1419  0.1711 -0.1641
10468SOL    HW133081   0.130   1.134   3.713  1.5524  1.0109  1.1766
10468SOL    HW233082   0.158   1.283   3.706 -1.2953  1.5292  0.1478
10469SOL     OW33083   8.925   8.147   8.676  0.0440 -0.1092  0.2639
10469SOL    HW133084   8.850   8.092   8.651 -0.4788  1.5797 -1.9795
10469SOL    HW233085   8.994   8.122   8.615  0.5360  0.0899  0.7396
10470SOL     OW33086   5.953   1.562   6.737  0.0426 -0.3717  0.8746
10470SOL    HW133087   5.900   1.520   6.669  0.9752 -0.3038  0.0990
10470SOL    HW233088   5.982   1.489   6.793  0.9253 -0.6813  0.0373
10471SOL     OW33089   2.845   2.492   7.683 -0.1284 -0.1871  0.3747
10471SOL    HW133090   2.768   2.463   7.632 -0.2384 -1.0172  1.0028
10471SOL    HW233091   2.918   2.443   7.645  0.2434  1.2530 -0.7992
10472SOL     OW33092   3.453   3.994   4.188  0.2268 -0.5748 -0.1281
10472SOL    HW133093   3.524   3.972   4.249 -0.0010 -0.6363  0.1121
10472SOL    HW233094   3.495   4.052   4.124  1.0973 -2.5457 -1.3901
10473SOL     OW33095   3.791   3.298   6.182 -0.1403 -0.8236 -0.0787
10473SOL    HW133096   3.813   3.223   6.236 -0.0038 -0.5756  0.2128
10473SOL    HW233097   3.869   3.354   6.185 -0.4928 -0.3369  0.2891
10474SOL     OW33098   1.772   9.260   8.554 -0.0058  0.1173 -0.2263
10474SOL    HW133099   1.683   9.288   8.535  0.1473  1.1400  0.4889
10474SOL    HW233100   1.824   9.341   8.547  0.9121 -0.5213 -0.9467
10475SOL     OW33101   7.055   4.173   8.933 -0.1507 -0.0332  0.0229
10475SOL    HW133102   7.003   4.246   8.967 -0.1650  0.2359 -0.5724
10475SOL    HW233103   7.070   4.117   9.009  0.1466  0.7586  0.5564
10476SOL     OW33104   7.120   1.006   5.225 -0.0790 -0.2983 -0.4563
10476SOL    HW133105   7.076   1.017   5.309  3.0810  2.1150  0.9806
10476SOL    HW233106   7.084   1.076   5.170 -0.2827 -0.2828 -0.3041
10477SOL     OW33107   1.895   7.204   1.915  0.0146 -0.2464 -0.8015
10477SOL    HW133108   1.858   7.132   1.965  0.4343  0.3351  0.3637
10477SOL    HW233109   1.899   7.171   1.825 -1.8748 -0.8697 -0.6870
10478SOL     OW33110   4.438   7.605   8.442 -0.5580 -0.8244 -0.1538
10478SOL    HW133111   4.530   7.631   8.433 -1.0927  1.5430  0.8167
10478SOL    HW233112   4.389   7.679   8.407 -2.1173 -2.0195 -0.5456
10479SOL     OW33113   8.610   0.097   8.480  0.5526  0.2589 -0.4495
10479SOL    HW133114   8.582   0.033   8.546  0.6135  1.4503  0.7579
10479SOL    HW233115   8.663   0.047   8.419  0.4808 -0.8795  0.4103
10480SOL     OW33116   2.075   2.542   0.486 -0.2376  0.1258 -0.1859
10480SOL    HW133117   2.154   2.595   0.476 -0.4026  0.0535 -2.0210
10480SOL    HW233118   2.094   2.484   0.561  1.1744  0.5599 -0.1959
10481SOL     OW33119   3.513   5.388   8.424  0.6144  0.1269 -0.4278
10481SOL    HW133120   3.568   5.444   8.478  1.9039 -1.4635 -0.0552
10481SOL    HW233121   3.567   5.366   8.348  0.3583 -1.1085 -0.2637
10482SOL     OW33122   8.706   3.634   0.243 -0.4202 -0.7287  0.4695
10482SOL    HW133123   8.615   3.661   0.250 -1.2371 -2.4237 -2.7383
10482SOL    HW233124   8.747   3.665   0.324 -3.2774  2.1560  0.8815
10483SOL     OW33125   6.394   1.690   5.721 -0.8710 -0.0954  0.1379
10483SOL    HW133126   6.420   1.686   5.814  0.3820 -2.4324 -0.2770
10483SOL    HW233127   6.445   1.621   5.679 -2.0914  0.3619 -2.1609
10484SOL     OW33128   9.273   6.377   1.877 -0.1621  0.6240  0.2784
10484SOL    HW133129   9.321   6.408   1.954  0.6367  1.8571 -0.7095
10484SOL    HW233130   9.340   6.354   1.814 -0.8298 -0.0317 -0.2038
10485SOL     OW33131   5.228   3.233   2.485 -0.0095 -0.0265  0.0122
10485SOL    HW133132   5.300   3.186   2.443  1.1944  1.9347 -0.1689
10485SOL    HW233133   5.180   3.273   2.412  0.4207  1.0312  0.2953
10486SOL     OW33134   9.095   6.955   2.362 -0.4696  0.0414  0.5367
10486SOL    HW133135   9.090   6.989   2.451 -1.3589 -0.0864  0.5394
10486SOL    HW233136   9.178   6.907   2.359 -0.8632 -0.7307  1.5659
10487SOL     OW33137   7.277   6.194   8.590  0.4542 -0.2849 -0.6098
10487SOL    HW133138   7.209   6.188   8.657  0.6089  0.5641 -0.3572
10487SOL    HW233139   7.351   6.146   8.626  0.1224 -0.8784 -0.7134
10488SOL     OW33140   8.866   5.749   8.101 -0.0833  0.2116 -0.1449
10488SOL    HW133141   8.821   5.732   8.183  0.4978  1.0362  0.3550
10488SOL    HW233142   8.827   5.689   8.038  0.4135 -1.3878  1.0587
10489SOL     OW33143   1.487   6.977   5.184 -0.2035 -0.2491  0.8722
10489SOL    HW133144   1.522   6.985   5.273 -1.6104  0.9196  1.3338
10489SOL    HW233145   1.407   7.028   5.185 -0.5667 -0.7540 -0.9100
10490SOL     OW33146   4.287   0.061   5.552  0.2744  0.0487 -0.2288
10490SOL    HW133147   4.368   0.078   5.503  0.9890  1.3967  1.3616
10490SOL    HW233148   4.291   0.121   5.627 -2.0776 -0.0669  0.0335
10491SOL     OW33149   3.345   0.159   6.154  0.2738 -0.0920  0.4227
10491SOL    HW133150   3.375   0.249   6.140  1.9743 -0.8731 -1.1374
10491SOL    HW233151   3.332   0.124   6.066 -1.2365 -1.1005  1.0321
10492SOL     OW33152   7.155   0.335   4.824  0.3101 -0.0166 -0.0586
10492SOL    HW133153   7.226   0.394   4.847 -0.9276  1.3019  0.5058
10492SOL    HW233154   7.184   0.249   4.854  2.0792  0.3156 -0.7593
10493SOL     OW33155   5.128   6.876   7.545  0.3799 -0.2372 -0.0716
10493SOL    HW133156   5.206   6.916   7.584  0.5232 -1.8155  1.3271
10493SOL    HW233157   5.163   6.810   7.485  0.1171 -0.4003 -0.0419
10494SOL     OW33158   5.619   6.183   7.334 -0.8818  0.8651  0.5005
10494SOL    HW133159   5.542   6.143   7.374 -0.3008 -0.7657  0.0271
10494SOL    HW233160   5.648   6.249   7.397 -2.1780  0.9068  1.0490
10495SOL     OW33161   0.288   4.158   0.991  0.1976 -0.0102  0.1556
10495SOL    HW133162   0.205   4.160   1.040  0.1881  1.0084  0.1086
10495SOL    HW233163   0.351   4.120   1.053 -0.0965  0.0813  0.5141
10496SOL     OW33164   8.362   1.678   3.270  0.0286  0.0654 -0.1185
10496SOL    HW133165   8.449   1.696   3.306  0.1308  0.8020 -0.7130
10496SOL    HW233166   8.345   1.587   3.293  0.8870 -0.0335  0.1520
10497SOL     OW33167   2.386   0.577   1.922 -0.0727 -0.0203  0.4454
10497SOL    HW133168   2.469   0.553   1.880 -0.0590  2.6638 -1.1653
10497SOL    HW233169   2.319   0.532   1.869  0.0941  1.4926 -1.1050
10498SOL     OW33170   9.193   1.969   4.303  0.3543  0.5029 -0.0766
10498SOL    HW133171   9.145   1.890   4.276 -0.0895  0.7255  0.0546
10498SOL    HW233172   9.130   2.040   4.291  0.9062  0.8986 -0.6380
10499SOL     OW33173   3.875   1.796   6.030  0.1113 -0.0446  0.4849
10499SOL    HW133174   3.969   1.805   6.015  0.0445  1.1337  0.6953
10499SOL    HW233175   3.863   1.706   6.060  1.0536 -0.4710 -0.4161
10500SOL     OW33176   2.231   6.290   6.029 -0.1662 -0.3866 -0.0539
10500SOL    HW133177   2.320   6.256   6.032 -0.4926 -1.1911  0.6147
10500SOL    HW233178   2.184   6.231   5.970 -0.0405  0.5758 -1.1428
10501SOL     OW33179   5.753   3.543   7.640  0.2641 -0.0619 -0.1494
10501SOL    HW133180   5.825   3.480   7.632 -0.0993 -0.3769 -0.9251
10501SOL    HW233181   5.756   3.569   7.732  1.7974  0.4309 -0.3125
10502SOL     OW33182   8.846   3.943   8.503 -0.1712 -0.3363  0.0245
10502SOL    HW133183   8.784   3.984   8.563  0.6489  0.0050  0.6562
10502SOL    HW233184   8.812   3.854   8.490 -2.1573  0.6255 -1.6291
10503SOL     OW33185   7.487   8.386   0.957  0.1466 -0.1960  0.0710
10503SOL    HW133186   7.427   8.329   0.909  0.8868 -1.4541  0.6165
10503SOL    HW233187   7.574   8.357   0.932  0.5520 -1.0472  2.3519
10504SOL     OW33188   8.591   3.365   1.913 -0.5121 -0.1034  0.0265
10504SOL    HW133189   8.591   3.343   1.820 -0.8700  0.6222 -0.1494
10504SOL    HW233190   8.511   3.417   1.925  0.6196  1.6024  0.3181
10505SOL     OW33191   1.667   2.250   7.141 -0.1301 -0.1580 -0.1565
10505SOL    HW133192   1.592   2.265   7.083  1.8580  2.5742 -2.1513
10505SOL    HW233193   1.705   2.168   7.109  0.3353  0.7763 -2.0926
10506SOL     OW33194   6.286   5.305   9.050  0.2151  0.5133  0.2464
10506SOL    HW133195   6.379   5.286   9.041  0.1891  0.6218 -0.2877
10506SOL    HW233196   6.261   5.340   8.964 -0.6134 -0.7309 -0.0270
10507SOL     OW33197   3.033   9.241   1.465 -0.1833  0.1788 -0.2625
10507SOL    HW133198   3.093   9.290   1.410  0.4997 -0.2697  0.0730
10507SOL    HW233199   2.960   9.218   1.407  0.2506  0.2156 -0.8261
10508SOL     OW33200   6.448   1.606   6.241  0.0838 -0.5767 -0.3235
10508SOL    HW133201   6.420   1.682   6.291 -1.8328 -1.0057 -0.6978
10508SOL    HW233202   6.423   1.531   6.295  0.2321 -0.9875 -0.8206
10509SOL     OW33203   6.458   6.578   8.501  0.1716 -0.6305  0.5202
10509SOL    HW133204   6.389   6.643   8.513  0.8667  0.5831 -1.7418
10509SOL    HW233205   6.539   6.626   8.516  0.6797 -1.0210 -0.8853
10510SOL     OW33206   0.334   0.413   7.977  0.2450 -0.1808  0.1139
10510SOL    HW133207   0.245   0.397   7.946 -0.7808  1.3549  2.1013
10510SOL    HW233208   0.376   0.459   7.905 -0.5449 -0.9731 -0.8733
10511SOL     OW33209   0.998   3.954   8.055 -0.3196  0.3768 -0.4341
10511SOL    HW133210   0.943   3.942   8.132  0.8786 -0.3314  0.3292
10511SOL    HW233211   0.940   3.934   7.981 -1.0984 -0.3028  0.3467
10512SOL     OW33212   6.321   0.830   0.494 -0.3106 -0.6701  0.0654
10512SOL    HW133213   6.327   0.864   0.404 -0.0430  2.1903  1.1079
10512SOL    HW233214   6.412   0.807   0.516  0.1770  1.7397  0.7139
10513SOL     OW33215   6.432   8.318   9.098  0.5194 -0.0765 -0.3860
10513SOL    HW133216   6.414   8.328   9.192  0.4562  1.0453 -0.5166
10513SOL    HW233217   6.516   8.361   9.085 -0.2455  1.2278 -1.1359
10514SOL     OW33218   6.883   1.753   4.905 -0.1303 -0.6895  0.3178
10514SOL    HW133219   6.892   1.711   4.820 -2.1578 -2.1164  0.7760
10514SOL    HW233220   6.820   1.699   4.952 -0.2394  0.9788  2.1483
10515SOL     OW33221   2.633   7.604   1.422 -0.6543 -0.3333 -0.4778
10515SOL    HW133222   2.639   7.574   1.513  1.1272 -1.0953 -0.8213
10515SOL    HW233223   2.692   7.680   1.418 -0.5265 -0.4626 -1.0553
10516SOL     OW33224   3.064   7.832   4.824  0.1023  0.4314 -0.3217
10516SOL    HW133225   3.045   7.822   4.731 -0.1635 -1.2602 -0.1032
10516SOL    HW233226   3.099   7.747   4.851 -3.8951 -0.6385  2.0508
10517SOL     OW33227   4.486   6.673   6.396 -0.7027  0.2985 -0.6839
10517SOL    HW133228   4.428   6.657   6.471  0.2670  0.6816  0.1598
10517SOL    HW233229   4.557   6.726   6.432  0.7160 -1.0398 -1.4769
10518SOL     OW33230   3.852   7.991   0.090 -0.6909  0.2119  0.1071
10518SOL    HW133231   3.914   7.928   0.126  0.5429  1.7349  0.6979
10518SOL    HW233232   3.907   8.057   0.048 -1.9318  1.2766  0.1336
10519SOL     OW33233   4.656   4.298   7.493 -0.1201 -0.4208 -0.1790
10519SOL    HW133234   4.749   4.292   7.515 -0.3854 -0.6885  0.8778
10519SOL    HW233235   4.646   4.384   7.453  0.6777 -0.5894 -0.7549
10520SOL     OW33236   8.967   4.192   4.900  0.0387  0.1565  0.2130
10520SOL    HW133237   9.005   4.224   4.982 -0.4962 -1.9562  1.3222
10520SOL    HW233238   8.873   4.207   4.910  0.0624  0.7525 -0.4250
10521SOL     OW33239   6.682   3.357   2.811  0.2231  0.0973 -0.0471
10521SOL    HW133240   6.761   3.324   2.768 -0.9741 -0.0653 -2.2203
10521SOL    HW233241   6.712   3.428   2.867  1.7655  0.7750 -1.7017
10522SOL     OW33242   8.019   0.789   3.247 -0.5033  0.2245 -0.3180
10522SOL    HW133243   7.949   0.801   3.183  0.0808  2.0900 -0.6278
10522SOL    HW233244   8.029   0.875   3.289 -0.0604 -0.6574  1.4409
10523SOL     OW33245   0.220   0.966   3.714 -0.6548 -0.1405 -0.3818
10523SOL    HW133246   0.309   0.933   3.726  0.2554  2.1535 -0.6031
10523SOL    HW233247   0.171   0.930   3.788  0.1669 -2.2522 -0.8058
10524SOL     OW33248   3.955   4.824   3.902 -0.0862 -0.7979 -0.2121
10524SOL    HW133249   4.015   4.785   3.838  0.8226 -0.5839  0.4982
10524SOL    HW233250   4.003   4.899   3.937 -0.3150 -1.2970  1.1969
10525SOL     OW33251   2.878   5.007   8.895  0.6378 -0.0203  0.1956
10525SOL    HW133252   2.841   5.094   8.906  1.8529  0.4295  0.8007
10525SOL    HW233253   2.857   4.961   8.976 -0.5647 -0.5144 -0.3791
10526SOL     OW33254   0.817   6.165   3.955  0.3069  0.8157 -0.3870
10526SOL    HW133255   0.764   6.223   4.009  1.3118  0.6238  0.8320
10526SOL    HW233256   0.777   6.079   3.966 -0.6366  1.0961 -1.4804
10527SOL     OW33257   2.471   3.638   7.901 -0.0782 -0.2044 -0.3026
10527SOL    HW133258   2.556   3.596   7.888  0.0904  0.3741 -1.0836
10527SOL    HW233259   2.412   3.593   7.841 -0.1603 -0.1079 -0.2945
10528SOL     OW33260   3.310   0.323   7.138 -0.0251 -0.0750  0.3074
10528SOL    HW133261   3.286   0.321   7.231 -0.6743  2.2956  0.2170
10528SOL    HW233262   3.405   0.327   7.138 -0.0713  1.0390  0.8889
10529SOL     OW33263   7.692   5.012   8.415  0.3335  0.0906  0.1815
10529SOL    HW133264   7.654   4.924   8.415  0.8892 -0.1482  0.5062
10529SOL    HW233265   7.623   5.068   8.451 -1.2482  0.3272 -2.9695
10530SOL     OW33266   8.150   8.474   0.784 -0.3269  0.1647 -0.9392
10530SOL    HW133267   8.071   8.507   0.828 -0.4408 -0.2358 -0.8405
10530SOL    HW233268   8.129   8.477   0.691 -0.8386 -0.9097 -0.8612
10531SOL     OW33269   3.031   5.006   3.294 -0.3091  0.3798 -0.0998
10531SOL    HW133270   2.992   4.927   3.257  1.8580 -1.0861  0.6654
10531SOL    HW233271   3.014   4.999   3.388  0.5039  0.4803  0.0519
10532SOL     OW33272   8.480   3.622   4.511 -0.3454  0.5754  0.9017
10532SOL    HW133273   8.502   3.714   4.526 -1.2837  0.8323  0.7894
10532SOL    HW233274   8.507   3.577   4.591  2.6017  0.4802 -0.0945
10533SOL     OW33275   7.607   0.577   6.606  0.6473 -0.2188  0.6456
10533SOL    HW133276   7.537   0.589   6.670  0.4496  0.1977  0.3570
10533SOL    HW233277   7.562   0.549   6.526  0.8435 -0.2797  0.5552
10534SOL     OW33278   0.311   2.069   2.225 -0.3419 -0.1344  0.1190
10534SOL    HW133279   0.395   2.073   2.271 -0.3431  0.0291  0.1095
10534SOL    HW233280   0.332   2.030   2.140 -0.1306  0.6423 -0.1949
10535SOL     OW33281   2.796   5.145   0.655  0.7611  0.4120  0.0948
10535SOL    HW133282   2.770   5.224   0.702 -0.6974 -0.6170  1.0482
10535SOL    HW233283   2.887   5.161   0.630  0.7028  2.0975  0.8867
10536SOL     OW33284   1.274   2.666   6.243  0.1576 -0.8074  0.2265
10536SOL    HW133285   1.367   2.654   6.260  1.1081  4.0763 -0.9781
10536SOL    HW233286   1.265   2.657   6.148 -0.7242 -1.6151  0.3687
10537SOL     OW33287   4.124   0.687   6.366  0.2181 -0.6271 -0.3758
10537SOL    HW133288   4.182   0.743   6.418 -0.3517  0.4169 -0.8396
10537SOL    HW233289   4.130   0.723   6.277 -2.5334  0.7048 -0.0935
10538SOL     OW33290   0.740   4.216   3.981  0.2362 -0.1084  0.6939
10538SOL    HW133291   0.700   4.140   3.939  0.2283  0.0729  0.3693
10538SOL    HW233292   0.667   4.263   4.021 -0.1327  1.1819 -1.4168
10539SOL     OW33293   3.993   1.179   3.667 -0.5660 -0.2307 -0.2128
10539SOL    HW133294   3.990   1.108   3.731 -0.8017  0.2734  0.3450
10539SOL    HW233295   4.051   1.147   3.598  3.2774  0.9075  2.3296
10540SOL     OW33296   6.616   2.644   4.482 -0.2025 -0.1032  0.2275
10540SOL    HW133297   6.557   2.621   4.410  1.9127 -1.6789 -1.0734
10540SOL    HW233298   6.608   2.572   4.544 -1.4630  0.8917  1.2485
10541SOL     OW33299   3.409   7.548   0.146 -0.1627  0.3077  0.4622
10541SOL    HW133300   3.489   7.575   0.101 -1.5555 -0.3607 -2.5364
10541SOL    HW233301   3.363   7.629   0.164  0.8953  0.6557  1.6547
10542SOL     OW33302   8.732   6.667   0.998 -0.2643  0.3136 -0.6270
10542SOL    HW133303   8.688   6.582   0.995 -1.2570  0.8143 -0.2927
10542SOL    HW233304   8.748   6.688   0.906 -1.3278  0.4464 -0.7819
10543SOL     OW33305   0.938   7.730   9.009  0.2813  0.3185 -0.3941
10543SOL    HW133306   0.904   7.723   8.919 -0.1383  0.0790 -0.2154
10543SOL    HW233307   0.960   7.641   9.034 -2.7334 -0.0972  0.9655
10544SOL     OW33308   7.590   8.776   0.228  0.1865  0.1473 -0.2014
10544SOL    HW133309   7.657   8.826   0.274 -1.0847  0.5446  1.2490
10544SOL    HW233310   7.519   8.838   0.213 -1.1605 -1.0654  1.0963
10545SOL     OW33311   3.814   1.335   7.263 -0.1691 -0.5618  0.5708
10545SOL    HW133312   3.834   1.250   7.303 -0.0702 -1.0614 -0.5005
10545SOL    HW233313   3.898   1.381   7.261  0.2954 -1.4315 -1.0952
10546SOL     OW33314   0.028   4.304   0.705 -0.0589  0.5215  0.9061
10546SOL    HW133315   0.066   4.216   0.701 -3.0358 -0.8003  0.1164
10546SOL    HW233316   0.102   4.363   0.696  1.7240 -1.9450 -1.0789
10547SOL     OW33317   0.987   8.045   3.563 -0.6388  0.2051  0.4725
10547SOL    HW133318   0.992   8.067   3.656 -1.1415 -0.1846  0.5954
10547SOL    HW233319   0.916   8.100   3.529  0.3173  1.2042  0.0645
10548SOL     OW33320   0.869   4.796   8.972 -0.7737  0.6080  0.3778
10548SOL    HW133321   0.790   4.842   8.943 -0.0089  1.7357  0.0242
10548SOL    HW233322   0.855   4.778   9.064 -2.0325 -0.4482 -0.0067
10549SOL     OW33323   0.356   1.665   4.188 -0.0224  0.2059 -0.1871
10549SOL    HW133324   0.302   1.599   4.145 -0.2798 -0.9771  1.8597
10549SOL    HW233325   0.446   1.634   4.177 -0.1024 -0.1967  0.2707
10550SOL     OW33326   4.532   4.744   2.875  0.0286  0.2025 -0.7017
10550SOL    HW133327   4.509   4.672   2.935  0.8200  0.6367  0.1397
10550SOL    HW233328   4.616   4.717   2.838  0.2080  0.5921 -0.5693
10551SOL     OW33329   1.482   6.817   8.444  0.5223  0.1092 -0.3908
10551SOL    HW133330   1.492   6.750   8.377 -3.1803 -2.7484  1.7444
10551SOL    HW233331   1.417   6.877   8.408 -0.5691 -0.7615  0.0935
10552SOL     OW33332   4.763   4.964   2.915 -0.1085  0.7547 -0.5394
10552SOL    HW133333   4.800   4.981   2.829  2.1867  0.4989  0.3638
10552SOL    HW233334   4.717   4.880   2.905  1.5851 -0.1336 -1.1125
10553SOL     OW33335   2.392   8.572   3.571  0.3565  0.1662  0.0934
10553SOL    HW133336   2.479   8.576   3.611  0.6916  0.6455 -0.6703
10553SOL    HW233337   2.408   8.589   3.478 -0.8798  3.0836  0.3684
10554SOL     OW33338   4.764   2.282   1.300  0.9190 -0.2230  0.1066
10554SOL    HW133339   4.769   2.337   1.378 -2.0195 -1.7691  1.5138
10554SOL    HW233340   4.704   2.328   1.242  0.2250 -0.8207  0.3384
10555SOL     OW33341   7.905   2.794   1.462 -0.4234 -0.3019 -0.4610
10555SOL    HW133342   7.884   2.701   1.467  1.0681 -0.6022  0.4653
10555SOL    HW233343   7.934   2.807   1.372 -2.1362 -0.4006 -1.0334
10556SOL     OW33344   4.514   0.828   8.155 -0.0830  0.4813 -0.5800
10556SOL    HW133345   4.522   0.880   8.074  3.3945  1.1802  0.1487
10556SOL    HW233346   4.542   0.888   8.224  0.5052 -1.2644  0.7096
10557SOL     OW33347   4.752   4.464   7.260  0.1667  1.0078  0.6696
10557SOL    HW133348   4.702   4.513   7.196  0.9530  1.8703  0.7071
10557SOL    HW233349   4.811   4.528   7.299  1.6931 -0.0882  0.2238
10558SOL     OW33350   5.135   5.427   3.722 -0.3554  0.3095 -0.6907
10558SOL    HW133351   5.188   5.424   3.802 -1.8149 -0.3046  0.2807
10558SOL    HW233352   5.186   5.377   3.658  0.1950 -0.3482  0.2441
10559SOL     OW33353   3.108   8.304   6.708 -0.6264  0.0105  0.3599
10559SOL    HW133354   3.056   8.304   6.628 -0.6208 -0.1107  0.3555
10559SOL    HW233355   3.198   8.321   6.678 -0.5813 -0.3105  0.3100
10560SOL     OW33356   1.177   3.034   5.844  0.0093 -0.0673  0.0556
10560SOL    HW133357   1.120   2.957   5.848  0.5889 -0.4584  0.8594
10560SOL    HW233358   1.265   3.000   5.859  0.8063  0.1682 -3.5501
10561SOL     OW33359   1.585   9.008   3.220  0.3145 -0.1345 -0.3965
10561SOL    HW133360   1.570   9.014   3.314  1.2550  0.5515 -0.2838
10561SOL    HW233361   1.676   8.978   3.212  0.4647  0.5091 -1.0875
10562SOL     OW33362   9.223   3.880   8.106 -0.4781  0.5719 -0.1880
10562SOL    HW133363   9.264   3.808   8.057 -0.9477  0.4843 -0.4553
10562SOL    HW233364   9.296   3.938   8.128 -0.3127  0.8352 -1.3711
10563SOL     OW33365   1.907   4.382   6.371 -0.2417  0.9462 -0.2063
10563SOL    HW133366   1.862   4.310   6.327 -2.7208  1.0868  2.0220
10563SOL    HW233367   1.966   4.340   6.433 -0.0647  0.8002 -0.4753
10564SOL     OW33368   5.345   9.027   7.459 -0.6564  0.1273 -0.2146
10564SOL    HW133369   5.389   9.054   7.378 -0.4552  0.9938  0.1841
10564SOL    HW233370   5.260   8.993   7.430  0.5033 -2.1796 -1.0669
10565SOL     OW33371   1.116   9.168   4.780 -0.1003  0.4907  0.3312
10565SOL    HW133372   1.210   9.177   4.766  0.1875 -0.5142  1.5409
10565SOL    HW233373   1.105   9.170   4.875 -1.3291  0.7682  0.2001
10566SOL     OW33374   1.150   5.528   7.135 -0.2216 -0.1653 -0.2199
10566SOL    HW133375   1.147   5.612   7.182 -0.6286 -0.7177  0.7489
10566SOL    HW233376   1.070   5.483   7.162  0.5104 -1.2967  0.0569
10567SOL     OW33377   4.389   4.272   4.418 -0.3174  0.2184 -0.2446
10567SOL    HW133378   4.308   4.221   4.413 -1.1795  1.4071  1.3284
10567SOL    HW233379   4.419   4.262   4.508 -0.5009  2.4532  0.0997
10568SOL     OW33380   3.023   2.017   8.057 -0.3235 -0.4175  0.1353
10568SOL    HW133381   3.090   1.949   8.061 -0.5930 -0.6119  1.4386
10568SOL    HW233382   3.018   2.052   8.146 -0.2773  1.2192 -0.4878
10569SOL     OW33383   5.388   3.269   7.732 -0.1570  0.4994  0.2991
10569SOL    HW133384   5.406   3.215   7.809 -2.8035  0.2168  0.7818
10569SOL    HW233385   5.433   3.226   7.660  0.0724 -0.7771  1.2002
10570SOL     OW33386   4.556   8.532   3.657  0.2361  0.0568 -0.1606
10570SOL    HW133387   4.466   8.564   3.658  0.4070  0.6570 -2.0203
10570SOL    HW233388   4.573   8.511   3.565  1.9058 -0.2698  0.2075
10571SOL     OW33389   5.055   5.214   7.183  0.3766  0.4584 -0.2196
10571SOL    HW133390   5.117   5.242   7.251  0.5661 -0.7135  0.1051
10571SOL    HW233391   5.110   5.169   7.118  0.0086  0.3302 -0.4419
10572SOL     OW33392   2.768   8.128   7.417 -0.3770 -0.2218  0.0182
10572SOL    HW133393   2.836   8.079   7.370 -0.8259 -0.6221 -0.2244
10572SOL    HW233394   2.734   8.190   7.352 -0.1258  0.0908  0.1877
10573SOL     OW33395   0.095   6.060   1.929  0.3760  0.0204  0.2203
10573SOL    HW133396   0.009   6.028   1.903  0.6945  0.1358 -1.0128
10573SOL    HW233397   0.109   6.139   1.876  0.5451  0.9551  1.6116
10574SOL     OW33398   0.282   5.056   8.103  0.2131  0.7562 -0.1706
10574SOL    HW133399   0.355   4.994   8.104 -0.1782  0.3025  2.0866
10574SOL    HW233400   0.206   5.003   8.126 -0.4150  1.7501  0.0611
10575SOL     OW33401   7.896   1.004   1.321 -0.2749  0.5364 -0.1100
10575SOL    HW133402   7.931   1.006   1.232 -1.1573  1.7224 -0.4522
10575SOL    HW233403   7.889   1.096   1.346  0.2305  0.2023  1.2983
10576SOL     OW33404   4.608   2.367   5.232  0.0705 -0.0555 -0.3501
10576SOL    HW133405   4.590   2.293   5.290 -3.1832  0.2140 -0.9489
10576SOL    HW233406   4.580   2.443   5.282  2.1774  0.7202 -0.2723
10577SOL     OW33407   7.262   6.503   2.839  0.3052  0.2186  0.3566
10577SOL    HW133408   7.204   6.443   2.887  1.9083 -0.3071  1.6788
10577SOL    HW233409   7.233   6.496   2.748 -0.4773 -1.4806  0.7020
10578SOL     OW33410   8.202   0.491   8.974  0.3396 -0.4043 -0.0123
10578SOL    HW133411   8.123   0.452   8.938  1.4480 -1.2981 -1.5220
10578SOL    HW233412   8.220   0.440   9.053  0.5906 -1.5643 -0.8173
10579SOL     OW33413   5.121   4.348   6.068  0.0898  0.1407  0.0140
10579SOL    HW133414   5.125   4.400   5.988  0.9584  0.3585  0.1926
10579SOL    HW233415   5.176   4.395   6.130 -0.2056 -0.2754  0.5930
10580SOL     OW33416   4.193   2.979   9.156 -0.3004 -0.0902 -0.2003
10580SOL    HW133417   4.223   3.008   9.070  1.6152 -2.2139 -0.2913
10580SOL    HW233418   4.262   3.008   9.216 -0.4195 -0.7682  0.2699
10581SOL     OW33419   3.901   7.620   5.825  0.1414 -0.2505  0.4695
10581SOL    HW133420   3.830   7.631   5.761  1.2776  0.6725 -0.6523
10581SOL    HW233421   3.858   7.583   5.902 -1.9321  2.1475  0.5239
10582SOL     OW33422   8.253   5.911   0.457  0.4978 -0.0580  0.8103
10582SOL    HW133423   8.216   5.941   0.374  0.8272 -1.6005  0.0846
10582SOL    HW233424   8.223   5.976   0.521  1.5454  2.0407 -0.7501
10583SOL     OW33425   3.387   3.608   0.369 -0.5336 -0.2238 -0.5395
10583SOL    HW133426   3.314   3.668   0.385 -1.2945 -0.9947 -1.0609
10583SOL    HW233427   3.406   3.618   0.275  0.1807  0.1272 -0.3657
10584SOL     OW33428   8.323   5.067   3.710 -0.4442  0.2578  0.4481
10584SOL    HW133429   8.392   5.028   3.763  0.6613 -0.5616 -1.5522
10584SOL    HW233430   8.278   5.127   3.770  1.1806 -0.1462  2.1176
10585SOL     OW33431   0.517   0.669   3.062 -0.4510  0.3531 -0.1341
10585SOL    HW133432   0.544   0.756   3.093 -0.3509  1.0061 -2.0254
10585SOL    HW233433   0.422   0.668   3.074 -0.3312  0.2863  0.9210
10586SOL     OW33434   0.293   6.707   8.663 -0.2774 -0.4710  0.7819
10586SOL    HW133435   0.283   6.613   8.647 -1.6985 -0.3289  0.7685
10586SOL    HW233436   0.204   6.738   8.679 -0.1452  1.3355 -1.6767
10587SOL     OW33437   3.530   5.979   0.776 -0.6225 -0.2903 -0.9026
10587SOL    HW133438   3.445   5.942   0.801 -0.6065  0.1159 -0.2314
10587SOL    HW233439   3.524   6.071   0.802 -1.0187  0.4329 -3.4169
10588SOL     OW33440   0.099   1.911   4.512 -0.2263  0.1184 -1.0161
10588SOL    HW133441   0.165   1.937   4.447  0.5133 -0.3831 -0.4712
10588SOL    HW233442   0.017   1.910   4.463  0.5282 -1.6131 -2.3261
10589SOL     OW33443   1.267   8.960   3.394  0.1161 -0.7219 -0.0491
10589SOL    HW133444   1.259   8.997   3.306  3.3311  0.8499  0.2483
10589SOL    HW233445   1.217   9.019   3.449  0.7146  0.1046 -0.3797
10590SOL     OW33446   7.673   1.184   8.016  0.3201 -0.3753  0.1691
10590SOL    HW133447   7.580   1.183   7.994  0.2833  0.0769  0.2952
10590SOL    HW233448   7.711   1.250   7.957  0.6427 -0.8810 -0.2011
10591SOL     OW33449   1.725   6.136   3.301  0.2159  0.2590 -0.0433
10591SOL    HW133450   1.711   6.210   3.360 -1.1454 -0.7616  0.9515
10591SOL    HW233451   1.637   6.111   3.273  0.6393 -1.1622 -0.1443
10592SOL     OW33452   0.487   8.019   8.701 -0.4137 -0.6528  0.4863
10592SOL    HW133453   0.445   8.022   8.615 -1.0754  0.3484  0.8378
10592SOL    HW233454   0.421   7.981   8.759 -0.6002  0.3115  0.9065
10593SOL     OW33455   5.171   7.011   5.242 -0.3147  0.5147 -0.2375
10593SOL    HW133456   5.219   6.928   5.240  0.9224  1.2317 -0.6918
10593SOL    HW233457   5.108   7.004   5.171  0.0698  0.1330 -0.5422
10594SOL     OW33458   5.822   3.580   4.203 -0.0675  0.3985 -0.3169
10594SOL    HW133459   5.829   3.598   4.297 -1.7404  0.4562 -0.1736
10594SOL    HW233460   5.752   3.639   4.173  0.7123  0.6598 -1.6778
10595SOL     OW33461   4.132   7.957   6.275 -0.2408  0.4140  0.6849
10595SOL    HW133462   4.052   7.987   6.232 -0.0684 -0.7069 -0.4600
10595SOL    HW233463   4.155   7.876   6.229  0.5518 -0.2477  2.2021
10596SOL     OW33464   7.656   5.581   5.661  0.0044 -0.2162  0.4924
10596SOL    HW133465   7.726   5.643   5.641 -0.1620 -0.6509 -1.5892
10596SOL    HW233466   7.688   5.531   5.737  1.5052  0.2644  0.1846
10597SOL     OW33467   4.691   3.761   9.109  0.3647  0.2605  0.0890
10597SOL    HW133468   4.784   3.782   9.115  0.2642  0.5198  0.7296
10597SOL    HW233469   4.647   3.831   9.156 -0.2279  0.6766 -1.0686
10598SOL     OW33470   2.828   5.690   4.178  0.0062  0.2655 -0.3875
10598SOL    HW133471   2.827   5.600   4.210  0.1104  0.4947  0.2606
10598SOL    HW233472   2.782   5.741   4.246 -3.3323  0.1418 -2.4337
10599SOL     OW33473   5.906   0.325   2.391  0.3955 -0.0159 -0.0339
10599SOL    HW133474   5.883   0.239   2.427 -1.5981  0.5745  0.1860
10599SOL    HW233475   5.935   0.376   2.466 -1.1194  0.3530  0.3260
10600SOL     OW33476   6.937   3.194   5.588  0.1824 -0.2392 -0.5392
10600SOL    HW133477   6.857   3.149   5.559  0.4055  0.2477 -1.9618
10600SOL    HW233478   6.919   3.219   5.679 -0.2288 -2.5369  0.0294
10601SOL     OW33479   8.585   2.484   5.546 -0.0293  0.1104 -0.5071
10601SOL    HW133480   8.509   2.428   5.562  0.6158 -0.2389  1.3777
10601SOL    HW233481   8.554   2.573   5.562 -0.5980  0.1527 -1.8243
10602SOL     OW33482   5.726   0.257   7.629  0.3057 -0.0143 -1.1172
10602SOL    HW133483   5.803   0.245   7.684 -0.6994  2.2441  0.8554
10602SOL    HW233484   5.729   0.349   7.602 -0.6782 -0.3904 -2.6067
10603SOL     OW33485   8.401   8.381   1.145  0.3325 -0.2995  0.1337
10603SOL    HW133486   8.339   8.360   1.215  0.6156  0.8879  0.7608
10603SOL    HW233487   8.423   8.473   1.160  1.6723 -0.5082 -0.5292
10604SOL     OW33488   3.276   3.881   0.349  0.1414 -0.1475  0.0087
10604SOL    HW133489   3.329   3.887   0.270  1.1299  0.6186  0.7041
10604SOL    HW233490   3.190   3.912   0.324  0.2278 -0.6819 -0.9588
10605SOL     OW33491   7.050   3.574   0.811 -0.4625 -0.2213 -0.5759
10605SOL    HW133492   7.046   3.669   0.823 -2.8778 -0.1913 -1.3394
10605SOL    HW233493   7.012   3.538   0.891  2.6993 -0.6721  0.8027
10606SOL     OW33494   1.099   6.868   6.055  0.5975  0.4805  0.2363
10606SOL    HW133495   1.061   6.902   5.974 -1.4844 -0.4612  0.7731
10606SOL    HW233496   1.097   6.773   6.044  1.3227  0.3788  0.9470
10607SOL     OW33497   4.278   3.832   2.257 -0.6260  0.1001 -0.1362
10607SOL    HW133498   4.309   3.890   2.188 -2.3301 -0.1191 -1.1218
10607SOL    HW233499   4.237   3.759   2.210 -0.7252 -0.6505  1.0999
10608SOL     OW33500   4.927   1.654   5.611 -0.3199  0.0615 -0.5345
10608SOL    HW133501   4.877   1.723   5.655 -1.0974  0.1287 -1.5050
10608SOL    HW233502   4.880   1.574   5.632  3.1848 -0.9190  4.5473
10609SOL     OW33503   6.366   6.845   7.845  0.5508 -0.3333  0.3160
10609SOL    HW133504   6.394   6.860   7.936  0.0180 -2.4414  0.8598
10609SOL    HW233505   6.271   6.836   7.851  0.1265  2.6059 -0.9310
10610SOL     OW33506   4.049   2.756   5.628  0.0991 -0.2229 -0.5793
10610SOL    HW133507   4.087   2.735   5.542  0.6376  1.2251 -0.7193
10610SOL    HW233508   3.972   2.808   5.607  0.4072  0.4008 -0.1868
10611SOL     OW33509   0.714   2.868   1.766  0.3298  0.4268  0.6840
10611SOL    HW133510   0.760   2.788   1.791 -0.1945  0.0050  0.3255
10611SOL    HW233511   0.686   2.851   1.675 -0.1071  0.8626  0.7375
10612SOL     OW33512   5.344   4.575   1.677  0.3747 -0.7208 -0.4938
10612SOL    HW133513   5.338   4.647   1.740 -1.9034 -1.2107 -0.1061
10612SOL    HW233514   5.294   4.606   1.601  1.3298 -0.9855 -1.2443
10613SOL     OW33515   1.091   4.574   3.753  0.3570  0.0191 -0.6062
10613SOL    HW133516   1.029   4.501   3.750  1.1538 -0.6777 -0.4845
10613SOL    HW233517   1.048   4.645   3.706 -0.5767 -0.4195 -0.4199
10614SOL     OW33518   2.526   5.643   2.023 -0.0386 -0.2457  0.0846
10614SOL    HW133519   2.580   5.627   1.946 -0.7282 -0.2822 -0.3947
10614SOL    HW233520   2.589   5.661   2.093  0.6002 -0.5345 -0.4080
10615SOL     OW33521   0.785   2.409   9.201 -0.0771 -0.0408 -0.1871
10615SOL    HW133522   0.736   2.447   9.274 -0.0513  0.9026 -0.6440
10615SOL    HW233523   0.873   2.445   9.211  0.0459 -0.2742 -0.4192
10616SOL     OW33524   8.841   0.769   4.760  0.6050 -0.3517 -0.0363
10616SOL    HW133525   8.875   0.803   4.843  0.3425 -0.6569  0.1988
10616SOL    HW233526   8.920   0.750   4.708  0.9196 -3.2088  1.3708
10617SOL     OW33527   6.407   3.806   4.445  0.3871 -0.5015  0.2797
10617SOL    HW133528   6.372   3.827   4.358  0.2885 -1.8762 -0.0178
10617SOL    HW233529   6.471   3.875   4.463  1.7810 -1.2546 -1.6935
10618SOL     OW33530   0.184   5.296   0.526  0.3765  0.2221  0.0468
10618SOL    HW133531   0.102   5.322   0.485  0.2407  1.3300  0.9779
10618SOL    HW233532   0.187   5.201   0.518  0.5316  0.4328 -2.8309
10619SOL     OW33533   8.267   1.440   7.588 -0.3409 -0.3507  0.2313
10619SOL    HW133534   8.359   1.414   7.589  0.1340  1.1814 -1.0902
10619SOL    HW233535   8.262   1.512   7.652 -0.5474 -0.1815  0.0249
10620SOL     OW33536   4.249   3.291   8.404  0.5522 -0.2968  0.2641
10620SOL    HW133537   4.236   3.371   8.454  0.1510 -0.8668  1.0834
10620SOL    HW233538   4.207   3.307   8.319 -0.0798  0.1197  0.6587
10621SOL     OW33539   2.652   0.698   4.218  0.0617 -0.1545 -0.1344
10621SOL    HW133540   2.740   0.697   4.182  0.1968 -0.9474  0.2036
10621SOL    HW233541   2.653   0.630   4.286 -0.8695 -0.3359 -0.2914
10622SOL     OW33542   2.286   1.212   0.820 -0.3124  0.5422 -0.3138
10622SOL    HW133543   2.320   1.289   0.775 -2.0007  0.8533 -1.0839
10622SOL    HW233544   2.203   1.241   0.859 -0.9232 -0.8623 -0.5479
10623SOL     OW33545   2.537   3.520   9.140  0.5100 -0.5068  0.4733
10623SOL    HW133546   2.582   3.465   9.076  1.3194  0.2260  0.4051
10623SOL    HW233547   2.478   3.460   9.186  0.3320 -1.1449 -0.5744
10624SOL     OW33548   8.994   5.286   0.553 -0.0396  0.1053 -0.2721
10624SOL    HW133549   8.948   5.257   0.631  0.9015  0.7039  0.5097
10624SOL    HW233550   8.925   5.296   0.487 -1.0645  1.1075  0.9133
10625SOL     OW33551   7.371   7.394   4.554 -0.5919  0.2861  0.0840
10625SOL    HW133552   7.360   7.329   4.624  1.0041  1.0270  1.0597
10625SOL    HW233553   7.440   7.452   4.587  0.4170  0.4599 -2.2558
10626SOL     OW33554   3.627   2.349   7.604  0.0658  0.5239 -0.6736
10626SOL    HW133555   3.693   2.350   7.673  1.6809  0.3457 -2.1785
10626SOL    HW233556   3.671   2.387   7.528 -1.5819  0.4530 -1.6899
10627SOL     OW33557   6.103   7.454   4.211 -0.3068  0.0503 -0.0994
10627SOL    HW133558   6.171   7.391   4.187  1.4469  1.0921  1.9550
10627SOL    HW233559   6.062   7.479   4.128  1.4209 -1.0183 -1.3056
10628SOL     OW33560   6.770   0.110   2.538  0.2672 -0.0314  0.0875
10628SOL    HW133561   6.857   0.088   2.505 -0.0664  0.0128 -0.8207
10628SOL    HW233562   6.744   0.034   2.590  0.4382 -0.4529 -0.4437
10629SOL     OW33563   6.658   3.427   6.246 -0.1056  0.2566 -0.0319
10629SOL    HW133564   6.750   3.451   6.236  0.0321  0.1236  0.9178
10629SOL    HW233565   6.618   3.454   6.163  1.0361 -0.8628 -0.9728
10630SOL     OW33566   1.324   8.677   4.579 -0.1097  0.0093 -0.2100
10630SOL    HW133567   1.284   8.624   4.647  0.3859 -0.6272 -0.4101
10630SOL    HW233568   1.331   8.765   4.617 -0.4274 -0.1941  0.3160
10631SOL     OW33569   7.120   1.211   7.709  0.4261  0.0024  0.2134
10631SOL    HW133570   7.098   1.121   7.731  0.8598  0.0170  0.7314
10631SOL    HW233571   7.060   1.265   7.760  1.4320  0.0363  1.3866
10632SOL     OW33572   1.779   4.844   6.378 -0.2715 -0.2519  0.0740
10632SOL    HW133573   1.685   4.829   6.389 -0.6337  1.0900 -0.9542
10632SOL    HW233574   1.802   4.905   6.448 -0.2006 -0.4306  0.2077
10633SOL     OW33575   4.389   4.922   5.687 -1.0601 -0.2035 -0.3176
10633SOL    HW133576   4.428   4.966   5.612 -0.3684 -0.0752  0.1162
10633SOL    HW233577   4.412   4.976   5.762  1.5116 -2.2954  0.5030
10634SOL     OW33578   1.507   8.824   6.164  0.1092  0.7588  0.3350
10634SOL    HW133579   1.419   8.856   6.184 -0.6128 -0.6925 -0.4335
10634SOL    HW233580   1.558   8.903   6.148 -1.5113  1.5582 -1.0300
10635SOL     OW33581   3.610   1.347   3.525 -0.3870 -0.0127  0.4128
10635SOL    HW133582   3.692   1.359   3.573 -0.8324  0.5010  1.0592
10635SOL    HW233583   3.549   1.312   3.591 -0.6754 -0.4327 -0.0726
10636SOL     OW33584   1.345   2.997   5.322  0.2332 -0.6936 -0.1314
10636SOL    HW133585   1.417   2.963   5.270 -0.9277  1.1790 -3.0641
10636SOL    HW233586   1.387   3.056   5.385  1.4393 -1.1338 -0.5119
10637SOL     OW33587   9.130   2.975   5.174 -0.5324 -0.2029 -0.2906
10637SOL    HW133588   9.079   2.910   5.223 -1.0421 -0.7613 -1.5293
10637SOL    HW233589   9.065   3.040   5.146 -0.3273 -0.1399 -0.6287
10638SOL     OW33590   1.153   3.212   3.988 -0.7377  0.1118  0.1629
10638SOL    HW133591   1.118   3.126   4.012 -1.8448  0.3481 -0.5509
10638SOL    HW233592   1.087   3.275   4.019  0.0140  0.7007  0.5832
10639SOL     OW33593   0.148   0.734   7.270  0.3274 -0.2852  0.0744
10639SOL    HW133594   0.124   0.642   7.277  0.4182 -0.2192  1.3862
10639SOL    HW233595   0.155   0.764   7.360 -0.0146  1.0958 -0.3461
10640SOL     OW33596   0.011   3.208   4.557  0.1436  0.2070 -0.3902
10640SOL    HW133597   0.069   3.147   4.512 -0.0931  0.4266 -0.9969
10640SOL    HW233598   0.037   3.294   4.524 -0.5448  0.3044 -0.6812
10641SOL     OW33599   8.117   1.597   9.232 -0.1910  0.4159  0.3066
10641SOL    HW133600   8.124   1.502   9.233 -1.2024  0.3410  1.0049
10641SOL    HW233601   8.081   1.620   9.318  1.8156  1.5736  0.8748
10642SOL     OW33602   6.094   7.763   0.511 -0.4759 -0.6064 -0.2863
10642SOL    HW133603   6.090   7.854   0.482  0.7079 -1.0027 -1.7227
10642SOL    HW233604   6.042   7.715   0.446 -0.0910 -1.1273 -0.2110
10643SOL     OW33605   0.856   4.006   9.059 -0.4363 -0.0606 -0.1266
10643SOL    HW133606   0.791   3.936   9.049  0.1907 -0.5376 -0.9816
10643SOL    HW233607   0.919   3.971   9.123  1.4128 -1.4804 -2.6236
10644SOL     OW33608   5.621   0.093   2.191  0.7042 -0.2283  0.2436
10644SOL    HW133609   5.673   0.098   2.111 -1.6776  0.7350 -1.3132
10644SOL    HW233610   5.662   0.156   2.250  0.6099  1.4086 -1.3916
10645SOL     OW33611   1.821   9.128   0.451  0.3027 -0.3204  0.4979
10645SOL    HW133612   1.898   9.101   0.501 -0.4180  1.3808  2.6033
10645SOL    HW233613   1.749   9.076   0.488 -0.1073  0.4158  0.7375
10646SOL     OW33614   3.733   7.589   5.585  0.2139  0.1271 -0.5556
10646SOL    HW133615   3.776   7.557   5.505  0.5197 -0.5105 -0.1312
10646SOL    HW233616   3.674   7.519   5.611 -1.8665  1.3885 -1.6916
10647SOL     OW33617   2.762   5.748   5.010 -0.1344 -0.2407  0.2031
10647SOL    HW133618   2.723   5.822   5.057  1.6438  1.9231 -1.6185
10647SOL    HW233619   2.848   5.780   4.983  0.4477 -2.8126 -1.1116
10648SOL     OW33620   2.389   8.651   7.785 -0.2899  0.0129 -0.1333
10648SOL    HW133621   2.316   8.711   7.798 -0.5309 -0.4801  0.8587
10648SOL    HW233622   2.403   8.611   7.872  1.7197  0.7481 -0.1009
10649SOL     OW33623   8.148   6.209   7.104  0.4551  0.0781 -0.1043
10649SOL    HW133624   8.134   6.179   7.014  3.8771 -0.9692 -0.3694
10649SOL    HW233625   8.206   6.284   7.096  1.9366 -0.8765  1.2788
10650SOL     OW33626   3.607   0.063   7.602 -0.2610  0.2649  0.1593
10650SOL    HW133627   3.523   0.067   7.648 -0.4205 -0.8040 -0.0071
10650SOL    HW233628   3.589   0.009   7.525  0.1321  1.5835 -0.8719
10651SOL     OW33629   3.731   2.022   6.891 -0.4211  0.1843 -0.0308
10651SOL    HW133630   3.766   2.013   6.803 -1.1652  2.3293 -0.5684
10651SOL    HW233631   3.706   1.933   6.916  0.3157 -0.5186 -1.7537
10652SOL     OW33632   5.228   8.871   7.894  0.2557 -0.4948 -0.0786
10652SOL    HW133633   5.286   8.795   7.894  0.9622  0.0382 -0.0670
10652SOL    HW233634   5.160   8.850   7.829  0.4295 -1.1376 -0.0575
10653SOL     OW33635   5.237   5.089   6.618  0.0099  0.6713 -0.2252
10653SOL    HW133636   5.302   5.158   6.633 -1.4833  2.0536  0.0006
10653SOL    HW233637   5.163   5.114   6.674 -1.9668  0.8425 -2.8548
10654SOL     OW33638   3.295   7.694   5.197 -0.1099  0.9495 -0.1278
10654SOL    HW133639   3.256   7.764   5.145  0.3580 -0.7693 -2.8896
10654SOL    HW233640   3.389   7.699   5.179 -0.0746 -0.3932 -0.4304
10655SOL     OW33641   3.248   7.528   6.408 -0.1070 -0.1840 -0.4097
10655SOL    HW133642   3.335   7.520   6.367 -0.8153  0.7189 -2.1794
10655SOL    HW233643   3.192   7.472   6.354 -1.0268  0.8814 -0.5758
10656SOL     OW33644   8.753   8.756   8.015  0.7480 -0.1323 -0.1192
10656SOL    HW133645   8.832   8.733   8.064 -0.4550 -1.2415  1.3249
10656SOL    HW233646   8.760   8.707   7.933  0.6671 -1.6300  0.7719
10657SOL     OW33647   7.497   2.846   6.902 -0.2542 -0.1022  0.2394
10657SOL    HW133648   7.497   2.939   6.882  1.5287  0.3300  2.1369
10657SOL    HW233649   7.405   2.820   6.894 -0.8535  1.9403  0.2824
10658SOL     OW33650   3.651   2.895   0.542  0.3307 -0.6981  0.7060
10658SOL    HW133651   3.581   2.934   0.594  0.1599 -1.0915  0.7725
10658SOL    HW233652   3.609   2.823   0.495  0.1352  0.6049 -1.1831
10659SOL     OW33653   0.403   3.943   4.434 -0.2777 -0.5073  0.0856
10659SOL    HW133654   0.317   3.902   4.445 -0.5015  0.3052  1.4867
10659SOL    HW233655   0.437   3.951   4.523 -0.2174  2.2509 -0.1280
10660SOL     OW33656   1.649   2.763   2.285  0.7095 -0.0744  0.1437
10660SOL    HW133657   1.692   2.834   2.236 -0.3460  0.7562  0.4004
10660SOL    HW233658   1.717   2.697   2.296  1.4969  0.5634 -0.7754
10661SOL     OW33659   9.292   2.522   4.308  0.0447  0.3160 -0.0775
10661SOL    HW133660   9.316   2.533   4.216  1.4295  0.4503  0.2784
10661SOL    HW233661   9.312   2.430   4.327 -1.0333  0.0650 -0.1262
10662SOL     OW33662   8.230   4.812   9.026  0.4713 -0.9027 -0.7673
10662SOL    HW133663   8.304   4.871   9.017  1.2241 -1.8925 -1.1357
10662SOL    HW233664   8.259   4.745   9.088 -1.0525  0.1371  1.1537
10663SOL     OW33665   5.572   0.572   3.573 -0.2837  0.6278 -0.2082
10663SOL    HW133666   5.615   0.547   3.491 -0.2149  0.3727 -0.0967
10663SOL    HW233667   5.581   0.495   3.629 -1.0894  0.4887 -0.2619
10664SOL     OW33668   1.341   8.058   4.428 -0.1206  0.5452 -0.4735
10664SOL    HW133669   1.353   7.991   4.496 -2.2468  0.2419 -0.3354
10664SOL    HW233670   1.340   8.140   4.476 -0.8102  0.3938 -0.2142
10665SOL     OW33671   2.706   4.597   6.726  0.5477  0.1591 -0.6361
10665SOL    HW133672   2.793   4.558   6.727  0.0144 -1.0506 -0.7345
10665SOL    HW233673   2.672   4.576   6.639  0.1528  0.6150 -0.5920
10666SOL     OW33674   2.970   1.656   1.681  0.1903  0.2079 -0.0152
10666SOL    HW133675   2.972   1.642   1.586  1.2336 -2.5585  0.3749
10666SOL    HW233676   3.061   1.645   1.708 -0.2688 -0.0446  1.4394
10667SOL     OW33677   5.552   7.210   0.590  0.5331  0.6484 -0.9422
10667SOL    HW133678   5.464   7.200   0.628  0.9160  1.3222  0.1252
10667SOL    HW233679   5.538   7.263   0.511  0.5069  4.2238  1.3885
10668SOL     OW33680   7.061   3.950   4.289  0.7459 -0.1865 -0.0581
10668SOL    HW133681   7.088   3.864   4.256 -0.1552  0.4626 -2.6061
10668SOL    HW233682   7.131   4.009   4.262  1.3969 -0.1200  1.7547
10669SOL     OW33683   2.138   6.737   3.937  0.2292  0.1639  0.1309
10669SOL    HW133684   2.224   6.742   3.981  0.9567 -0.3032 -1.2157
10669SOL    HW233685   2.125   6.644   3.920  0.5518  0.4518 -1.7868
10670SOL     OW33686   3.733   0.857   4.945 -0.7818 -0.0171  0.1776
10670SOL    HW133687   3.825   0.859   4.973 -0.8206  1.3017  0.2702
10670SOL    HW233688   3.737   0.830   4.853 -0.2811  0.1804  0.1365
10671SOL     OW33689   1.015   8.493   2.112  0.4638  0.5488  0.2976
10671SOL    HW133690   1.013   8.400   2.137  1.4431  0.5320  0.3511
10671SOL    HW233691   1.100   8.504   2.068  0.7025  1.6014  1.0049
10672SOL     OW33692   0.372   5.991   4.209 -0.4063  0.0739 -0.0654
10672SOL    HW133693   0.388   6.080   4.180  1.9627 -0.2940  0.0250
10672SOL    HW233694   0.412   5.987   4.296 -0.2495 -1.1463 -0.1840
10673SOL     OW33695   8.364   4.050   5.092 -0.2164 -0.2415 -0.1190
10673SOL    HW133696   8.434   4.030   5.155  2.4629 -0.4890 -3.0417
10673SOL    HW233697   8.330   3.965   5.066  0.8603 -0.3165 -1.3310
10674SOL     OW33698   6.774   8.701   2.633 -0.4230  0.0953 -0.1586
10674SOL    HW133699   6.817   8.616   2.620 -1.2909 -0.4886  0.6952
10674SOL    HW233700   6.681   8.683   2.620 -0.5029  1.1550 -1.0900
10675SOL     OW33701   8.451   8.700   1.484 -0.1790  0.0486 -0.4036
10675SOL    HW133702   8.540   8.689   1.517 -0.4387  0.4750  0.4651
10675SOL    HW233703   8.395   8.660   1.552 -0.7508  1.3863 -0.0591
10676SOL     OW33704   7.890   4.540   7.175 -0.5220  0.5930 -0.3394
10676SOL    HW133705   7.922   4.603   7.110  1.6613  0.8234  0.8988
10676SOL    HW233706   7.895   4.588   7.258 -1.9887 -0.1432  0.1800
10677SOL     OW33707   2.807   7.857   4.991 -0.1989 -0.5710  0.0727
10677SOL    HW133708   2.852   7.774   4.976 -0.4025 -0.5602 -0.6294
10677SOL    HW233709   2.768   7.879   4.906  1.8417  1.4350 -0.3847
10678SOL     OW33710   2.465   1.932   6.845 -0.6003  0.6793 -0.4123
10678SOL    HW133711   2.481   1.871   6.774 -2.3012  0.0921 -0.3158
10678SOL    HW233712   2.493   1.886   6.924  2.0410  1.6382 -0.7722
10679SOL     OW33713   7.532   1.126   5.288 -0.1137  0.5526  0.4076
10679SOL    HW133714   7.554   1.218   5.277  0.0565  0.2533 -1.9787
10679SOL    HW233715   7.608   1.087   5.330  0.6850  1.0998 -0.5139
10680SOL     OW33716   1.024   9.134   4.530  0.0777 -0.0689 -0.0344
10680SOL    HW133717   0.949   9.073   4.530 -0.2195  0.2933 -1.7950
10680SOL    HW233718   1.039   9.151   4.623 -2.6437  0.5847  0.3429
10681SOL     OW33719   5.326   6.452   6.433  0.5153 -0.1430 -0.0283
10681SOL    HW133720   5.410   6.449   6.479 -0.5922  2.9337  2.3445
10681SOL    HW233721   5.325   6.537   6.390 -1.9191  0.4820  1.1479
10682SOL     OW33722   4.878   1.842   8.537  0.1109 -0.1226 -0.2093
10682SOL    HW133723   4.826   1.922   8.542  1.0362  0.4067  1.1809
10682SOL    HW233724   4.881   1.810   8.628 -0.5611 -1.9337 -0.7973
10683SOL     OW33725   7.537   9.210   2.533  0.7671  0.2545 -0.3293
10683SOL    HW133726   7.618   9.246   2.497  1.2990  1.0719  1.5954
10683SOL    HW233727   7.495   9.284   2.576 -0.1868 -0.5256  0.0975
10684SOL     OW33728   1.314   0.808   5.619 -0.6936 -0.0238 -0.1703
10684SOL    HW133729   1.285   0.862   5.545  0.9840 -0.1831 -0.9730
10684SOL    HW233730   1.255   0.832   5.691 -0.9812  1.7314 -0.9533
10685SOL     OW33731   6.481   3.498   4.896  0.0190 -0.2152 -0.0928
10685SOL    HW133732   6.540   3.566   4.864  0.4694  0.2795  1.7554
10685SOL    HW233733   6.438   3.464   4.817 -0.1607  2.1681 -1.0402
10686SOL     OW33734   3.582   0.338   0.339 -0.1857  0.1217  0.1522
10686SOL    HW133735   3.563   0.257   0.291  0.1943  0.2774 -0.2757
10686SOL    HW233736   3.669   0.324   0.376 -0.9251 -0.4151  1.7191
10687SOL     OW33737   4.434   1.771   0.941  0.1165 -0.6994 -0.2647
10687SOL    HW133738   4.345   1.740   0.957  0.1784 -1.5163 -1.4573
10687SOL    HW233739   4.441   1.778   0.846  1.6578 -1.6355 -0.2428
10688SOL     OW33740   1.655   6.847   6.175 -0.3541  0.1931 -0.2259
10688SOL    HW133741   1.711   6.864   6.099  0.5293  1.7860  0.7540
10688SOL    HW233742   1.575   6.898   6.157 -0.2015  0.4618 -0.1361
10689SOL     OW33743   1.179   6.453   8.909 -0.1859  0.0555 -0.2376
10689SOL    HW133744   1.235   6.516   8.956 -0.0018  0.0735 -0.4831
10689SOL    HW233745   1.141   6.399   8.979  1.6820 -1.2413 -0.1767
10690SOL     OW33746   0.651   7.360   8.470  0.4613 -0.0672  0.3503
10690SOL    HW133747   0.686   7.430   8.415 -2.6577  2.4613  1.4344
10690SOL    HW233748   0.635   7.288   8.409 -1.0209  1.9651 -1.7679
10691SOL     OW33749   7.894   0.919   2.879 -0.2213  0.0643 -0.4149
10691SOL    HW133750   7.852   0.880   2.955  0.9542  0.6123  0.5318
10691SOL    HW233751   7.822   0.937   2.818 -1.2159 -0.0088  0.7242
10692SOL     OW33752   8.251   3.571   5.171 -0.6356 -0.4563  0.1578
10692SOL    HW133753   8.273   3.486   5.134 -0.0123 -1.0260  1.8159
10692SOL    HW233754   8.160   3.563   5.198 -0.4109 -0.7872  0.8261
10693SOL     OW33755   3.747   2.014   3.850 -0.3583 -0.4962 -0.3467
10693SOL    HW133756   3.692   2.026   3.773 -0.3154 -0.4988 -0.3785
10693SOL    HW233757   3.689   1.978   3.916 -1.1688  2.4368  0.6329
10694SOL     OW33758   2.598   0.769   8.859  0.4355 -0.2155 -0.1723
10694SOL    HW133759   2.551   0.694   8.896 -1.2792  1.5924  1.4790
10694SOL    HW233760   2.664   0.791   8.925 -0.2982  0.8563  0.2148
10695SOL     OW33761   4.936   1.246   5.790  0.5156  0.0749 -0.2404
10695SOL    HW133762   5.025   1.279   5.809  1.2234 -1.0572 -1.5592
10695SOL    HW233763   4.901   1.308   5.726  1.2044 -0.7413 -1.4183
10696SOL     OW33764   7.737   7.412   0.300 -0.0438  0.1360 -0.3990
10696SOL    HW133765   7.707   7.479   0.238 -0.1578  0.4017 -0.0580
10696SOL    HW233766   7.833   7.417   0.296 -0.0579  0.8890  0.2421
10697SOL     OW33767   4.296   7.053   1.674  0.3582  0.6806 -0.2730
10697SOL    HW133768   4.258   7.059   1.586 -1.5548  2.3475  0.6411
10697SOL    HW233769   4.295   6.960   1.694 -2.0350  0.5646 -0.8230
10698SOL     OW33770   8.297   5.567   0.065 -0.4712  0.4270 -0.3245
10698SOL    HW133771   8.239   5.492   0.065 -1.0993  0.9093 -0.3753
10698SOL    HW233772   8.342   5.563   0.150 -1.9080  1.0616  0.4882
10699SOL     OW33773   8.925   4.556   3.285  0.3230 -0.3783 -0.0485
10699SOL    HW133774   8.923   4.639   3.334  0.2540 -0.3587 -0.0835
10699SOL    HW233775   8.877   4.495   3.340 -0.1147 -0.2498 -0.2844
10700SOL     OW33776   0.937   0.057   6.594 -0.1889 -0.2540  0.1803
10700SOL    HW133777   0.958   0.023   6.682 -0.8516 -1.9665 -0.3124
10700SOL    HW233778   0.995   0.132   6.584  0.1588 -0.2500  1.9513
10701SOL     OW33779   8.949   5.494   0.345  0.1365  0.0230 -0.7541
10701SOL    HW133780   9.021   5.488   0.408 -1.1494  0.0359  0.7499
10701SOL    HW233781   8.903   5.574   0.369 -1.4507 -0.9303 -0.5094
10702SOL     OW33782   2.846   5.515   2.425 -0.0924 -0.5426 -0.3616
10702SOL    HW133783   2.877   5.588   2.478  0.4013  0.9847 -2.6488
10702SOL    HW233784   2.766   5.548   2.383  0.4253 -1.0869 -1.8267
10703SOL     OW33785   7.356   2.447   5.834 -0.4349  0.0541  0.1662
10703SOL    HW133786   7.402   2.511   5.888 -0.7140  0.3894  0.0048
10703SOL    HW233787   7.273   2.489   5.812 -0.3197 -0.0770 -0.5311
10704SOL     OW33788   7.311   3.338   1.968 -0.1889 -0.3960  0.0062
10704SOL    HW133789   7.340   3.417   1.923 -1.6699 -0.5796 -1.3485
10704SOL    HW233790   7.377   3.272   1.947  1.1696  0.5371  1.3308
10705SOL     OW33791   6.837   1.455   6.164  0.3639  0.1650  0.2054
10705SOL    HW133792   6.759   1.401   6.174  0.6585 -1.0090 -3.0439
10705SOL    HW233793   6.811   1.541   6.198 -1.7955 -0.6415  0.6771
10706SOL     OW33794   3.801   7.695   8.916 -0.6462 -0.3376  0.2372
10706SOL    HW133795   3.889   7.712   8.884 -0.3414 -2.5617 -0.1386
10706SOL    HW233796   3.803   7.720   9.008 -0.7786  3.4741 -0.6910
10707SOL     OW33797   8.912   5.911   3.288 -0.4197 -0.6485  0.4393
10707SOL    HW133798   8.883   5.941   3.202 -0.0748 -1.4368  0.0445
10707SOL    HW233799   8.861   5.964   3.350  0.6761  1.2600 -0.2298
10708SOL     OW33800   8.398   1.378   7.190 -0.6358  0.6671  0.3682
10708SOL    HW133801   8.420   1.306   7.248 -2.4224  1.4956  2.1607
10708SOL    HW233802   8.479   1.429   7.183  0.6701 -1.5429 -1.0351
10709SOL     OW33803   0.676   9.176   5.630  0.7486 -0.1361 -0.3827
10709SOL    HW133804   0.581   9.173   5.644  0.6719 -1.2544 -1.1108
10709SOL    HW233805   0.709   9.232   5.701 -0.4210  0.0295  0.0366
10710SOL     OW33806   4.515   8.613   1.062 -0.4764 -0.2139  0.2497
10710SOL    HW133807   4.462   8.677   1.111  0.2582  0.4104  0.2530
10710SOL    HW233808   4.480   8.615   0.974  0.7615  1.6287 -0.2316
10711SOL     OW33809   4.757   9.097   6.269 -0.2636  0.7153  0.4044
10711SOL    HW133810   4.709   9.091   6.187 -0.9788 -1.0026  0.9347
10711SOL    HW233811   4.780   9.190   6.277 -1.0889  1.0652 -1.2107
10712SOL     OW33812   7.323   2.317   2.989  0.3124 -0.0686 -0.3743
10712SOL    HW133813   7.393   2.369   3.029  0.7756 -0.3801 -0.7608
10712SOL    HW233814   7.252   2.320   3.052  0.0982  1.5506 -0.6723
10713SOL     OW33815   8.130   2.654   8.184  0.2629  0.1445  0.2099
10713SOL    HW133816   8.170   2.568   8.168 -0.9974 -0.4507  0.2192
10713SOL    HW233817   8.181   2.714   8.128  1.3423 -0.5401  0.4304
10714SOL     OW33818   3.001   8.387   2.070  0.4738  0.4889  0.4782
10714SOL    HW133819   2.924   8.371   2.016  1.0303  0.0422 -0.1781
10714SOL    HW233820   3.068   8.417   2.009  0.8843  0.6865  1.0212
10715SOL     OW33821   1.905   6.145   4.040 -0.1747  0.0409  0.2268
10715SOL    HW133822   1.869   6.094   4.113 -2.3957  2.0995  0.6253
10715SOL    HW233823   1.841   6.215   4.025  2.5018  2.4146 -0.6556
10716SOL     OW33824   2.324   8.359   3.919  0.3021  0.0594  0.5383
10716SOL    HW133825   2.261   8.287   3.909  0.4337 -0.0733  0.6540
10716SOL    HW233826   2.292   8.428   3.861 -0.4054  0.3062  1.2208
10717SOL     OW33827   3.045   0.967   7.474 -0.6704 -0.1396  0.4494
10717SOL    HW133828   3.075   0.879   7.449  0.0263  0.1865  0.1339
10717SOL    HW233829   3.117   1.004   7.525  0.2544  1.3260 -1.8247
10718SOL     OW33830   2.159   5.491   1.879  0.4246 -0.2480 -0.0226
10718SOL    HW133831   2.140   5.416   1.824 -0.6649 -0.6805  0.9109
10718SOL    HW233832   2.228   5.539   1.833 -0.0728 -0.9022 -1.4592
10719SOL     OW33833   6.634   4.910   8.506  0.2174 -0.3578  0.0069
10719SOL    HW133834   6.716   4.958   8.509  0.8305 -1.3310 -0.8902
10719SOL    HW233835   6.651   4.835   8.449 -1.1997 -0.7382  0.0424
10720SOL     OW33836   2.022   4.423   5.954  0.0865 -0.9591  0.1361
10720SOL    HW133837   1.983   4.336   5.964 -0.1303 -0.9126 -0.3070
10720SOL    HW233838   2.000   4.469   6.035 -0.3236 -1.1094  0.1114
10721SOL     OW33839   1.819   7.010   2.108  0.5823 -0.3357  0.4700
10721SOL    HW133840   1.884   7.054   2.163  2.6155 -1.0765 -1.2873
10721SOL    HW233841   1.784   6.940   2.163 -0.3359  1.3950  2.1636
10722SOL     OW33842   4.421   3.929   3.281 -0.2774 -0.0329 -0.4422
10722SOL    HW133843   4.358   3.980   3.330  1.5049  1.6155  0.1903
10722SOL    HW233844   4.467   3.993   3.226  0.0174 -1.3744 -1.8151
10723SOL     OW33845   8.086   0.230   3.536 -0.2750  0.1890 -0.1363
10723SOL    HW133846   8.026   0.300   3.510  0.0723  1.0342  1.2944
10723SOL    HW233847   8.167   0.249   3.489 -0.9310 -0.6610 -1.6668
10724SOL     OW33848   7.958   0.388   8.753  0.3299  0.5182  0.3940
10724SOL    HW133849   7.971   0.405   8.660 -0.9299  0.7143  0.2413
10724SOL    HW233850   7.901   0.311   8.755 -0.7225  1.2848  0.9609
10725SOL     OW33851   6.059   8.858   0.586  0.8724 -0.5051  0.0480
10725SOL    HW133852   6.116   8.844   0.511  1.3274 -0.1743  0.3305
10725SOL    HW233853   6.043   8.953   0.587 -0.0115 -0.6415 -0.2673
10726SOL     OW33854   8.202   8.165   6.667  0.3124 -0.1480 -0.1199
10726SOL    HW133855   8.266   8.178   6.738 -0.5154  1.3877  0.3689
10726SOL    HW233856   8.145   8.241   6.673 -0.2851 -0.4510 -1.9118
10727SOL     OW33857   5.511   0.921   4.314 -0.1821 -0.3833  0.9735
10727SOL    HW133858   5.505   1.013   4.288 -1.3772 -0.4857  0.8709
10727SOL    HW233859   5.453   0.875   4.254  1.1875 -1.3600  0.3616
10728SOL     OW33860   9.180   7.917   3.423 -0.5517  0.1331 -0.2739
10728SOL    HW133861   9.223   7.996   3.390 -0.2564  0.0802 -0.0197
10728SOL    HW233862   9.238   7.846   3.397 -1.6427 -0.1707 -1.9602
10729SOL     OW33863   7.974   5.162   1.114 -0.3660 -0.3274 -0.4748
10729SOL    HW133864   7.882   5.141   1.126 -0.0843 -2.6458 -2.0706
10729SOL    HW233865   8.016   5.077   1.097  1.7028  0.9422 -1.9673
10730SOL     OW33866   3.573   0.806   5.567  0.0837  0.9410 -0.1729
10730SOL    HW133867   3.635   0.833   5.634 -0.9828  1.1722  0.7367
10730SOL    HW233868   3.574   0.877   5.503  0.6908  0.9825 -0.1129
10731SOL     OW33869   6.833   2.090   2.880  0.6255  0.5087 -0.4408
10731SOL    HW133870   6.748   2.088   2.837  0.9530  0.2484 -1.0981
10731SOL    HW233871   6.872   2.004   2.861  0.7331  0.3556  0.4715
10732SOL     OW33872   3.504   2.192   4.475 -0.1951 -0.2245  0.3262
10732SOL    HW133873   3.450   2.114   4.488 -0.9161  0.5500  2.0380
10732SOL    HW233874   3.444   2.257   4.440  0.5842 -0.6569 -1.8953
10733SOL     OW33875   9.011   2.688   4.188 -0.3363  0.0080  0.0749
10733SOL    HW133876   8.934   2.745   4.186 -1.2070 -1.0998  1.2690
10733SOL    HW233877   9.063   2.720   4.262 -0.5045 -0.3414  0.3436
10734SOL     OW33878   6.148   6.126   0.554  0.5023  0.0859  0.3113
10734SOL    HW133879   6.083   6.060   0.577  1.6633 -1.2295 -0.1193
10734SOL    HW233880   6.101   6.210   0.563 -0.9504 -0.7727  0.9572
10735SOL     OW33881   2.450   0.661   5.170  0.2770 -0.4257 -0.0238
10735SOL    HW133882   2.411   0.582   5.206 -0.2913  0.0405  0.4047
10735SOL    HW233883   2.541   0.637   5.152  0.2561 -1.0123  0.6156
10736SOL     OW33884   5.013   3.057   5.830  0.0007 -0.1681 -0.0344
10736SOL    HW133885   4.925   3.094   5.829  0.7331  1.6343 -1.0088
10736SOL    HW233886   5.068   3.126   5.867  1.6894  0.5022 -3.5221
10737SOL     OW33887   8.704   1.324   4.617 -0.0001 -0.9750  1.0323
10737SOL    HW133888   8.703   1.231   4.638 -2.9468 -0.9502  1.2405
10737SOL    HW233889   8.701   1.367   4.703  0.8921 -0.6903  0.9237
10738SOL     OW33890   9.239   5.743   0.562  0.0378 -0.5093  0.3776
10738SOL    HW133891   9.186   5.679   0.610  1.2242 -1.3071  0.6311
10738SOL    HW233892   9.212   5.827   0.598 -0.7151 -0.9382  0.8477
10739SOL     OW33893   3.012   1.203   9.069 -0.5201 -0.2001 -0.1677
10739SOL    HW133894   3.064   1.255   9.006  0.4162 -1.0156 -0.0883
10739SOL    HW233895   2.977   1.131   9.017 -1.3210  0.1681 -0.1474
10740SOL     OW33896   3.586   8.845   3.314  0.3723  0.1771  0.5970
10740SOL    HW133897   3.636   8.833   3.233  1.0886  2.8661  0.6138
10740SOL    HW233898   3.646   8.890   3.373 -0.8836  0.1799  1.8852
10741SOL     OW33899   4.325   7.625   5.596 -0.8007 -0.5449  0.1084
10741SOL    HW133900   4.354   7.634   5.505  0.7515  2.0453  0.8176
10741SOL    HW233901   4.352   7.536   5.621 -2.7924 -1.9422 -2.4283
10742SOL     OW33902   4.673   9.007   3.740  0.1907  0.6526  0.3456
10742SOL    HW133903   4.723   8.927   3.756  1.7750  1.4010 -0.8046
10742SOL    HW233904   4.712   9.073   3.797  0.1763  1.1114 -0.1725
10743SOL     OW33905   9.185   0.092   2.298 -0.0498 -0.7799 -0.0299
10743SOL    HW133906   9.092   0.070   2.300 -0.0790 -0.6164  1.9495
10743SOL    HW233907   9.206   0.102   2.205 -1.8755 -1.3519 -0.5213
10744SOL     OW33908   3.604   2.488   5.682  0.6139 -0.6413 -0.2003
10744SOL    HW133909   3.587   2.511   5.774 -0.7827 -0.2058 -0.5585
10744SOL    HW233910   3.622   2.572   5.639 -0.5793 -0.6293 -0.6973
10745SOL     OW33911   5.227   7.426   4.219 -0.1232  0.0103  0.3078
10745SOL    HW133912   5.263   7.514   4.235 -0.1622  0.1413 -0.2905
10745SOL    HW233913   5.197   7.396   4.304 -0.1567  0.6024  0.5066
10746SOL     OW33914   5.320   8.670   4.966  0.6035  0.5776  0.0325
10746SOL    HW133915   5.241   8.695   5.014  1.1683  1.4803  0.5058
10746SOL    HW233916   5.309   8.577   4.949 -1.0689  0.9243 -0.8626
10747SOL     OW33917   6.178   8.904   5.459 -0.4479 -0.2938 -0.4002
10747SOL    HW133918   6.177   8.817   5.499 -1.4344 -0.6560 -1.1735
10747SOL    HW233919   6.216   8.890   5.372  0.6026  0.2788 -0.0375
10748SOL     OW33920   7.609   4.541   2.238 -0.1618  0.4405 -0.2831
10748SOL    HW133921   7.544   4.533   2.308  0.1235 -0.0213 -0.0678
10748SOL    HW233922   7.570   4.495   2.163  0.0293 -0.0583 -0.0755
10749SOL     OW33923   1.154   4.225   4.234 -0.2534  0.2380  0.3903
10749SOL    HW133924   1.175   4.281   4.160  1.7633 -0.4751  0.3904
10749SOL    HW233925   1.072   4.182   4.210  1.1182 -1.0770 -2.0695
10750SOL     OW33926   7.330   1.189   1.499  0.6645  0.1920 -0.2188
10750SOL    HW133927   7.386   1.266   1.503  0.7195  0.1229  0.4293
10750SOL    HW233928   7.281   1.199   1.417  0.6489  0.9338 -0.1260
10751SOL     OW33929   6.456   0.780   1.207 -0.1232 -0.6955 -0.4511
10751SOL    HW133930   6.513   0.728   1.264  0.2100  0.0623 -0.0887
10751SOL    HW233931   6.371   0.734   1.211 -0.1581 -0.5365  0.8224
10752SOL     OW33932   2.548   4.751   4.208  0.0350  0.1028  0.0358
10752SOL    HW133933   2.614   4.778   4.144 -0.9993  0.8837 -0.7150
10752SOL    HW233934   2.504   4.832   4.232 -2.5110 -0.7609 -1.5674
10753SOL     OW33935   4.804   5.729   0.804 -0.0797 -0.1786 -0.4273
10753SOL    HW133936   4.758   5.758   0.883  1.3431  0.1751  0.2800
10753SOL    HW233937   4.837   5.643   0.826 -0.1448 -0.3100 -0.8366
10754SOL     OW33938   7.722   7.966   1.968 -0.0168  0.5739  0.4332
10754SOL    HW133939   7.686   7.947   2.054  0.2826  1.1383  0.6836
10754SOL    HW233940   7.702   7.888   1.916  1.0269 -0.3380  1.3805
10755SOL     OW33941   8.037   0.757   5.348 -0.4838 -0.6808 -0.4826
10755SOL    HW133942   7.959   0.715   5.313 -0.5486 -0.1667 -0.9643
10755SOL    HW233943   8.081   0.795   5.271  0.7277 -1.7656 -0.3493
10756SOL     OW33944   6.988   2.351   7.921  0.3177 -0.6445 -0.3061
10756SOL    HW133945   7.042   2.358   7.842  0.1730 -1.1528 -0.4514
10756SOL    HW233946   6.975   2.257   7.933 -0.7284 -0.5174 -0.4062
10757SOL     OW33947   6.223   6.631   7.679  0.6721 -0.1453 -0.5399
10757SOL    HW133948   6.294   6.647   7.740  0.0750 -3.5055  1.1070
10757SOL    HW233949   6.154   6.692   7.706  2.3107  2.1070 -1.2506
10758SOL     OW33950   2.751   6.582   7.907 -0.2776  0.3733  0.5525
10758SOL    HW133951   2.845   6.563   7.901  0.2888  2.2497  2.7573
10758SOL    HW233952   2.747   6.677   7.917 -2.5057  0.4461 -0.6587
10759SOL     OW33953   1.217   6.569   8.197 -0.2860  0.3288  0.4379
10759SOL    HW133954   1.189   6.654   8.163  0.8634  0.4281 -0.2910
10759SOL    HW233955   1.211   6.577   8.292  0.8129  1.5850  0.4123
10760SOL     OW33956   4.661   8.676   5.975 -0.1198 -0.2886 -0.0760
10760SOL    HW133957   4.711   8.747   6.016 -1.1265  0.0446  0.5728
10760SOL    HW233958   4.650   8.704   5.884 -0.4804  0.3581  0.1677
10761SOL     OW33959   3.860   5.621   4.997 -0.1031  0.2934 -0.1422
10761SOL    HW133960   3.924   5.551   4.988  1.3054  1.8537 -2.8195
10761SOL    HW233961   3.783   5.590   4.949 -0.5307 -0.5751  1.0737
10762SOL     OW33962   4.261   7.915   8.647 -0.1498 -0.1648 -0.1584
10762SOL    HW133963   4.316   7.986   8.614 -0.3100 -0.1048 -0.2961
10762SOL    HW233964   4.300   7.891   8.731 -0.7796  0.8739  0.4484
10763SOL     OW33965   3.958   7.533   0.037  0.3431  0.0083  0.0175
10763SOL    HW133966   3.909   7.469   0.089 -1.8625  0.6096 -1.2705
10763SOL    HW233967   4.023   7.568   0.098 -0.5132 -1.1437  1.6400
10764SOL     OW33968   7.270   3.888   1.785  0.1226 -0.3587 -0.5889
10764SOL    HW133969   7.356   3.847   1.784 -0.2825 -1.2682  0.6424
10764SOL    HW233970   7.247   3.898   1.693  0.7363 -1.8255 -0.9111
10765SOL     OW33971   7.484   2.368   8.179  0.5955  0.3717 -0.1470
10765SOL    HW133972   7.460   2.372   8.271  0.9053  1.9250 -0.1286
10765SOL    HW233973   7.406   2.336   8.135  0.9546 -2.0017  0.8387
10766SOL     OW33974   3.025   3.639   8.422 -0.2423  0.1386 -0.1693
10766SOL    HW133975   3.110   3.595   8.431  0.0597  0.8973  0.7981
10766SOL    HW233976   2.961   3.569   8.429  0.2024 -0.0471  2.2832
10767SOL     OW33977   6.347   3.842   4.921 -0.4484 -0.3857 -0.0012
10767SOL    HW133978   6.442   3.849   4.928 -0.4913  0.7246 -0.4623
10767SOL    HW233979   6.332   3.808   4.832 -0.4611 -0.9287  0.2113
10768SOL     OW33980   7.974   3.145   2.944 -0.4348  0.1440 -0.4708
10768SOL    HW133981   8.051   3.091   2.964 -0.7819 -0.8552 -1.8347
10768SOL    HW233982   7.960   3.134   2.850 -2.2756  0.2912 -0.2281
10769SOL     OW33983   8.088   6.169   8.352  0.1340 -0.1136  0.0889
10769SOL    HW133984   8.090   6.075   8.332 -0.7280 -0.1964  0.3625
10769SOL    HW233985   8.033   6.175   8.431  1.1270  0.5028  0.7427
10770SOL     OW33986   0.144   3.759   7.054  0.1866 -0.1962 -0.6919
10770SOL    HW133987   0.144   3.844   7.098  1.0525 -0.9398  0.7870
10770SOL    HW233988   0.072   3.711   7.095 -0.8932  0.1154 -2.1596
10771SOL     OW33989   2.175   3.702   0.794 -0.8021 -0.2520 -0.4789
10771SOL    HW133990   2.204   3.618   0.758 -0.6091 -0.6111  0.5125
10771SOL    HW233991   2.161   3.685   0.887 -0.8712  0.7867 -0.2934
10772SOL     OW33992   8.476   1.573   5.964  0.3533  0.1808 -0.6712
10772SOL    HW133993   8.437   1.612   6.042  1.2674  1.1629 -0.6932
10772SOL    HW233994   8.408   1.581   5.897 -0.6235 -1.1324  0.1409
10773SOL     OW33995   4.850   3.096   8.624 -0.0315  0.2251  0.3877
10773SOL    HW133996   4.906   3.075   8.550  0.2627  0.4839  0.5377
10773SOL    HW233997   4.809   3.179   8.601 -0.3332  0.0470  0.2872
10774SOL     OW33998   5.402   0.257   2.940  0.2219  0.5776  0.1411
10774SOL    HW133999   5.463   0.325   2.969  0.1157  1.8663 -2.4680
10774SOL    HW234000   5.449   0.175   2.953  3.0686  1.6106 -2.8719
10775SOL     OW34001   9.256   0.708   5.383  0.0309  0.2102 -0.1969
10775SOL    HW134002   9.282   0.798   5.397  0.2120  0.4726 -2.1233
10775SOL    HW234003   9.201   0.687   5.458  1.0364  1.4991  0.9136
10776SOL     OW34004   8.613   6.365   6.737  0.1339  0.0211  0.1474
10776SOL    HW134005   8.631   6.431   6.805 -1.5599  1.0491 -0.3668
10776SOL    HW234006   8.589   6.416   6.660  0.6629 -1.1765 -0.8278
10777SOL     OW34007   7.152   4.120   3.260 -0.2530 -0.2670 -0.5326
10777SOL    HW134008   7.244   4.124   3.287 -0.9535  0.7211  1.8851
10777SOL    HW234009   7.151   4.056   3.189  2.3219 -0.1885 -0.7045
10778SOL     OW34010   0.750   5.702   2.089  0.5310 -0.1182 -0.0371
10778SOL    HW134011   0.708   5.616   2.082 -1.9725  1.0007  0.3744
10778SOL    HW234012   0.708   5.755   2.022  1.3677  1.0419  0.3350
10779SOL     OW34013   5.900   1.343   2.264  0.6227 -0.9448 -0.4982
10779SOL    HW134014   5.904   1.249   2.283 -0.2479 -0.7967  0.5010
10779SOL    HW234015   5.847   1.350   2.185 -0.3253 -1.2246  0.1055
10780SOL     OW34016   0.612   1.063   7.613  0.5279  0.0865 -0.0676
10780SOL    HW134017   0.613   1.128   7.683 -0.9261  0.2922 -0.2166
10780SOL    HW234018   0.650   0.985   7.651  1.3799  0.7339  0.4127
10781SOL     OW34019   4.833   8.896   7.350  0.4422 -0.3395  0.4725
10781SOL    HW134020   4.772   8.955   7.394  1.4264  0.4682  0.7965
10781SOL    HW234021   4.840   8.820   7.408 -1.3970 -1.1219 -0.3047
10782SOL     OW34022   8.219   4.730   6.880 -0.5180 -0.0447  0.1819
10782SOL    HW134023   8.234   4.794   6.811 -0.3528  1.4794  1.5887
10782SOL    HW234024   8.125   4.735   6.899 -0.6422 -0.7689 -0.2203
10783SOL     OW34025   3.244   5.377   1.675 -0.3464  0.2553 -0.5104
10783SOL    HW134026   3.293   5.434   1.734 -1.5682  0.5421  0.2311
10783SOL    HW234027   3.176   5.433   1.638  0.0704 -0.0644 -1.7682
10784SOL     OW34028   1.892   6.664   6.102  0.6633 -0.1500 -0.0516
10784SOL    HW134029   1.923   6.581   6.137  2.0445  0.2713 -0.2320
10784SOL    HW234030   1.906   6.727   6.173 -0.0086  0.0159 -0.0565
10785SOL     OW34031   0.278   6.450   8.531 -0.2702  0.5457 -0.1295
10785SOL    HW134032   0.327   6.387   8.583  1.7025  2.7472  0.7405
10785SOL    HW234033   0.292   6.421   8.440 -1.4582 -1.6869  0.3529
10786SOL     OW34034   0.038   2.826   3.288  0.5361  0.0719 -0.2259
10786SOL    HW134035  -0.017   2.808   3.211  0.8639  1.0230 -0.6970
10786SOL    HW234036  -0.023   2.863   3.352 -0.1042 -2.5244  0.6865
10787SOL     OW34037   2.545   4.496   5.514 -0.2248 -0.3082  0.1067
10787SOL    HW134038   2.523   4.588   5.504  0.6138 -0.2252 -1.1224
10787SOL    HW234039   2.488   4.451   5.451  0.9956 -0.3794 -0.9739
10788SOL     OW34040   4.403   1.870   7.730  0.1109 -0.6058  0.2575
10788SOL    HW134041   4.313   1.858   7.700 -0.4643  1.4423  1.0730
10788SOL    HW234042   4.457   1.834   7.660 -1.3096 -0.2782 -1.0312
10789SOL     OW34043   3.597   6.484   0.330  0.1002  0.1337  0.2931
10789SOL    HW134044   3.684   6.514   0.356 -0.6259  1.4915  1.2006
10789SOL    HW234045   3.587   6.515   0.240 -0.1145  1.4600  0.7709
10790SOL     OW34046   0.027   3.726   2.802 -0.0971  0.1668  0.3583
10790SOL    HW134047   0.104   3.767   2.764 -0.3396 -1.5525 -2.0720
10790SOL    HW234048  -0.035   3.799   2.813  0.5935  0.9782 -0.9406
10791SOL     OW34049   7.177   6.466   8.496  0.6163 -0.0762 -0.3738
10791SOL    HW134050   7.245   6.416   8.539  0.7278  3.3157  3.6946
10791SOL    HW234051   7.221   6.547   8.468 -1.1903  1.1919  0.3388
10792SOL     OW34052   1.220   8.916   2.969  0.8275 -0.5495  0.4161
10792SOL    HW134053   1.210   8.861   2.891  1.2697  0.2334 -0.1993
10792SOL    HW234054   1.236   8.854   3.040 -0.1685 -1.3107 -0.0097
10793SOL     OW34055   7.338   8.239   5.157  0.0460 -0.0654 -0.0771
10793SOL    HW134056   7.281   8.300   5.110 -0.2760  0.4646  0.9981
10793SOL    HW234057   7.427   8.271   5.140 -0.1112  0.5814  0.3181
10794SOL     OW34058   8.163   5.170   6.703 -0.2004 -0.4456  0.3666
10794SOL    HW134059   8.253   5.187   6.676 -0.9892  2.9875 -0.3721
10794SOL    HW234060   8.138   5.248   6.753 -2.3872 -1.8823  1.6180
10795SOL     OW34061   3.126   4.720   1.087  0.4904 -0.6535  0.3319
10795SOL    HW134062   3.178   4.799   1.105 -0.6601 -0.3334  2.4290
10795SOL    HW234063   3.190   4.656   1.054  1.6985  0.6400  0.0956
10796SOL     OW34064   8.679   5.728   6.636 -0.0906 -0.2956  0.2338
10796SOL    HW134065   8.763   5.755   6.672  0.1090 -0.6113 -0.0015
10796SOL    HW234066   8.682   5.755   6.544 -0.2599 -0.2755  0.2331
10797SOL     OW34067   0.092   7.141   8.408 -0.3667  0.5840  0.5862
10797SOL    HW134068   0.171   7.088   8.395 -0.5828  0.5527 -0.6790
10797SOL    HW234069   0.021   7.087   8.374 -0.9222  0.6784  1.5737
10798SOL     OW34070   7.795   8.725   8.590 -0.2273 -0.1958 -0.0480
10798SOL    HW134071   7.803   8.808   8.637  0.2985 -0.5405  0.4868
10798SOL    HW234072   7.851   8.664   8.639 -0.6962 -0.8934 -0.3698
10799SOL     OW34073   7.298   4.579   1.254  0.2097 -0.1677 -0.0867
10799SOL    HW134074   7.223   4.547   1.305 -0.9329 -0.4084 -1.8887
10799SOL    HW234075   7.375   4.541   1.297 -0.7310 -0.3574  1.4544
10800SOL     OW34076   6.164   0.401   0.474 -0.1732 -0.4188 -0.0192
10800SOL    HW134077   6.209   0.476   0.435  0.0684 -1.1085 -1.0897
10800SOL    HW234078   6.148   0.342   0.400 -0.2445 -1.4770  0.8345
10801SOL     OW34079   7.931   2.111   1.766 -0.5477  0.0515  0.2630
10801SOL    HW134080   8.011   2.136   1.720  0.9290 -1.1401  2.1165
10801SOL    HW234081   7.884   2.055   1.705  1.6547 -1.9567  0.3401
10802SOL     OW34082   3.491   4.588   7.925  0.3583 -0.1625  0.1877
10802SOL    HW134083   3.438   4.607   8.002  0.8857  0.1769  0.4637
10802SOL    HW234084   3.580   4.580   7.958  0.7986  1.3614 -0.5754
10803SOL     OW34085   1.748   5.271   6.996 -0.1408  0.0325 -0.3036
10803SOL    HW134086   1.723   5.312   7.079 -2.4973  2.8923 -2.3330
10803SOL    HW234087   1.760   5.179   7.018  0.7641  0.9656  3.4931
10804SOL     OW34088   5.577   6.537   2.467 -0.1780 -0.4478  0.7298
10804SOL    HW134089   5.645   6.590   2.424 -0.9924 -0.4516 -0.5619
10804SOL    HW234090   5.602   6.447   2.448  1.0572 -0.5459  2.7022
10805SOL     OW34091   4.420   9.019   2.027  0.2574  0.1111 -0.2382
10805SOL    HW134092   4.512   9.017   2.001  0.0581 -0.7455 -0.8880
10805SOL    HW234093   4.419   8.978   2.114  0.5337  0.4319 -0.0827
10806SOL     OW34094   7.829   8.842   2.188 -0.0806 -0.3415 -0.4064
10806SOL    HW134095   7.809   8.852   2.281 -1.1027  2.2647 -0.8610
10806SOL    HW234096   7.810   8.751   2.168 -0.1424 -0.8477  1.8599
10807SOL     OW34097   3.930   1.995   8.576  0.0854 -0.0884  0.5400
10807SOL    HW134098   3.992   1.941   8.625 -0.4801 -0.2575  1.0701
10807SOL    HW234099   3.881   2.042   8.643  1.5551  2.2160  0.0849
10808SOL     OW34100   6.456   1.069   6.286 -0.3684 -0.1765  0.7702
10808SOL    HW134101   6.487   1.012   6.356  0.8288 -2.9876 -1.9443
10808SOL    HW234102   6.361   1.059   6.287 -0.3167 -0.6161  1.6509
10809SOL     OW34103   6.122   8.533   2.191 -0.6753  0.5685 -0.3750
10809SOL    HW134104   6.143   8.440   2.202  0.2183  0.8489  0.3263
10809SOL    HW234105   6.026   8.536   2.188 -0.7207 -0.3201  0.0462
10810SOL     OW34106   0.608   3.742   8.111 -0.0540 -0.6501  0.3297
10810SOL    HW134107   0.586   3.769   8.200  1.6633  1.4224  0.1524
10810SOL    HW234108   0.654   3.659   8.122 -3.4726 -2.5535  1.0288
10811SOL     OW34109   1.888   7.407   7.845 -0.1557  0.2435  0.1553
10811SOL    HW134110   1.934   7.490   7.856 -0.9666  0.7363 -0.1182
10811SOL    HW234111   1.850   7.390   7.932 -0.0748  0.2120  0.1845
10812SOL     OW34112   8.839   1.015   7.428  0.3157 -0.1708 -0.0056
10812SOL    HW134113   8.924   1.000   7.470 -0.0772  1.4847  1.4597
10812SOL    HW234114   8.778   0.960   7.476  0.7208 -2.2260 -1.7887
10813SOL     OW34115   1.362   8.714   0.956 -0.2295 -0.0105  0.1549
10813SOL    HW134116   1.370   8.802   0.993  1.7769  0.0552 -0.3848
10813SOL    HW234117   1.309   8.667   1.020 -1.3306  1.5732  0.4612
10814SOL     OW34118   4.700   5.088   6.351  0.0036  0.0250 -0.4575
10814SOL    HW134119   4.733   5.145   6.282  0.9441  0.6729  0.5180
10814SOL    HW234120   4.752   5.110   6.428 -0.2593 -1.4867  0.1807
10815SOL     OW34121   3.797   0.431   4.060  0.0755 -0.2052  0.2459
10815SOL    HW134122   3.754   0.397   3.982  1.5038 -0.5166 -0.4325
10815SOL    HW234123   3.890   0.430   4.038  0.3705  1.3470  1.3104
10816SOL     OW34124   1.881   6.956   0.144  0.4775  0.3061  0.5877
10816SOL    HW134125   1.831   7.036   0.160 -0.3016 -0.4458  1.9863
10816SOL    HW234126   1.972   6.986   0.137  0.4714  1.0996  3.1984
10817SOL     OW34127   2.388   1.036   8.028 -0.5316 -0.0219 -0.8726
10817SOL    HW134128   2.391   1.118   7.979  2.4894  0.5373  0.2016
10817SOL    HW234129   2.386   1.062   8.120  2.0442 -1.1011 -0.4617
10818SOL     OW34130   8.278   6.348   5.487  0.2121 -0.5658 -0.1805
10818SOL    HW134131   8.190   6.327   5.456  0.0869  2.2928 -1.9541
10818SOL    HW234132   8.326   6.371   5.408  1.4231  1.6718  1.1549
10819SOL     OW34133   1.979   7.093   6.553  0.3378  0.4057 -0.2676
10819SOL    HW134134   1.911   7.049   6.502 -1.6034  1.6074  1.2070
10819SOL    HW234135   2.013   7.025   6.612  1.1152 -0.4347 -1.6485
10820SOL     OW34136   8.696   8.880   7.463  0.3608 -0.3316 -0.2737
10820SOL    HW134137   8.775   8.902   7.512  0.3734 -3.3488  1.2181
10820SOL    HW234138   8.662   8.801   7.507 -2.8530  0.2373 -1.5773
10821SOL     OW34139   0.405   0.111   2.106 -0.5552  0.3916  0.3271
10821SOL    HW134140   0.344   0.181   2.132  0.9081  0.8686  2.5924
10821SOL    HW234141   0.398   0.047   2.177  0.9469  0.0673  0.1781
10822SOL     OW34142   1.942   5.666   1.687 -0.4531  0.3003 -0.3005
10822SOL    HW134143   2.000   5.740   1.705  0.6530 -1.1187  2.1446
10822SOL    HW234144   1.861   5.687   1.734 -0.7283  0.6775 -0.9272
10823SOL     OW34145   3.615   5.893   1.392  0.2755 -0.4289  0.1075
10823SOL    HW134146   3.589   5.973   1.438  0.0561 -0.4838  0.0773
10823SOL    HW234147   3.708   5.883   1.412 -0.3241 -1.7388  2.4924
10824SOL     OW34148   9.131   1.600   5.603 -0.0098 -0.1860 -0.1777
10824SOL    HW134149   9.099   1.665   5.666  0.4538  1.1583 -1.2941
10824SOL    HW234150   9.100   1.631   5.518  1.4854 -0.5925 -0.8995
10825SOL     OW34151   4.590   3.868   5.887 -0.2835 -0.3794  0.1949
10825SOL    HW134152   4.678   3.830   5.878  0.1059  0.3783  0.7365
10825SOL    HW234153   4.591   3.945   5.831 -0.8946 -0.8521 -0.4743
10826SOL     OW34154   4.175   0.862   5.392  0.3297  0.4816 -0.0490
10826SOL    HW134155   4.259   0.867   5.346 -0.1270  0.7971 -0.8541
10826SOL    HW234156   4.117   0.816   5.331 -0.6538  2.1145 -0.3596
10827SOL     OW34157   4.323   1.700   7.495  0.2127  0.2615  0.0581
10827SOL    HW134158   4.337   1.702   7.401  0.7265 -1.8539  0.0781
10827SOL    HW234159   4.263   1.772   7.512 -0.8478 -0.1158 -2.0346
10828SOL     OW34160   3.466   7.170   3.343 -0.6677 -0.3498 -0.1198
10828SOL    HW134161   3.491   7.088   3.301  0.1528 -0.1512 -0.0378
10828SOL    HW234162   3.549   7.207   3.375 -1.0328  0.4759 -0.1041
10829SOL     OW34163   4.764   8.411   4.189 -0.4335 -0.2182  0.0386
10829SOL    HW134164   4.764   8.481   4.124 -1.5544 -0.8237 -0.6247
10829SOL    HW234165   4.800   8.335   4.143 -0.7363 -0.5116  0.2818
10830SOL     OW34166   2.230   9.015   4.761  0.6797 -0.3082 -0.6175
10830SOL    HW134167   2.244   9.024   4.856  0.9139 -0.2534 -0.6575
10830SOL    HW234168   2.311   9.046   4.722  0.1269  0.8499 -0.8864
10831SOL     OW34169   5.126   8.261   2.018  0.4442  0.6247 -0.2632
10831SOL    HW134170   5.072   8.183   2.005 -0.6396  1.5444 -1.3518
10831SOL    HW234171   5.081   8.330   1.969  0.9868  2.1174  1.2983
10832SOL     OW34172   6.586   8.173   3.708 -0.5329  0.3321  0.3296
10832SOL    HW134173   6.504   8.141   3.748 -0.9392  1.9357  0.8118
10832SOL    HW234174   6.564   8.261   3.676  0.6947  0.3179 -0.5690
10833SOL     OW34175   2.385   0.767   5.866 -0.1380  0.5163 -0.0281
10833SOL    HW134176   2.322   0.837   5.884 -0.1379  0.7947 -1.0754
10833SOL    HW234177   2.469   0.800   5.898  0.2341  1.8030 -2.2680
10834SOL     OW34178   3.216   7.268   6.812  0.5040 -0.0414  0.1832
10834SOL    HW134179   3.238   7.350   6.768  0.2193  0.7411  1.4689
10834SOL    HW234180   3.292   7.211   6.799  0.9165  0.6157 -0.2662
10835SOL     OW34181   1.197   6.346   8.500 -0.1933 -0.4693 -0.2252
10835SOL    HW134182   1.249   6.266   8.485 -0.8004 -1.0723  0.8248
10835SOL    HW234183   1.120   6.316   8.548 -0.5004  0.7317  0.0529
10836SOL     OW34184   0.321   9.228   3.346 -0.1952  0.3209 -0.6584
10836SOL    HW134185   0.241   9.280   3.347  0.5700  1.5340 -0.6146
10836SOL    HW234186   0.292   9.138   3.331 -1.9006  0.1554  3.0559
10837SOL     OW34187   2.836   4.353   2.945 -0.3095 -0.5110  0.3636
10837SOL    HW134188   2.784   4.381   2.869  2.2044  1.0641 -0.8454
10837SOL    HW234189   2.771   4.329   3.011 -2.5880  1.5928 -1.0196
10838SOL     OW34190   4.416   2.070   2.634  0.2035  0.0750  0.5463
10838SOL    HW134191   4.511   2.078   2.644  0.5878  0.0826 -2.6181
10838SOL    HW234192   4.400   1.976   2.640  0.2290  0.1658  2.2916
10839SOL     OW34193   2.950   0.696   5.095 -0.3790 -0.3933  0.1464
10839SOL    HW134194   2.988   0.688   5.008 -1.0100  0.0945 -0.1778
10839SOL    HW234195   2.997   0.631   5.148 -1.1662 -1.8895 -0.9572
10840SOL     OW34196   0.550   1.895   8.125 -0.1468  0.1751  0.0534
10840SOL    HW134197   0.477   1.956   8.112 -0.8246 -0.4127  1.0268
10840SOL    HW234198   0.543   1.833   8.053 -0.5622  0.1786  0.0848
10841SOL     OW34199   7.402   6.858   6.174 -0.0470 -0.0909  0.1772
10841SOL    HW134200   7.312   6.875   6.146  0.8676  1.9216 -1.7062
10841SOL    HW234201   7.411   6.763   6.172 -2.3276 -0.3429  1.0868
10842SOL     OW34202   4.991   5.824   6.420  0.0584 -0.5280 -0.1719
10842SOL    HW134203   4.955   5.857   6.502  1.2281  1.1719 -0.3163
10842SOL    HW234204   4.987   5.898   6.360 -0.5606 -1.6863 -1.5996
10843SOL     OW34205   5.241   4.083   6.107 -0.1616  0.5257 -0.0720
10843SOL    HW134206   5.244   4.067   6.201 -1.3825 -0.6823 -0.2250
10843SOL    HW234207   5.196   4.167   6.098  2.7056  2.1766  0.5498
10844SOL     OW34208   3.942   4.347   5.177  0.2688  0.0006 -0.5372
10844SOL    HW134209   3.948   4.356   5.272 -0.1605 -0.7478 -0.4280
10844SOL    HW234210   4.030   4.323   5.149  0.0542 -1.3512 -0.1244
10845SOL     OW34211   8.924   6.689   7.891 -0.1445 -0.0318  0.4550
10845SOL    HW134212   8.994   6.705   7.828 -0.5413  1.6138  0.4293
10845SOL    HW234213   8.968   6.646   7.965  1.0264  1.6330  0.7390
10846SOL     OW34214   4.862   9.191   0.312 -0.5088  0.1330 -0.0497
10846SOL    HW134215   4.869   9.261   0.377 -1.4460 -0.2651  0.5002
10846SOL    HW234216   4.953   9.167   0.292 -0.1918  1.2785 -0.0043
10847SOL     OW34217   3.771   4.133   9.282 -0.1205  0.4170  0.7257
10847SOL    HW134218   3.742   4.222   9.303  0.3999  1.0695 -1.2404
10847SOL    HW234219   3.697   4.096   9.233  0.5733  0.5865 -0.4760
10848SOL     OW34220   3.747   9.038   8.458  0.0011  0.2605 -0.1988
10848SOL    HW134221   3.729   9.033   8.552  1.6698  0.8299  0.1566
10848SOL    HW234222   3.757   9.131   8.440  0.3470  0.1009 -0.8253
10849SOL     OW34223   3.842   5.385   4.458 -0.4361  0.4247 -0.5514
10849SOL    HW134224   3.904   5.319   4.429  1.3376  1.4501  0.8177
10849SOL    HW234225   3.868   5.465   4.414  0.3612  1.2704  1.3775
10850SOL     OW34226   4.774   7.399   7.236 -0.3585 -0.4404  0.1883
10850SOL    HW134227   4.787   7.411   7.141 -0.8505  0.6135  0.2371
10850SOL    HW234228   4.710   7.467   7.259  0.8818  0.2666  1.5598
10851SOL     OW34229   5.815   1.460   0.711 -0.2611 -0.6442  0.6803
10851SOL    HW134230   5.745   1.435   0.772 -1.1232  1.4220  0.6064
10851SOL    HW234231   5.807   1.399   0.638 -2.8201  0.3070  0.1117
10852SOL     OW34232   6.202   1.438   7.275  0.1324 -0.4947 -0.6551
10852SOL    HW134233   6.191   1.405   7.364  0.9128 -0.8515 -0.6854
10852SOL    HW234234   6.127   1.402   7.227  0.3416 -1.2689 -0.4140
10853SOL     OW34235   3.784   3.720   0.714  0.6005  0.4791 -0.7337
10853SOL    HW134236   3.836   3.681   0.644  0.5579  0.4193 -0.7323
10853SOL    HW234237   3.847   3.768   0.767  0.7026  0.1266 -0.5374
10854SOL     OW34238   4.177   9.027   5.958 -0.3516 -0.0972 -0.1310
10854SOL    HW134239   4.161   8.982   5.876 -1.4364 -0.2745  0.1768
10854SOL    HW234240   4.266   9.002   5.983 -0.8533 -1.8611 -0.0899
10855SOL     OW34241   5.759   1.218   5.955 -0.4518 -0.0767  0.0029
10855SOL    HW134242   5.781   1.169   6.034 -1.0139 -1.3714 -0.6332
10855SOL    HW234243   5.741   1.306   5.986  0.4809 -0.2811  1.1766
10856SOL     OW34244   5.372   8.185   5.133  0.0640  0.0238 -0.0070
10856SOL    HW134245   5.391   8.247   5.204  2.1632 -0.6504  0.0402
10856SOL    HW234246   5.446   8.125   5.133 -1.5895 -2.0772 -0.5411
10857SOL     OW34247   1.851   3.128   7.354  0.2517 -0.1737 -0.1586
10857SOL    HW134248   1.787   3.194   7.329 -0.6558 -0.0835  2.2585
10857SOL    HW234249   1.928   3.179   7.382 -0.4882 -0.0929  1.8125
10858SOL     OW34250   4.812   1.235   3.119 -0.5106 -0.1019  0.3135
10858SOL    HW134251   4.894   1.283   3.130 -0.4403 -0.1500  0.0126
10858SOL    HW234252   4.748   1.283   3.172 -0.5193  0.5219 -0.2524
10859SOL     OW34253   3.262   1.914   6.998 -0.2999 -0.2785  0.1651
10859SOL    HW134254   3.255   1.849   6.929  1.5975  0.1719 -0.4907
10859SOL    HW234255   3.216   1.991   6.964  1.2352  0.1823 -0.9243
10860SOL     OW34256   0.179   1.813   5.407  0.1414  0.4187  0.0312
10860SOL    HW134257   0.211   1.728   5.437 -1.1081  0.0739  0.4433
10860SOL    HW234258   0.139   1.852   5.485 -0.6096  0.7349 -0.5093
10861SOL     OW34259   5.022   4.793   6.151 -0.2594  0.1352  0.2901
10861SOL    HW134260   5.045   4.723   6.089 -0.2521 -1.5309  2.1192
10861SOL    HW234261   4.945   4.835   6.112 -1.7751 -2.4897  0.3097
10862SOL     OW34262   7.450   8.062   4.437  0.5727  0.7507  0.5295
10862SOL    HW134263   7.468   8.156   4.447 -1.1209  1.0878  0.5049
10862SOL    HW234264   7.414   8.037   4.522  0.6325  0.2065  0.3901
10863SOL     OW34265   8.425   7.881   8.328 -0.2626 -0.0651 -0.0383
10863SOL    HW134266   8.460   7.969   8.317  0.7991 -0.5735 -0.9072
10863SOL    HW234267   8.416   7.847   8.239 -2.4664 -0.1676  0.1965
10864SOL     OW34268   8.608   7.383   8.457  0.6343  0.6002  0.1126
10864SOL    HW134269   8.609   7.309   8.518 -1.0758  1.2598  0.9735
10864SOL    HW234270   8.613   7.460   8.514 -0.7373  1.2156 -0.5777
10865SOL     OW34271   9.040   1.601   3.370  0.3970 -0.5776 -0.1181
10865SOL    HW134272   8.965   1.627   3.316  1.0975  0.9501 -0.3847
10865SOL    HW234273   9.021   1.511   3.395 -1.7587 -0.0798  0.1842
10866SOL     OW34274   0.488   2.094   8.645  0.7503 -0.1554 -0.0346
10866SOL    HW134275   0.468   2.142   8.565 -1.2884  1.0438  1.1369
10866SOL    HW234276   0.482   2.002   8.619 -0.5378  0.2134 -1.1258
10867SOL     OW34277   9.171   1.849   3.453  0.4984 -0.1958 -0.1224
10867SOL    HW134278   9.127   1.769   3.425  2.7656 -0.8879 -1.9080
10867SOL    HW234279   9.213   1.824   3.536 -0.2316 -0.3344  0.2082
10868SOL     OW34280   6.127   3.432   2.719 -0.7949 -0.4533  0.3530
10868SOL    HW134281   6.131   3.515   2.671 -1.9554  0.5725  1.9842
10868SOL    HW234282   6.185   3.445   2.794 -2.6960 -0.2823  1.8316
10869SOL     OW34283   6.576   8.737   2.069 -0.0708 -0.1186  0.2860
10869SOL    HW134284   6.486   8.705   2.076 -0.6620  1.2553 -0.7436
10869SOL    HW234285   6.604   8.712   1.982  0.4538 -0.3194  0.5121
10870SOL     OW34286   6.743   5.923   7.907 -0.3815  0.2498 -0.0998
10870SOL    HW134287   6.674   5.870   7.946  0.0577  0.2407  0.6571
10870SOL    HW234288   6.779   5.868   7.838 -0.8880  0.1180 -0.2653
10871SOL     OW34289   1.494   0.652   7.022  0.5042 -0.0169 -0.1291
10871SOL    HW134290   1.588   0.645   7.006  0.9051  0.8414  1.6953
10871SOL    HW234291   1.453   0.608   6.948  2.3415 -0.2027 -1.0497
10872SOL     OW34292   8.358   5.189   8.239 -0.0625 -0.0773  0.1862
10872SOL    HW134293   8.379   5.144   8.320  1.2644 -0.8657 -0.5740
10872SOL    HW234294   8.298   5.258   8.265 -0.6500 -1.1135  1.6441
10873SOL     OW34295   0.485   5.068   0.049 -0.2379  0.1283 -0.4018
10873SOL    HW134296   0.437   5.147   0.074  0.6850  0.0457  1.8223
10873SOL    HW234297   0.432   4.996   0.083  1.3690  0.0368  2.0189
10874SOL     OW34298   2.140   5.341   0.773 -0.7434  0.1123  0.3322
10874SOL    HW134299   2.126   5.267   0.831 -1.6313  0.3080  0.3821
10874SOL    HW234300   2.054   5.356   0.732  0.4693 -1.7515 -3.1124
10875SOL     OW34301   2.183   7.828   0.632  0.1366  0.1775 -0.4103
10875SOL    HW134302   2.270   7.835   0.593  0.2638 -0.4103 -0.2376
10875SOL    HW234303   2.195   7.770   0.707 -0.0510  1.5238  0.6726
10876SOL     OW34304   0.068   7.729   3.367 -0.5280  0.0890  0.3660
10876SOL    HW134305   0.018   7.673   3.308 -1.1420 -0.6197  1.5373
10876SOL    HW234306   0.155   7.733   3.329 -0.2333 -2.4117  0.7254
10877SOL     OW34307   8.801   2.040   8.502 -0.1149  0.5621 -0.2517
10877SOL    HW134308   8.755   2.109   8.549 -2.3087 -0.3962 -0.9088
10877SOL    HW234309   8.746   2.023   8.426 -0.4381 -2.9383  0.6855
10878SOL     OW34310   1.750   7.684   3.339 -0.8194  0.0149 -0.3619
10878SOL    HW134311   1.702   7.751   3.388 -1.0225  0.2439 -0.8642
10878SOL    HW234312   1.690   7.659   3.268  0.1591  0.9704 -1.5445
10879SOL     OW34313   0.780   2.648   6.656  0.1484 -0.7215 -0.5666
10879SOL    HW134314   0.851   2.712   6.648  0.7203 -1.1857  0.5937
10879SOL    HW234315   0.700   2.699   6.645  0.5001  0.6383  2.5181
10880SOL     OW34316   2.198   4.153   5.380 -0.0173  0.9690  0.2561
10880SOL    HW134317   2.236   4.074   5.419  1.6955  1.9752  0.6856
10880SOL    HW234318   2.116   4.167   5.427  0.1222 -0.0416  0.8093
10881SOL     OW34319   5.466   5.775   7.701 -0.0069  0.5885 -0.5747
10881SOL    HW134320   5.455   5.816   7.787  0.1533  1.3879 -0.9360
10881SOL    HW234321   5.560   5.780   7.684 -0.1055  0.9341 -1.0422
10882SOL     OW34322   0.060   2.535   5.148  0.9794 -0.1935  0.2831
10882SOL    HW134323  -0.006   2.554   5.081  1.6476  0.9495 -0.0810
10882SOL    HW234324   0.128   2.487   5.101  1.2592  0.2521  0.2312
10883SOL     OW34325   5.928   3.552   9.004 -0.1417 -0.4759  0.1850
10883SOL    HW134326   5.937   3.457   8.999 -1.7342 -0.5825 -0.7027
10883SOL    HW234327   5.848   3.572   8.956  1.1477  1.5009 -1.2378
10884SOL     OW34328   3.127   6.510   7.938  0.0265  0.3056 -0.7273
10884SOL    HW134329   3.147   6.501   7.845 -1.3757  0.3048 -1.0385
10884SOL    HW234330   3.211   6.534   7.978  0.7479 -0.1926 -1.9088
10885SOL     OW34331   8.500   6.728   4.231  0.1494 -0.7754  0.1950
10885SOL    HW134332   8.528   6.705   4.142 -0.5223 -0.5228 -0.0895
10885SOL    HW234333   8.581   6.741   4.280  0.5236 -0.9141 -0.3846
10886SOL     OW34334   6.271   8.474   6.280  0.5648 -0.2407 -0.6264
10886SOL    HW134335   6.268   8.444   6.189 -1.0306  0.0636 -0.6793
10886SOL    HW234336   6.278   8.394   6.331 -1.1980 -0.5901 -0.8986
10887SOL     OW34337   8.931   7.919   3.041 -0.2424 -0.0863 -0.3036
10887SOL    HW134338   8.955   7.994   3.096 -0.2433  0.3385 -0.8817
10887SOL    HW234339   8.970   7.938   2.956 -0.6829 -0.5004 -0.6018
10888SOL     OW34340   1.725   1.663   1.667 -0.0757 -0.6073  0.1292
10888SOL    HW134341   1.672   1.635   1.592 -1.6669  1.3858  0.4749
10888SOL    HW234342   1.815   1.663   1.633 -0.5760 -1.3199 -1.2788
10889SOL     OW34343   8.330   6.879   2.715  0.1933  0.3420  0.2325
10889SOL    HW134344   8.378   6.829   2.650 -0.3810  0.0124  0.0612
10889SOL    HW234345   8.300   6.814   2.778 -1.1681  0.3689 -0.3693
10890SOL     OW34346   5.259   6.571   3.501 -0.1090 -0.1132  0.4218
10890SOL    HW134347   5.245   6.477   3.485 -0.1515 -0.0773  0.2474
10890SOL    HW234348   5.233   6.584   3.592  0.5900 -0.4122  0.6627
10891SOL     OW34349   1.465   2.877   2.015 -0.2554  0.0561 -0.8225
10891SOL    HW134350   1.521   2.816   1.968  2.2398  1.3126  0.4204
10891SOL    HW234351   1.482   2.962   1.975 -0.9083  0.5343 -0.1036
10892SOL     OW34352   2.369   1.042   8.507 -0.4975  0.1537  0.4530
10892SOL    HW134353   2.342   1.085   8.427 -0.0117  1.1759  0.8276
10892SOL    HW234354   2.439   1.097   8.542  0.7708 -1.4271  0.4754
10893SOL     OW34355   0.672   8.928   0.808  0.3539 -0.0575  0.2323
10893SOL    HW134356   0.754   8.975   0.801  0.1576  0.2001 -0.3916
10893SOL    HW234357   0.693   8.850   0.860  1.5160 -1.1576 -1.8074
10894SOL     OW34358   8.963   5.074   3.033 -0.5015 -0.0140  0.0244
10894SOL    HW134359   8.886   5.035   2.993 -0.7710  1.3549 -0.8058
10894SOL    HW234360   9.025   5.002   3.041 -1.6547 -0.9965  0.1844
10895SOL     OW34361   3.418   7.276   1.953  0.2459  0.0124 -0.0846
10895SOL    HW134362   3.355   7.216   1.992  0.9179 -0.6038  0.0712
10895SOL    HW234363   3.382   7.296   1.867 -1.3481  1.5376  0.9014
10896SOL     OW34364   1.542   6.425   3.646 -0.3836  0.1348 -0.0301
10896SOL    HW134365   1.509   6.495   3.702  0.3873 -1.4850  2.5475
10896SOL    HW234366   1.490   6.349   3.670  1.1627 -1.0178 -0.2277
10897SOL     OW34367   0.289   0.905   1.257  0.0575 -0.0559  1.0796
10897SOL    HW134368   0.194   0.914   1.261 -0.1537 -1.9042  0.6865
10897SOL    HW234369   0.313   0.945   1.174 -0.6742 -1.6420  0.0601
10898SOL     OW34370   0.249   8.004   5.734 -0.3153  0.3992  0.3920
10898SOL    HW134371   0.202   8.058   5.671  1.4984 -0.5127 -1.8130
10898SOL    HW234372   0.224   7.914   5.713 -2.6340  0.2259  3.4789
10899SOL     OW34373   0.675   0.641   4.654  0.4814  0.2429  0.4015
10899SOL    HW134374   0.721   0.670   4.576 -0.3018 -0.5558 -0.3761
10899SOL    HW234375   0.585   0.624   4.624  0.1788 -0.0789  1.4656
10900SOL     OW34376   2.203   1.787   6.545 -0.3571  0.0017  0.2920
10900SOL    HW134377   2.181   1.707   6.592 -2.3103  0.6474  0.5018
10900SOL    HW234378   2.217   1.759   6.455 -1.9779 -0.4482  0.1640
10901SOL     OW34379   8.239   0.118   2.384 -0.0168  0.2362 -0.2967
10901SOL    HW134380   8.156   0.076   2.406  0.5293 -0.7620 -0.1149
10901SOL    HW234381   8.229   0.208   2.413 -1.3135  0.3164 -0.9491
10902SOL     OW34382   7.143   8.453   3.650  0.5407  0.2951  0.4045
10902SOL    HW134383   7.151   8.360   3.669  0.2435  0.4719  1.4417
10902SOL    HW234384   7.125   8.457   3.556  0.0612 -0.7148  0.4442
10903SOL     OW34385   7.768   0.430   4.535  0.2301 -0.0030 -0.5748
10903SOL    HW134386   7.717   0.503   4.500  0.3339  0.0153 -0.6883
10903SOL    HW234387   7.850   0.468   4.563  0.0742  0.0111 -0.1371
10904SOL     OW34388   2.963   6.986   0.924 -0.0189  0.8597  0.0622
10904SOL    HW134389   2.950   6.891   0.931  0.2408  0.8564  0.5762
10904SOL    HW234390   3.038   6.996   0.867  1.0664  0.6915  1.4412
10905SOL     OW34391   4.811   2.323   4.822 -0.2483 -0.1594 -0.1348
10905SOL    HW134392   4.829   2.369   4.904  2.8370 -0.2210 -0.7316
10905SOL    HW234393   4.716   2.323   4.815 -0.4667  1.9207  2.2669
10906SOL     OW34394   3.792   6.669   7.251  0.9045  0.0910  0.0919
10906SOL    HW134395   3.856   6.678   7.322  1.6748  1.0321 -0.6983
10906SOL    HW234396   3.764   6.758   7.232 -0.5734 -0.3145  0.3533
10907SOL     OW34397   3.729   2.058   8.194  0.4619  0.3789 -0.2295
10907SOL    HW134398   3.767   2.116   8.128  0.1430  1.2681  0.3547
10907SOL    HW234399   3.638   2.045   8.166  0.0030  1.6617  0.6152
10908SOL     OW34400   5.462   1.729   2.057  0.0579  0.0471  0.0518
10908SOL    HW134401   5.503   1.645   2.039  1.9889  0.9060  0.3354
10908SOL    HW234402   5.531   1.793   2.042 -0.6523  1.3978  2.3486
10909SOL     OW34403   6.898   3.520   1.634  0.5455  0.7948  0.2607
10909SOL    HW134404   6.854   3.604   1.623 -1.3636 -0.1715  0.3950
10909SOL    HW234405   6.867   3.487   1.719  1.7290  0.2045  0.4806
10910SOL     OW34406   1.838   4.228   3.355  0.6128  0.1390 -0.0665
10910SOL    HW134407   1.888   4.274   3.422  0.8381 -1.1179  0.6284
10910SOL    HW234408   1.750   4.218   3.392  0.3385  0.7246 -0.5486
10911SOL     OW34409   1.081   3.343   2.024 -0.3542  0.7870  0.1262
10911SOL    HW134410   1.117   3.397   1.953 -1.6851  1.8956  0.2711
10911SOL    HW234411   1.084   3.399   2.101 -1.2145  0.4617  0.4065
10912SOL     OW34412   8.452   2.185   3.126 -0.0659 -0.2381 -0.2378
10912SOL    HW134413   8.381   2.249   3.124 -0.1925 -0.3597  0.3279
10912SOL    HW234414   8.426   2.122   3.193  0.5668 -0.2977 -0.0431
10913SOL     OW34415   6.128   2.324   0.655 -0.0887 -0.1316 -0.4404
10913SOL    HW134416   6.095   2.253   0.710  0.0453 -0.2917 -0.5647
10913SOL    HW234417   6.216   2.295   0.629  0.2274  0.3902  0.0631
10914SOL     OW34418   4.069   6.560   4.225  0.2028  0.2162 -0.0412
10914SOL    HW134419   4.137   6.530   4.285 -0.5666 -2.5584 -0.5309
10914SOL    HW234420   4.116   6.581   4.144  0.6169 -0.6119 -0.0127
10915SOL     OW34421   3.005   4.933   9.131  0.0573 -0.5493  0.4217
10915SOL    HW134422   3.030   4.916   9.040 -0.6847 -0.3577  0.1779
10915SOL    HW234423   3.070   4.997   9.162  0.2370 -0.5184 -0.0137
10916SOL     OW34424   7.547   0.770   4.339 -0.0904  0.3958  0.0199
10916SOL    HW134425   7.481   0.840   4.342  0.6820  1.1384 -0.2206
10916SOL    HW234426   7.605   0.796   4.268  0.1681 -0.5329 -0.1129
10917SOL     OW34427   7.234   6.060   8.852 -0.1204  0.1775  0.1315
10917SOL    HW134428   7.312   6.053   8.907  1.7933 -1.2768 -2.6322
10917SOL    HW234429   7.163   6.024   8.905  1.7049 -1.5167  1.4853
10918SOL     OW34430   2.490   5.699   7.157 -0.4296 -0.2636  0.1371
10918SOL    HW134431   2.400   5.668   7.164 -0.3122 -0.4461  0.9269
10918SOL    HW234432   2.532   5.669   7.238  0.3636 -0.2672 -0.2671
10919SOL     OW34433   7.379   5.062   5.224  0.1559  0.5901  0.3289
10919SOL    HW134434   7.458   5.038   5.176 -1.9988 -0.5657 -2.7435
10919SOL    HW234435   7.329   4.981   5.230 -1.0902  1.4362  1.7674
10920SOL     OW34436   0.207   9.141   8.497  0.0313 -0.1974 -0.2957
10920SOL    HW134437   0.232   9.066   8.551 -2.0125 -0.5220  0.2451
10920SOL    HW234438   0.132   9.180   8.543  0.1307  1.2893 -1.3503
10921SOL     OW34439   2.477   1.373   6.793  0.5479 -0.1570 -0.3419
10921SOL    HW134440   2.471   1.430   6.716  0.1212  0.2168 -0.0299
10921SOL    HW234441   2.565   1.389   6.828  0.4232  0.3178 -0.2475
10922SOL     OW34442   8.280   8.670   5.571 -0.7979 -0.1439  0.2876
10922SOL    HW134443   8.333   8.736   5.616  0.7133 -0.5490 -0.8584
10922SOL    HW234444   8.278   8.596   5.632 -0.2828 -0.0148  0.4670
10923SOL     OW34445   7.106   3.967   8.476 -0.2288 -0.4495  0.3172
10923SOL    HW134446   7.158   3.907   8.423 -1.0998 -0.9478  0.0122
10923SOL    HW234447   7.136   3.953   8.566 -0.5516 -1.4814  0.2713
10924SOL     OW34448   2.117   6.775   0.717  0.5363  0.0562  0.1072
10924SOL    HW134449   2.077   6.706   0.664 -0.7873  1.3451 -0.5946
10924SOL    HW234450   2.126   6.849   0.658  1.6914  0.5981  0.9406
10925SOL     OW34451   6.143   1.022   7.838  0.0748 -0.5915  0.0801
10925SOL    HW134452   6.121   1.096   7.782 -0.0713 -0.6665  0.0358
10925SOL    HW234453   6.225   1.047   7.881 -0.4718 -0.0099  0.7954
10926SOL     OW34454   7.580   4.560   4.401 -0.4380  0.7846  0.0112
10926SOL    HW134455   7.533   4.630   4.446  0.2128  2.2288 -1.5288
10926SOL    HW234456   7.610   4.599   4.320 -3.9293 -2.5066 -3.0793
10927SOL     OW34457   4.818   5.777   7.134 -0.2087 -0.2932  0.9809
10927SOL    HW134458   4.814   5.771   7.229  0.5004  0.0029  1.0373
10927SOL    HW234459   4.881   5.848   7.118  1.4345 -1.8836  0.2749
10928SOL     OW34460   5.688   0.225   5.369 -0.1546  0.2540  0.1213
10928SOL    HW134461   5.647   0.248   5.286  0.9942  1.4569 -0.1324
10928SOL    HW234462   5.616   0.198   5.425 -0.6073 -3.9947 -2.3382
10929SOL     OW34463   1.828   0.233   8.881  0.6790  0.3942 -0.3860
10929SOL    HW134464   1.844   0.274   8.796 -0.5839  2.3509  0.2868
10929SOL    HW234465   1.857   0.298   8.945 -0.8102  0.0018  0.7092
10930SOL     OW34466   3.849   2.981   8.097  0.4084  0.0364  0.1659
10930SOL    HW134467   3.930   3.022   8.126  1.6939 -2.2652 -0.0467
10930SOL    HW234468   3.791   2.986   8.173 -0.0114  3.4582 -0.2987
10931SOL     OW34469   9.238   5.162   1.181 -0.0311 -0.6767  0.1198
10931SOL    HW134470   9.315   5.114   1.152 -1.1378 -1.8853 -0.8549
10931SOL    HW234471   9.250   5.171   1.276  0.7049 -1.9493  0.1615
10932SOL     OW34472   8.807   7.506   5.502  0.0093 -0.6169  0.5199
10932SOL    HW134473   8.812   7.451   5.580  0.9615  1.0502  1.6555
10932SOL    HW234474   8.894   7.499   5.462 -0.3720 -1.2046 -0.2279
10933SOL     OW34475   2.442   2.395   0.405 -0.2029  0.1752 -0.1197
10933SOL    HW134476   2.392   2.337   0.348  1.4705 -0.1260 -1.3117
10933SOL    HW234477   2.455   2.475   0.354  1.7677 -0.2988 -0.4263
10934SOL     OW34478   5.296   2.820   7.040  0.5371  0.2293 -0.0723
10934SOL    HW134479   5.299   2.725   7.047 -0.4069  0.3291  1.6627
10934SOL    HW234480   5.306   2.837   6.946 -1.6397 -1.6660 -0.6709
10935SOL     OW34481   0.754   7.288   7.326  0.0972  0.0072 -0.5135
10935SOL    HW134482   0.741   7.229   7.251  0.4051 -1.9824  0.9856
10935SOL    HW234483   0.699   7.251   7.395  0.0526  1.6767  0.3542
10936SOL     OW34484   5.428   7.978   3.322  0.1136  0.2493  0.6167
10936SOL    HW134485   5.344   7.974   3.276  0.5934  0.7482 -0.3082
10936SOL    HW234486   5.404   7.972   3.415 -0.8958 -0.2113  0.3385
10937SOL     OW34487   8.030   3.280   1.789 -0.4094  0.4321 -0.6431
10937SOL    HW134488   8.109   3.307   1.836 -0.5898  1.1480 -0.7405
10937SOL    HW234489   7.959   3.332   1.828 -0.9616 -0.7584 -0.0402
10938SOL     OW34490   7.485   1.587   7.915 -0.2191 -0.2141 -0.3308
10938SOL    HW134491   7.555   1.525   7.894 -1.3515 -1.3286 -0.8890
10938SOL    HW234492   7.409   1.533   7.932 -1.2798  1.0249 -0.9841
10939SOL     OW34493   1.568   8.666   8.533  0.4185 -0.0128  0.2118
10939SOL    HW134494   1.540   8.676   8.624 -1.2270 -0.3829 -0.2456
10939SOL    HW234495   1.502   8.712   8.482 -0.1817 -2.0949 -0.9692
10940SOL     OW34496   4.274   5.191   6.917  0.3559 -0.3180  0.1506
10940SOL    HW134497   4.359   5.209   6.878  0.3848  0.1165  0.3980
10940SOL    HW234498   4.211   5.216   6.850  0.3777  1.4345  0.7366
10941SOL     OW34499   4.740   0.033   1.878  0.6160  0.3457 -0.0229
10941SOL    HW134500   4.673   0.097   1.852  0.8981  0.0802 -1.4574
10941SOL    HW234501   4.780   0.005   1.795 -0.0321 -2.2959  0.5133
10942SOL     OW34502   2.610   1.598   8.918 -0.3207  0.4573  0.2860
10942SOL    HW134503   2.675   1.529   8.901 -0.5953  0.6081 -1.5495
10942SOL    HW234504   2.580   1.581   9.007 -0.9782 -2.3212 -0.4114
10943SOL     OW34505   1.355   8.767   0.699 -0.9399  0.1341 -0.8434
10943SOL    HW134506   1.370   8.860   0.711 -2.3027  0.0570  1.7158
10943SOL    HW234507   1.342   8.732   0.787  0.2793 -2.6239 -1.6810
10944SOL     OW34508   1.001   1.804   0.086  0.3361 -0.1073  0.3967
10944SOL    HW134509   0.959   1.769   0.164  0.0504  0.2984  0.4301
10944SOL    HW234510   1.023   1.728   0.033  0.4449 -0.3763  0.8315
10945SOL     OW34511   7.921   6.845   3.632  0.0893 -0.3144 -0.6222
10945SOL    HW134512   7.881   6.797   3.559  1.6115 -0.7248 -1.2066
10945SOL    HW234513   7.957   6.778   3.689  1.2773  0.0900 -0.8856
10946SOL     OW34514   5.758   4.426   3.066  0.2835  0.5160  0.2631
10946SOL    HW134515   5.790   4.335   3.067 -0.3458  0.2970  0.5710
10946SOL    HW234516   5.725   4.440   3.155 -1.4108  0.4050 -0.3245
10947SOL     OW34517   2.235   6.715   9.172  0.2327 -0.4423 -0.6711
10947SOL    HW134518   2.239   6.778   9.100  0.2433  2.0534  1.4389
10947SOL    HW234519   2.315   6.663   9.163  0.0726 -0.3880 -2.6387
10948SOL     OW34520   9.262   7.308   4.031  0.1236  0.0043  0.9409
10948SOL    HW134521   9.322   7.373   3.995  0.2985 -0.0630  1.1110
10948SOL    HW234522   9.295   7.290   4.118 -0.1459 -0.0329  1.0363
10949SOL     OW34523   7.814   3.217   7.944  0.0507  0.9849  0.0336
10949SOL    HW134524   7.856   3.141   7.984 -1.4518  1.3893  2.4447
10949SOL    HW234525   7.886   3.263   7.900  1.3583 -0.6072  0.4362
10950SOL     OW34526   0.373   2.546   8.331  0.2209  0.0172 -0.0045
10950SOL    HW134527   0.356   2.586   8.246  0.9447  1.8015  0.6507
10950SOL    HW234528   0.454   2.496   8.318  0.7184  0.8539 -0.2149
10951SOL     OW34529   7.295   2.388   5.157 -0.3736  0.6829 -0.1054
10951SOL    HW134530   7.254   2.313   5.112  2.2385 -0.6783 -0.3251
10951SOL    HW234531   7.277   2.373   5.250  0.0306 -0.1881 -0.1588
10952SOL     OW34532   2.990   8.107   5.652  0.4402 -0.0502 -0.0391
10952SOL    HW134533   3.036   8.038   5.604  0.6252  0.0760 -0.0424
10952SOL    HW234534   3.036   8.112   5.736 -0.4310 -0.8741  0.4952
10953SOL     OW34535   4.070   2.360   3.147  0.7333 -0.0601  0.0214
10953SOL    HW134536   4.018   2.435   3.176  3.2526  0.8995  2.3646
10953SOL    HW234537   4.117   2.333   3.226  0.1451 -3.9058 -0.8892
10954SOL     OW34538   8.596   3.178   3.811 -0.4563  0.3147 -0.4420
10954SOL    HW134539   8.641   3.163   3.727 -1.2096 -1.6951 -0.5307
10954SOL    HW234540   8.573   3.090   3.841 -4.0943  1.2373 -0.2731
10955SOL     OW34541   3.259   0.209   5.244 -0.0183 -0.0709  0.5086
10955SOL    HW134542   3.209   0.259   5.180  0.5210  1.5502  1.3270
10955SOL    HW234543   3.194   0.154   5.288 -0.4327 -1.0043 -1.2158
10956SOL     OW34544   1.179   5.199   3.533 -0.6988 -0.3900  0.5949
10956SOL    HW134545   1.165   5.287   3.567 -1.6498 -1.0120  1.8617
10956SOL    HW234546   1.264   5.172   3.568 -0.5492 -0.0972  0.4560
10957SOL     OW34547   7.903   4.531   4.198  0.0495  0.0667 -0.3127
10957SOL    HW134548   7.873   4.503   4.285 -1.7257  1.0810 -0.5698
10957SOL    HW234549   7.826   4.572   4.158  1.4166  1.4920 -1.5648
10958SOL     OW34550   8.069   8.471   8.765 -0.6243  0.3951  0.1606
10958SOL    HW134551   8.000   8.530   8.796  0.6379  1.3854  1.0900
10958SOL    HW234552   8.031   8.383   8.775 -1.0191  0.8176  2.5305
10959SOL     OW34553   1.234   2.917   0.217 -0.2949 -0.5704  0.0922
10959SOL    HW134554   1.305   2.978   0.196 -1.0551  0.9472  1.7546
10959SOL    HW234555   1.277   2.845   0.263  0.3138 -0.1976  0.1049
10960SOL     OW34556   5.002   5.836   3.707  0.5310 -0.4900 -0.4845
10960SOL    HW134557   5.093   5.865   3.696  0.4331  0.3494  0.8570
10960SOL    HW234558   4.954   5.915   3.729 -0.2891 -1.1574  0.1294
10961SOL     OW34559   3.500   4.616   4.985 -0.1137  0.0047  0.4889
10961SOL    HW134560   3.433   4.589   5.048  0.4874  1.6556  1.8592
10961SOL    HW234561   3.505   4.711   4.995  0.9962  0.1267 -1.0662
10962SOL     OW34562   8.858   4.490   1.997  0.3944  0.4675  0.0869
10962SOL    HW134563   8.822   4.405   2.023 -1.0575  1.4410  1.3491
10962SOL    HW234564   8.951   4.474   1.986  0.3723 -0.9668  1.7825
10963SOL     OW34565   3.132   7.933   1.203  0.0650 -0.2525 -0.0618
10963SOL    HW134566   3.180   7.868   1.152 -0.5226 -2.6957  2.4073
10963SOL    HW234567   3.050   7.945   1.155  0.1881 -1.3327 -0.5620
10964SOL     OW34568   3.442   2.395   2.519 -0.1844  0.2436  0.0634
10964SOL    HW134569   3.388   2.447   2.579 -1.5256  0.4118 -1.2679
10964SOL    HW234570   3.379   2.350   2.464  1.0331 -0.6714 -0.5874
10965SOL     OW34571   5.018   5.602   8.527  0.0388 -0.2448 -0.8212
10965SOL    HW134572   4.956   5.531   8.510 -0.6220  1.0068 -4.1609
10965SOL    HW234573   5.069   5.609   8.446  0.7807  2.3831 -0.1757
10966SOL     OW34574   5.467   1.635   4.490 -0.2318 -0.5269  0.1763
10966SOL    HW134575   5.495   1.544   4.502 -0.8569 -0.5571  1.4768
10966SOL    HW234576   5.377   1.637   4.521  0.1923  0.8203  1.3518
10967SOL     OW34577   4.612   5.428   7.140 -0.4886  0.6247 -0.1589
10967SOL    HW134578   4.665   5.348   7.134  1.1439  1.6965 -0.0785
10967SOL    HW234579   4.616   5.466   7.053  1.4415  2.3292  0.6516
10968SOL     OW34580   4.625   1.341   3.310  0.2642  0.5358  0.1892
10968SOL    HW134581   4.592   1.425   3.344  1.1033  2.2255 -2.9647
10968SOL    HW234582   4.552   1.280   3.322 -0.8766  2.0575  1.2333
10969SOL     OW34583   7.700   5.167   1.146 -0.3745 -0.1037 -0.6193
10969SOL    HW134584   7.631   5.104   1.162  0.5789 -0.8976  0.4770
10969SOL    HW234585   7.714   5.166   1.052 -2.1869  0.4322 -0.8986
10970SOL     OW34586   0.850   4.293   4.395 -0.2238  0.0631 -0.2934
10970SOL    HW134587   0.940   4.304   4.427 -0.1227  0.5722 -0.7480
10970SOL    HW234588   0.815   4.382   4.388 -1.2032 -0.1970  1.1161
10971SOL     OW34589   4.180   2.872   1.711 -0.3633 -0.0404 -0.0955
10971SOL    HW134590   4.095   2.886   1.753 -0.2567 -1.5450  0.6734
10971SOL    HW234591   4.239   2.932   1.756 -0.3229 -1.3895  1.6985
10972SOL     OW34592   5.041   7.454   1.900 -0.0937 -0.6398  0.3457
10972SOL    HW134593   5.013   7.469   1.991 -1.4101 -1.1894  0.0443
10972SOL    HW234594   5.125   7.409   1.908 -0.2160 -0.7104  1.2921
10973SOL     OW34595   4.041   3.156   7.381  0.1930 -0.0017 -0.4811
10973SOL    HW134596   3.974   3.167   7.313 -1.7263  2.7349  1.7299
10973SOL    HW234597   4.019   3.074   7.423 -1.7238  0.7856  0.1053
10974SOL     OW34598   3.664   1.043   0.951 -0.6649 -0.0488  0.0467
10974SOL    HW134599   3.724   1.113   0.926 -0.6328 -0.2703 -0.5037
10974SOL    HW234600   3.608   1.082   1.018  0.6930 -0.1185  1.2525
10975SOL     OW34601   0.971   8.690   0.588 -0.2002  0.3692 -0.0079
10975SOL    HW134602   0.889   8.727   0.556 -0.9636 -0.1591  1.2921
10975SOL    HW234603   0.986   8.734   0.672  0.9402  0.5761 -0.3079
10976SOL     OW34604   1.903   0.303   7.849 -0.0743  0.3478 -0.3758
10976SOL    HW134605   1.817   0.279   7.814 -0.5613  0.0758  0.9940
10976SOL    HW234606   1.926   0.231   7.908  0.4241  1.1523  0.4191
10977SOL     OW34607   0.135   0.659   6.573  0.2380 -0.3398  0.2882
10977SOL    HW134608   0.214   0.675   6.521  0.1195  1.2393  0.5712
10977SOL    HW234609   0.104   0.573   6.544  0.4395  0.3066 -1.8788
10978SOL     OW34610   5.759   3.109   2.714 -0.5419 -0.5625 -1.2056
10978SOL    HW134611   5.797   3.194   2.733  1.1573 -1.3398 -1.0342
10978SOL    HW234612   5.731   3.115   2.623  0.8220 -0.2452 -1.6201
10979SOL     OW34613   9.198   7.304   8.594  0.9795  0.5092  0.4277
10979SOL    HW134614   9.287   7.292   8.560 -0.2797 -2.8523 -2.0497
10979SOL    HW234615   9.155   7.361   8.530  0.9550  1.0184  0.8934
10980SOL     OW34616   3.107   5.187   1.382  0.3537 -0.0986  0.0269
10980SOL    HW134617   3.147   5.201   1.468 -0.7603 -2.0053  0.8991
10980SOL    HW234618   3.081   5.274   1.352 -0.2539  0.4646  2.1323
10981SOL     OW34619   7.724   8.351   5.691 -0.1191  0.8293 -0.3117
10981SOL    HW134620   7.673   8.270   5.703  5.2537 -2.9881 -1.6293
10981SOL    HW234621   7.708   8.377   5.601 -0.1789 -0.0139 -0.5453
10982SOL     OW34622   3.403   1.291   8.257 -0.3101  0.1752 -0.1878
10982SOL    HW134623   3.333   1.228   8.242 -1.6446  1.5592  0.1134
10982SOL    HW234624   3.373   1.371   8.214  1.5523  0.4876 -0.9333
10983SOL     OW34625   8.975   1.010   8.847  0.5698 -0.3928  0.7627
10983SOL    HW134626   8.908   0.943   8.860  0.4328 -0.1801  1.1418
10983SOL    HW234627   8.958   1.075   8.915 -0.0412  0.6194 -0.3382
10984SOL     OW34628   7.932   5.588   4.598  0.5613  0.1489  0.1918
10984SOL    HW134629   8.012   5.619   4.638  1.3174  1.6859 -2.3695
10984SOL    HW234630   7.935   5.621   4.508 -2.9131  0.2210  0.0050
10985SOL     OW34631   3.139   0.642   1.024 -0.6284  0.0725 -0.2794
10985SOL    HW134632   3.202   0.580   0.987 -0.0051  1.3804 -1.4342
10985SOL    HW234633   3.068   0.586   1.056  1.1461 -1.4318  1.1988
10986SOL     OW34634   8.009   8.421   5.315 -0.5363 -0.6092  0.7453
10986SOL    HW134635   7.923   8.382   5.325 -0.3535 -0.7540  1.8885
10986SOL    HW234636   7.992   8.510   5.285 -0.9597 -1.4528 -1.5694
10987SOL     OW34637   5.036   2.034   5.484  0.7894  0.2328 -0.7853
10987SOL    HW134638   5.065   2.125   5.490 -0.6454  0.5744  1.4635
10987SOL    HW234639   5.087   1.988   5.551 -1.0792  0.1084  0.5829
10988SOL     OW34640   6.700   4.035   8.919 -0.1772 -0.3147  0.1696
10988SOL    HW134641   6.751   3.959   8.947  1.2524  0.5079 -0.1170
10988SOL    HW234642   6.688   4.022   8.825  1.2360  0.4591 -0.1351
10989SOL     OW34643   4.499   3.444   5.345  0.3953 -0.1630 -0.2456
10989SOL    HW134644   4.505   3.512   5.412 -0.2842  1.0882 -1.4426
10989SOL    HW234645   4.464   3.368   5.392 -1.5931  1.1745  0.4971
10990SOL     OW34646   3.669   8.996   4.738 -0.4957 -0.8198 -0.0202
10990SOL    HW134647   3.701   9.032   4.655 -2.4036  1.5722  0.2008
10990SOL    HW234648   3.695   8.904   4.736  2.8235  0.0848 -1.5500
10991SOL     OW34649   6.754   7.321   1.979  0.8962 -0.0225  0.6553
10991SOL    HW134650   6.674   7.287   1.940 -0.2127  2.8463  0.3226
10991SOL    HW234651   6.823   7.298   1.917  0.1902 -1.6367  0.4600
10992SOL     OW34652   2.377   0.176   2.426  0.3518 -0.2090  0.0606
10992SOL    HW134653   2.454   0.223   2.459 -0.1667  0.1220  0.8074
10992SOL    HW234654   2.348   0.123   2.501 -0.4109  0.0033 -0.0821
10993SOL     OW34655   2.645   3.442   2.811  0.3053 -0.4266  0.3693
10993SOL    HW134656   2.707   3.399   2.752  0.2824  1.3505 -0.9860
10993SOL    HW234657   2.624   3.525   2.768 -4.8371 -1.9368 -0.4476
10994SOL     OW34658   1.300   5.928   5.929 -0.0675 -0.0737 -0.4086
10994SOL    HW134659   1.292   5.838   5.962 -0.2001 -0.0948 -0.4956
10994SOL    HW234660   1.384   5.930   5.885  1.7248  0.9160  2.8942
10995SOL     OW34661   4.691   2.668   7.650 -0.3055 -0.2075 -0.1684
10995SOL    HW134662   4.659   2.729   7.717 -0.0475  0.6148 -0.7817
10995SOL    HW234663   4.643   2.692   7.571  0.0125 -0.6081 -0.4853
10996SOL     OW34664   3.817   3.358   2.846 -0.3545  0.2705 -0.5827
10996SOL    HW134665   3.896   3.307   2.829 -0.5449 -0.2102 -0.0354
10996SOL    HW234666   3.750   3.293   2.867 -0.5451  0.7450  0.3325
10997SOL     OW34667   8.824   2.330   8.286  0.8843 -0.0055  0.7906
10997SOL    HW134668   8.760   2.401   8.293  0.8964  0.0355  0.4989
10997SOL    HW234669   8.772   2.250   8.297  0.5574 -0.0330 -0.7967
10998SOL     OW34670   0.306   8.235   6.133 -0.0421 -0.6756 -0.0323
10998SOL    HW134671   0.348   8.319   6.155 -1.3379  0.1779 -0.7716
10998SOL    HW234672   0.371   8.190   6.079  0.4004  0.1329 -0.1939
10999SOL     OW34673   2.723   3.227   5.906  0.5892 -0.0078 -0.2678
10999SOL    HW134674   2.743   3.320   5.911  0.5871 -0.0094 -0.2290
10999SOL    HW234675   2.739   3.194   5.994 -0.5981  0.1882  0.0168
11000SOL     OW34676   6.400   5.577   3.033  0.8445 -0.5167 -0.5366
11000SOL    HW134677   6.380   5.489   3.064 -0.2458  0.0917  0.5558
11000SOL    HW234678   6.455   5.615   3.101  0.3384  0.0425 -0.4312
11001SOL     OW34679   9.276   6.004   2.949 -0.0631 -0.5669 -0.2695
11001SOL    HW134680   9.189   5.967   2.935 -1.4589  1.8459  1.5734
11001SOL    HW234681   9.279   6.081   2.891  0.1793  0.2877  0.8457
11002SOL     OW34682   4.292   0.964   1.763  0.0318  0.8664  0.0922
11002SOL    HW134683   4.281   0.913   1.843 -0.8857  0.8785 -0.0146
11002SOL    HW234684   4.319   1.051   1.793  1.2985  0.4040  0.2921
11003SOL     OW34685   0.428   4.066   8.486  0.6544 -0.4206  0.5525
11003SOL    HW134686   0.451   4.158   8.497  1.8022 -0.4517 -1.2821
11003SOL    HW234687   0.478   4.020   8.553  0.9374  0.1787  0.7550
11004SOL     OW34688   5.767   6.260   6.298 -0.6466 -0.2286 -0.7802
11004SOL    HW134689   5.812   6.332   6.254 -1.2897  0.0068 -1.0598
11004SOL    HW234690   5.838   6.206   6.334 -0.1928  1.3288  0.7094
11005SOL     OW34691   0.094   6.269   1.459 -0.1403  0.1135 -0.1103
11005SOL    HW134692   0.094   6.349   1.407 -2.2817 -0.9023 -1.7462
11005SOL    HW234693   0.147   6.207   1.409 -1.8823 -0.7470 -0.9079
11006SOL     OW34694   5.097   7.200   0.411  0.3881 -0.2325 -0.0633
11006SOL    HW134695   5.063   7.235   0.493 -0.9630 -2.6790  0.4535
11006SOL    HW234696   5.020   7.196   0.353  0.9349 -0.4056 -0.7847
11007SOL     OW34697   3.563   3.304   6.339  0.0633  0.0570  0.6101
11007SOL    HW134698   3.591   3.314   6.248 -0.5779  1.6164  0.5823
11007SOL    HW234699   3.468   3.303   6.336  0.0373  0.2440  1.2878
11008SOL     OW34700   3.494   0.998   2.600  0.6742 -0.4958 -0.3121
11008SOL    HW134701   3.413   0.984   2.552  0.6427  1.1858 -0.7941
11008SOL    HW234702   3.498   0.927   2.664 -0.7446 -1.0674 -0.8541
11009SOL     OW34703   5.087   3.382   8.193  0.2490 -0.6274  0.3432
11009SOL    HW134704   5.167   3.425   8.160  1.0951 -0.9764  1.8988
11009SOL    HW234705   5.017   3.445   8.174  0.8012 -0.5262 -1.4881
11010SOL     OW34706   9.169   1.194   6.249 -0.1009 -0.1561  0.1887
11010SOL    HW134707   9.238   1.221   6.310 -0.3194  1.0161 -0.0732
11010SOL    HW234708   9.158   1.101   6.265 -0.4458  0.2091  2.2513
11011SOL     OW34709   8.765   7.587   7.360  0.2712 -0.1101  0.2475
11011SOL    HW134710   8.784   7.630   7.276  1.8179  0.5224  0.9065
11011SOL    HW234711   8.669   7.590   7.367  0.1600  0.3354 -1.2268
11012SOL     OW34712   6.266   6.880   0.842 -0.1421  0.8221 -0.3270
11012SOL    HW134713   6.299   6.794   0.815  0.6201  1.5711 -1.8358
11012SOL    HW234714   6.199   6.901   0.777 -0.8671  1.0267  0.4882
11013SOL     OW34715   2.846   5.414   1.475 -0.3120 -0.2996 -0.7325
11013SOL    HW134716   2.881   5.421   1.386  4.0332  0.4013  0.9247
11013SOL    HW234717   2.828   5.321   1.487 -0.9010 -0.3998 -2.3129
11014SOL     OW34718   6.030   1.082   3.012 -0.2819 -0.3630 -0.0129
11014SOL    HW134719   5.964   1.146   3.037 -0.8783 -1.7869  2.2303
11014SOL    HW234720   6.004   1.052   2.925  0.0321  2.4108 -1.1098
11015SOL     OW34721   6.841   1.250   0.683  0.2908 -0.4972  0.4280
11015SOL    HW134722   6.781   1.192   0.730  0.5458 -0.9995  0.1278
11015SOL    HW234723   6.904   1.278   0.750  1.5282 -2.3726  0.0728
11016SOL     OW34724   7.740   6.820   1.930 -0.1609  0.3031 -0.0855
11016SOL    HW134725   7.669   6.879   1.955 -0.2019  0.0408  0.4423
11016SOL    HW234726   7.820   6.866   1.955 -0.1711  0.3506 -0.1408
11017SOL     OW34727   8.020   0.182   7.274 -0.2383  0.1398  0.2873
11017SOL    HW134728   8.045   0.160   7.364 -0.0690 -0.2593  0.1439
11017SOL    HW234729   8.037   0.276   7.267  3.0412 -0.4419 -0.3798
11018SOL     OW34730   5.097   5.595   0.925 -0.2589  0.0008  0.2377
11018SOL    HW134731   5.105   5.587   0.830 -1.0813  0.3192  0.1316
11018SOL    HW234732   5.124   5.685   0.944 -0.2166 -0.0219  0.2868
11019SOL     OW34733   8.497   6.915   3.417  0.2450 -0.0457 -0.1641
11019SOL    HW134734   8.537   6.844   3.367 -0.7693 -0.6580 -0.1383
11019SOL    HW234735   8.421   6.941   3.364  1.3130  1.8755 -0.7846
11020SOL     OW34736   5.052   0.090   0.093 -0.2074  0.1002  0.3529
11020SOL    HW134737   4.971   0.056   0.130 -0.4499  1.5844  1.2312
11020SOL    HW234738   5.078   0.026   0.027 -1.1921 -1.2297  1.2480
11021SOL     OW34739   8.526   9.015   7.789 -0.4964  0.1295 -0.0720
11021SOL    HW134740   8.466   9.067   7.735 -0.6809 -0.2630 -0.2436
11021SOL    HW234741   8.610   9.019   7.744 -0.8336 -0.8286 -0.7945
11022SOL     OW34742   0.386   0.630   4.781  0.3842 -0.5913 -0.1820
11022SOL    HW134743   0.450   0.559   4.784 -0.4172 -1.4073 -1.6519
11022SOL    HW234744   0.387   0.667   4.869  1.7227 -1.6182  0.2504
11023SOL     OW34745   7.605   3.526   0.268  0.6047  0.3187 -0.2556
11023SOL    HW134746   7.642   3.598   0.319 -1.0059  1.3510 -0.4989
11023SOL    HW234747   7.528   3.564   0.226 -0.8200 -1.7900  0.3708
11024SOL     OW34748   4.501   1.982   0.166 -0.6309 -0.3689  0.1280
11024SOL    HW134749   4.554   1.943   0.097 -0.6375 -1.6758  0.8383
11024SOL    HW234750   4.564   2.009   0.233 -0.4404  2.7591 -1.2347
11025SOL     OW34751   2.884   5.461   3.147  0.0113 -0.1040  0.3342
11025SOL    HW134752   2.847   5.385   3.192  0.3571 -0.3835  0.1481
11025SOL    HW234753   2.814   5.527   3.149 -0.6347 -0.7653 -0.3577
11026SOL     OW34754   8.796   7.165   2.584  0.5379 -0.0088 -0.4416
11026SOL    HW134755   8.866   7.229   2.583 -0.3926  1.0294 -1.2849
11026SOL    HW234756   8.803   7.121   2.499 -0.3807  0.7431 -0.9271
11027SOL     OW34757   2.417   2.901   3.769 -0.1349 -0.2078 -0.0317
11027SOL    HW134758   2.479   2.847   3.818  1.1031 -0.1050 -1.4555
11027SOL    HW234759   2.436   2.991   3.796 -0.7363 -0.3029  0.7168
11028SOL     OW34760   0.828   2.697   2.520  0.1645 -0.3643 -0.3183
11028SOL    HW134761   0.794   2.672   2.434 -1.4300 -0.5719  0.3498
11028SOL    HW234762   0.920   2.671   2.518  0.5581  1.0703 -2.5297
11029SOL     OW34763   8.264   0.420   1.378  0.5456  0.3163 -0.5419
11029SOL    HW134764   8.290   0.512   1.370  0.1377  0.4382 -0.4781
11029SOL    HW234765   8.345   0.371   1.361  1.1504  0.7156  1.0637
11030SOL     OW34766   8.664   0.027   6.306 -0.1506 -0.0130 -0.8493
11030SOL    HW134767   8.717  -0.050   6.325  0.4043  1.0392  2.2774
11030SOL    HW234768   8.704   0.066   6.228  1.6456 -1.0494 -0.4776
11031SOL     OW34769   3.463   0.032   8.823  0.5334 -0.4862 -0.5776
11031SOL    HW134770   3.461   0.081   8.741 -0.3349 -0.5286 -0.5803
11031SOL    HW234771   3.374  -0.000   8.835  0.1936  1.0067  1.2662
11032SOL     OW34772   3.717   3.732   3.236  0.1511  0.4091 -0.5622
11032SOL    HW134773   3.801   3.760   3.200 -0.4597  0.9379 -1.6114
11032SOL    HW234774   3.676   3.682   3.165  0.2884 -1.2929  0.5282
11033SOL     OW34775   5.442   8.125   0.675  0.0032 -0.1082 -0.5614
11033SOL    HW134776   5.508   8.178   0.629  0.2132  0.5729  0.4982
11033SOL    HW234777   5.368   8.185   0.687  1.3184  0.9002  3.1838
11034SOL     OW34778   1.337   5.393   3.971 -0.1148 -0.4971 -0.4605
11034SOL    HW134779   1.403   5.454   3.938  0.3839 -0.1816  1.0431
11034SOL    HW234780   1.269   5.449   4.008 -1.7949 -0.7923 -2.9516
11035SOL     OW34781   8.629   2.423   1.659  0.3622  0.3850  0.7170
11035SOL    HW134782   8.571   2.404   1.733  0.1471 -1.0667  0.1918
11035SOL    HW234783   8.713   2.443   1.699 -0.5069  2.6497  1.4963
11036SOL     OW34784   6.551   1.209   9.216 -0.3947 -0.3777  0.2556
11036SOL    HW134785   6.546   1.305   9.211  1.7686 -0.2551  0.1593
11036SOL    HW234786   6.581   1.191   9.305 -1.2028 -0.9848  0.4034
11037SOL     OW34787   5.277   5.868   3.653 -0.4141 -0.0144  0.1735
11037SOL    HW134788   5.323   5.816   3.587 -0.9279 -0.0102 -0.1870
11037SOL    HW234789   5.334   5.944   3.667  0.5991 -0.9258  1.0851
11038SOL     OW34790   8.908   2.399   1.750  0.6845 -0.2908  0.1820
11038SOL    HW134791   8.949   2.331   1.803 -1.3597 -2.9169 -1.4550
11038SOL    HW234792   8.947   2.388   1.663 -0.2332  0.1012 -0.2864
11039SOL     OW34793   1.044   4.636   6.853 -0.3527  0.2309 -0.1473
11039SOL    HW134794   1.087   4.564   6.900  0.8400  0.9942 -0.0487
11039SOL    HW234795   0.951   4.613   6.854 -0.1917 -0.4313  1.4336
11040SOL     OW34796   6.418   4.965   5.101  0.1107 -0.5368  0.5941
11040SOL    HW134797   6.391   4.973   5.010 -0.4428 -1.2243  0.6969
11040SOL    HW234798   6.440   4.872   5.112  1.2132 -0.2492  0.8708
11041SOL     OW34799   0.311   2.795   6.292  0.2727 -0.6476 -0.4002
11041SOL    HW134800   0.326   2.708   6.326  1.0309 -0.7015 -0.8730
11041SOL    HW234801   0.394   2.822   6.253  0.1203  0.3792 -0.0509
11042SOL     OW34802   2.267   9.160   7.816  0.0580  0.4664 -0.1163
11042SOL    HW134803   2.312   9.091   7.768 -1.2351 -0.0275 -0.6333
11042SOL    HW234804   2.284   9.240   7.766 -0.2452  0.1571 -0.7176
11043SOL     OW34805   1.899   7.885   1.550  0.8893 -0.2506 -0.2166
11043SOL    HW134806   1.974   7.944   1.546  2.3045 -2.0799 -2.1371
11043SOL    HW234807   1.890   7.864   1.643  2.3672  0.5063  0.1181
11044SOL     OW34808   1.394   4.671   5.539  0.0210  0.8125  0.1000
11044SOL    HW134809   1.395   4.751   5.487  3.1116  0.3606 -0.6160
11044SOL    HW234810   1.394   4.701   5.630  1.1886  1.6220 -0.1611
11045SOL     OW34811   1.351   8.190   0.238 -0.1108 -0.7928 -0.0925
11045SOL    HW134812   1.312   8.233   0.162  0.4021  1.4031  0.8527
11045SOL    HW234813   1.444   8.185   0.218  0.0317 -0.1645  0.4121
11046SOL     OW34814   4.615   8.772   0.263  0.0498  0.5103 -0.2640
11046SOL    HW134815   4.649   8.845   0.213 -1.6285  0.7391 -1.1207
11046SOL    HW234816   4.664   8.696   0.231  0.8221  1.0444 -0.3583
11047SOL     OW34817   0.758   5.004   0.419  0.5928  0.1320 -0.0634
11047SOL    HW134818   0.706   5.028   0.496 -0.1023  1.7365 -0.9985
11047SOL    HW234819   0.838   5.056   0.427  0.1346  0.9780 -0.8575
11048SOL     OW34820   4.938   4.094   4.407 -0.1003  0.4353 -0.2704
11048SOL    HW134821   4.952   4.085   4.501  1.0836 -0.8078 -0.5560
11048SOL    HW234822   5.018   4.134   4.373  0.2833 -0.9020 -1.0050
11049SOL     OW34823   1.762   0.114   4.286  0.6168  0.4379 -0.3422
11049SOL    HW134824   1.687   0.156   4.244 -0.1629  0.1907  0.7684
11049SOL    HW234825   1.804   0.185   4.334  1.6798  0.7829 -1.7532
11050SOL     OW34826   6.809   3.396   4.629  0.6089  0.3174  0.6479
11050SOL    HW134827   6.752   3.463   4.667 -1.0929  1.7639 -4.0810
11050SOL    HW234828   6.758   3.315   4.632 -0.8307  1.1153 -1.4453
11051SOL     OW34829   4.087   4.448   8.699 -0.0795  0.2567 -0.1931
11051SOL    HW134830   4.029   4.511   8.742 -0.6206 -1.3782  1.5434
11051SOL    HW234831   4.028   4.388   8.654  0.4304  0.8592 -1.6984
11052SOL     OW34832   4.518   1.501   3.924 -0.0145  0.0432  0.1766
11052SOL    HW134833   4.588   1.511   3.860 -0.4840 -0.0098 -0.3557
11052SOL    HW234834   4.484   1.413   3.909 -0.8710  0.4425 -0.2784
11053SOL     OW34835   6.761   0.261   0.015  0.0258 -0.1136  0.0106
11053SOL    HW134836   6.766   0.315  -0.064 -0.2589  0.2879  0.2581
11053SOL    HW234837   6.842   0.281   0.063  0.2380 -0.4210 -0.2160
11054SOL     OW34838   1.617   0.810   7.269  0.7140 -0.1644  0.1133
11054SOL    HW134839   1.673   0.738   7.239 -1.1867 -1.2973 -0.7985
11054SOL    HW234840   1.638   0.882   7.210 -0.9439 -1.5217 -2.2539
11055SOL     OW34841   8.512   0.931   8.811  0.5052  0.2981  0.3089
11055SOL    HW134842   8.447   0.907   8.877 -1.0453  1.9714 -0.5800
11055SOL    HW234843   8.543   1.017   8.839  2.7640 -0.6968  1.0146
11056SOL     OW34844   6.285   1.760   9.247 -0.4296  0.2998 -0.2504
11056SOL    HW134845   6.242   1.839   9.215 -0.6804  0.5732  0.7454
11056SOL    HW234846   6.336   1.729   9.172 -0.8861  1.0068 -0.8670
11057SOL     OW34847   1.384   3.880   1.039  0.1087  0.0688  0.0975
11057SOL    HW134848   1.299   3.836   1.043  0.8924 -1.6919 -1.5018
11057SOL    HW234849   1.374   3.947   0.972 -0.5338  1.1355  1.2245
11058SOL     OW34850   1.985   3.208   2.003 -0.0097 -0.2838  0.3684
11058SOL    HW134851   1.934   3.222   1.924 -0.7829 -0.1804  0.8759
11058SOL    HW234852   2.005   3.296   2.035 -4.9042 -0.1380  3.5836
11059SOL     OW34853   5.524   8.830   3.746  0.9589  0.0415 -0.0842
11059SOL    HW134854   5.454   8.889   3.776  0.4246  0.2795 -1.7475
11059SOL    HW234855   5.598   8.888   3.729  0.9288  0.0467 -0.2053
11060SOL     OW34856   0.691   3.612   5.907 -0.1169 -0.0551 -0.2025
11060SOL    HW134857   0.668   3.701   5.933  2.5079  1.6331 -3.2145
11060SOL    HW234858   0.787   3.609   5.915  0.2713 -1.1360 -4.1604
11061SOL     OW34859   1.774   8.356   0.568  0.0252  0.6405 -0.1505
11061SOL    HW134860   1.834   8.286   0.592 -4.6367 -3.8964 -0.9682
11061SOL    HW234861   1.733   8.381   0.651  1.1105  1.8870  0.0214
11062SOL     OW34862   5.503   7.931   7.503 -0.4527 -0.1793 -0.0553
11062SOL    HW134863   5.576   7.947   7.443 -1.9746  1.0271 -1.6333
11062SOL    HW234864   5.500   8.010   7.558 -3.8841  2.3499 -3.5680
11063SOL     OW34865   0.200   9.280   7.347 -0.3110  0.2760  0.1540
11063SOL    HW134866   0.143   9.239   7.282 -0.3118 -0.1358  0.4111
11063SOL    HW234867   0.279   9.303   7.298 -0.8088  1.1125 -0.2657
11064SOL     OW34868   0.466   0.427   5.782  0.0413  0.2373  0.4995
11064SOL    HW134869   0.409   0.477   5.723 -0.4410  1.6021  2.0665
11064SOL    HW234870   0.548   0.476   5.783  0.3719 -0.3093  0.2366
11065SOL     OW34871   7.745   7.686   4.847 -0.4197 -0.2448  0.0166
11065SOL    HW134872   7.730   7.607   4.899 -0.2836  1.1732  2.3371
11065SOL    HW234873   7.839   7.686   4.830 -0.7662 -1.7358 -1.9770
11066SOL     OW34874   0.568   8.299   8.869 -0.6461 -0.1128 -1.0794
11066SOL    HW134875   0.607   8.249   8.941 -0.8175 -0.1057 -0.9827
11066SOL    HW234876   0.628   8.286   8.796 -1.0348 -1.0001 -1.2471
11067SOL     OW34877   1.135   4.356   4.485 -0.1380 -0.3478  0.0885
11067SOL    HW134878   1.155   4.283   4.426  0.2752  1.4791 -2.0924
11067SOL    HW234879   1.216   4.372   4.532  0.5061  0.2600 -1.1990
11068SOL     OW34880   3.917   6.378   1.444 -0.1466 -0.1349 -0.1649
11068SOL    HW134881   3.849   6.423   1.493 -1.1972 -2.8505  0.9614
11068SOL    HW234882   3.920   6.422   1.360 -1.8826  1.3083  0.5161
11069SOL     OW34883   2.381   4.163   1.358 -0.1380  0.5604  0.9666
11069SOL    HW134884   2.414   4.185   1.445  1.8038 -1.3403  0.7534
11069SOL    HW234885   2.392   4.243   1.307 -3.0055  2.2728  2.9157
11070SOL     OW34886   4.639   1.734   6.343 -0.3566 -0.7109 -0.6079
11070SOL    HW134887   4.697   1.660   6.359  1.0158  0.4477 -0.1371
11070SOL    HW234888   4.676   1.778   6.267 -1.3086 -0.6280 -1.0373
11071SOL     OW34889   2.682   0.875   7.427 -0.3403  0.3798  0.0111
11071SOL    HW134890   2.643   0.851   7.343 -0.8393  0.4565  0.2192
11071SOL    HW234891   2.755   0.814   7.438 -2.1943 -1.7331  1.0119
11072SOL     OW34892   0.463   5.474   1.722  0.0590  0.0044 -0.1482
11072SOL    HW134893   0.495   5.560   1.694  2.1456 -0.1415  1.6351
11072SOL    HW234894   0.506   5.413   1.662  1.4303 -0.0197  0.8227
11073SOL     OW34895   0.987   5.285   1.194 -0.2140 -0.6844  0.1404
11073SOL    HW134896   1.053   5.217   1.184 -0.1380 -0.8672  1.7132
11073SOL    HW234897   0.955   5.302   1.106  0.9080 -1.6216 -0.4482
11074SOL     OW34898   3.685   4.885   8.057 -0.5602  0.0977  0.1614
11074SOL    HW134899   3.611   4.835   8.091 -0.8905  0.6970  0.3480
11074SOL    HW234900   3.757   4.866   8.118 -0.7977  0.1653  0.4650
11075SOL     OW34901   7.272   3.256   4.663 -0.0265 -0.2867 -0.2631
11075SOL    HW134902   7.333   3.266   4.736 -1.5399  0.1197  0.9721
11075SOL    HW234903   7.304   3.180   4.614  0.7394 -0.8285  1.0729
11076SOL     OW34904   1.596   4.710   8.778  0.6208  0.1941 -0.0270
11076SOL    HW134905   1.640   4.670   8.853 -0.0327 -2.3499 -0.9237
11076SOL    HW234906   1.563   4.635   8.727  0.1306  1.8870 -2.2891
11077SOL     OW34907   5.073   2.711   9.018  0.0580  0.5556 -0.2465
11077SOL    HW134908   5.125   2.791   9.028  0.4300  0.0442  2.4695
11077SOL    HW234909   5.087   2.664   9.100 -1.8944 -1.2759 -0.9277
11078SOL     OW34910   6.129   6.197   8.219  0.6164 -0.2576  0.1562
11078SOL    HW134911   6.204   6.251   8.196  0.0433  1.3787  1.9946
11078SOL    HW234912   6.129   6.195   8.315 -2.8290  1.5031  0.2843
11079SOL     OW34913   1.241   9.190   0.182  0.0985 -0.5168  0.2577
11079SOL    HW134914   1.321   9.240   0.202  0.3423 -1.1289  0.8226
11079SOL    HW234915   1.170   9.251   0.200  0.4449  0.1683 -0.6358
11080SOL     OW34916   1.801   8.609   0.089 -0.0269 -0.0954 -0.1829
11080SOL    HW134917   1.873   8.645   0.142  0.3333 -0.5418 -0.3744
11080SOL    HW234918   1.825   8.629  -0.001 -0.0184 -0.4789 -0.2642
11081SOL     OW34919   4.414   5.073   6.327  0.4216  0.1173 -0.2668
11081SOL    HW134920   4.507   5.094   6.315  0.3519  0.2378 -0.5904
11081SOL    HW234921   4.402   5.075   6.422  0.8249 -0.2136 -0.2061
11082SOL     OW34922   5.802   2.527   0.805  0.3285  0.0146  0.0378
11082SOL    HW134923   5.889   2.549   0.771  1.6730 -0.4892  2.9827
11082SOL    HW234924   5.758   2.612   0.813  0.9707  0.3921 -0.3662
11083SOL     OW34925   5.423   0.667   6.153  0.4395 -0.0235 -0.5429
11083SOL    HW134926   5.479   0.737   6.120 -0.5771 -0.0144 -2.3108
11083SOL    HW234927   5.468   0.586   6.127  0.5886 -0.0237 -0.2857
11084SOL     OW34928   2.450   1.103   1.501  0.2376 -0.1477 -0.5986
11084SOL    HW134929   2.416   1.076   1.416  2.0956  0.9167 -1.6947
11084SOL    HW234930   2.432   1.197   1.506 -0.7197 -0.3751  0.6076
11085SOL     OW34931   4.532   8.410   8.628  0.3582  0.1542 -0.1250
11085SOL    HW134932   4.500   8.469   8.559  0.1312 -0.1565 -0.2857
11085SOL    HW234933   4.626   8.426   8.630  0.3992 -0.0007 -0.6687
11086SOL     OW34934   1.885   2.808   1.228  0.4586 -0.1333  0.4626
11086SOL    HW134935   1.818   2.834   1.165 -0.3413 -1.1728  0.8743
11086SOL    HW234936   1.964   2.796   1.175 -0.0899 -0.5400 -0.2756
11087SOL     OW34937   7.223   8.817   3.978  0.1068  0.0773  0.1996
11087SOL    HW134938   7.255   8.738   3.935  1.5089 -0.5255  2.2697
11087SOL    HW234939   7.128   8.804   3.983  0.3840 -1.8261  1.1192
11088SOL     OW34940   3.718   3.592   1.426 -0.2140 -0.0183  0.4619
11088SOL    HW134941   3.765   3.559   1.502 -0.3350 -0.6675  0.2605
11088SOL    HW234942   3.683   3.677   1.454  1.0534  0.4621  0.6133
11089SOL     OW34943   8.385   3.759   8.773 -0.1997  0.1058  0.3230
11089SOL    HW134944   8.375   3.781   8.680  1.1908 -0.4972  0.0172
11089SOL    HW234945   8.295   3.747   8.804 -0.7489  1.5795 -0.6259
11090SOL     OW34946   4.348   4.675   5.539  0.1409 -0.4233  0.2556
11090SOL    HW134947   4.385   4.711   5.459  1.1044 -2.6392 -0.3577
11090SOL    HW234948   4.273   4.623   5.511  0.0818 -0.6700  0.8398
11091SOL     OW34949   1.819   9.182   6.741  0.0142 -0.3020  0.1746
11091SOL    HW134950   1.726   9.198   6.754  0.4168  1.6267  0.8524
11091SOL    HW234951   1.823   9.101   6.688 -2.0272 -0.1174 -0.2874
11092SOL     OW34952   0.917   3.569   3.005 -0.5083  0.2871  0.9058
11092SOL    HW134953   0.961   3.651   3.027  0.0377  0.7221 -1.6739
11092SOL    HW234954   0.957   3.504   3.063  0.4580  1.4687  1.5861
11093SOL     OW34955   0.337   4.930   0.870 -0.5603  0.4568 -0.1883
11093SOL    HW134956   0.406   4.930   0.935 -0.2112  2.5082 -0.5133
11093SOL    HW234957   0.318   5.023   0.855 -0.8671  0.0310 -2.7299
11094SOL     OW34958   2.363   2.637   8.611  0.3719  0.0439  0.0899
11094SOL    HW134959   2.287   2.657   8.557  0.9438  0.6610 -0.4861
11094SOL    HW234960   2.330   2.641   8.701  0.0868  1.9287 -0.0832
11095SOL     OW34961   5.947   3.673   8.064 -0.0161  0.6621  0.0590
11095SOL    HW134962   5.991   3.758   8.063 -0.2565  0.7800 -0.7531
11095SOL    HW234963   5.951   3.645   8.156  0.5594  1.2891  0.2290
11096SOL     OW34964   6.357   8.312   4.069 -0.1324  0.0402 -0.1427
11096SOL    HW134965   6.271   8.278   4.093 -0.6974  0.9678 -0.7984
11096SOL    HW234966   6.338   8.385   4.010  1.0529  1.0491  0.6871
11097SOL     OW34967   1.703   7.647   2.626  0.4578  0.6681 -0.6395
11097SOL    HW134968   1.673   7.622   2.713  1.9667 -1.2826 -0.6755
11097SOL    HW234969   1.629   7.697   2.589 -1.4209 -1.1746  0.5516
11098SOL     OW34970   1.526   3.035   6.912 -0.6120 -0.6333  0.5636
11098SOL    HW134971   1.568   2.959   6.952  0.8054 -1.5272 -2.4944
11098SOL    HW234972   1.450   3.000   6.866  0.0089 -0.2219 -0.8078
11099SOL     OW34973   8.573   8.657   5.269 -0.0318  0.2041 -0.0600
11099SOL    HW134974   8.509   8.601   5.311 -1.0360 -0.5133 -2.4810
11099SOL    HW234975   8.658   8.621   5.296 -0.6597 -1.5758 -0.3859
11100SOL     OW34976   6.446   7.123   0.138 -0.6745  0.2795  0.1469
11100SOL    HW134977   6.371   7.080   0.098 -0.6759 -1.0164  1.4852
11100SOL    HW234978   6.520   7.097   0.084 -0.8444 -0.4433  0.2618
11101SOL     OW34979   7.167   5.095   1.336  0.0918 -0.2970 -0.4559
11101SOL    HW134980   7.166   5.050   1.421 -0.7349 -0.8758 -0.7622
11101SOL    HW234981   7.074   5.100   1.311  0.2008  1.3034 -0.5771
11102SOL     OW34982   5.648   5.944   1.399 -0.0845  0.1391  0.5729
11102SOL    HW134983   5.621   5.894   1.322 -0.4850  2.7196 -1.0410
11102SOL    HW234984   5.586   5.919   1.467 -3.1663  1.7379 -1.4952
11103SOL     OW34985   3.680   1.863   0.980 -0.6830 -0.3330  0.3973
11103SOL    HW134986   3.626   1.923   0.929 -0.5444 -0.6784 -0.1590
11103SOL    HW234987   3.713   1.916   1.052 -0.0891  0.4219 -0.4111
11104SOL     OW34988   8.073   2.039   5.273  0.4127 -0.4712  0.1667
11104SOL    HW134989   8.022   1.980   5.329 -1.6033  1.2366  0.2312
11104SOL    HW234990   8.096   2.112   5.330 -0.8373  0.8297 -0.9498
11105SOL     OW34991   0.355   7.377   7.663 -0.4260  0.3277 -0.8425
11105SOL    HW134992   0.314   7.341   7.742 -0.2333 -0.5212 -1.1280
11105SOL    HW234993   0.375   7.468   7.686 -1.0738  0.3063 -0.1801
11106SOL     OW34994   6.995   3.701   0.230 -0.0403  0.1062 -0.0457
11106SOL    HW134995   7.020   3.654   0.310  0.9467  1.7529  0.6334
11106SOL    HW234996   6.932   3.766   0.260  0.3007  0.6958 -0.6174
11107SOL     OW34997   7.655   3.268   5.505  0.1140 -0.3131  0.3874
11107SOL    HW134998   7.634   3.250   5.413 -0.6527 -0.1462  0.5290
11107SOL    HW234999   7.612   3.198   5.554  0.8316 -0.6140  0.5970
11108SOL     OW35000   4.986   7.338   8.378  0.1773  0.2448  0.0068
11108SOL    HW135001   4.954   7.294   8.457  1.7374 -0.3746  0.3187
11108SOL    HW235002   4.948   7.425   8.382 -2.2341 -0.7475 -0.1424
11109SOL     OW35003   8.369   3.689   7.343 -0.3116  0.2623 -0.7629
11109SOL    HW135004   8.315   3.745   7.288  1.5331  2.0959 -0.7518
11109SOL    HW235005   8.411   3.628   7.281 -0.6279  0.3051 -1.0222
11110SOL     OW35006   7.008   1.156   3.863 -0.0419 -0.2561  0.0775
11110SOL    HW135007   6.966   1.095   3.923  0.9039 -1.3480 -0.3484
11110SOL    HW235008   7.047   1.223   3.920  0.3841 -0.9945  0.6608
11111SOL     OW35009   9.196   6.873   2.893  0.2779  0.5936 -0.6897
11111SOL    HW135010   9.233   6.791   2.926 -0.3174  0.8346  0.6322
11111SOL    HW235011   9.264   6.909   2.836  0.4657 -0.9118 -1.4448
11112SOL     OW35012   4.289   8.211   3.483  0.4598  0.2869  0.2008
11112SOL    HW135013   4.323   8.178   3.400  0.6597 -0.6614  0.6491
11112SOL    HW235014   4.194   8.214   3.470  0.2987 -1.8628  0.6120
11113SOL     OW35015   1.211   7.478   6.663 -0.4775 -0.0805 -0.3053
11113SOL    HW135016   1.264   7.480   6.743  0.0234  0.9871 -0.6502
11113SOL    HW235017   1.123   7.454   6.693 -0.1961 -0.1302  0.5009
11114SOL     OW35018   8.684   1.208   8.610  0.5041  0.1456  0.1094
11114SOL    HW135019   8.764   1.259   8.623  0.4195  0.8928 -2.1005
11114SOL    HW235020   8.697   1.162   8.528 -0.3777 -1.6397  0.9335
11115SOL     OW35021   8.700   3.500   5.703 -0.0941  0.4116 -0.7301
11115SOL    HW135022   8.776   3.553   5.680  0.4553 -0.2794 -0.5094
11115SOL    HW235023   8.679   3.451   5.624  0.4226 -0.2872 -0.4385
11116SOL     OW35024   3.542   6.298   2.387 -0.2743 -0.1836  0.3080
11116SOL    HW135025   3.508   6.256   2.466 -0.7206  2.7045  1.7123
11116SOL    HW235026   3.626   6.254   2.371 -0.2437 -0.9053  2.2900
11117SOL     OW35027   8.782   8.509   0.062 -0.1469  0.3814 -0.3639
11117SOL    HW135028   8.863   8.494   0.014 -0.5777 -1.4168 -0.5551
11117SOL    HW235029   8.775   8.604   0.068  2.2942  0.5485  0.2159
11118SOL     OW35030   3.028   5.156   4.178  0.0433  0.2791  0.4299
11118SOL    HW135031   3.038   5.061   4.165 -0.0538  0.2657  0.4460
11118SOL    HW235032   3.079   5.195   4.107  2.0151  0.2457  1.8046
11119SOL     OW35033   4.990   7.048   3.595 -0.2313 -0.3571  0.0034
11119SOL    HW135034   5.034   7.001   3.524  0.0737  1.6431 -1.1875
11119SOL    HW235035   5.050   7.120   3.616 -0.7953 -0.3400  1.5948
11120SOL     OW35036   7.190   1.873   5.560 -0.4535  0.4619 -0.1967
11120SOL    HW135037   7.195   1.826   5.643 -0.0689  0.4306 -0.2364
11120SOL    HW235038   7.181   1.804   5.494  2.8363  0.2600 -0.5092
11121SOL     OW35039   7.012   2.979   2.103 -0.0628 -0.3703 -0.3548
11121SOL    HW135040   7.008   2.887   2.077  0.6945 -0.2754 -0.8545
11121SOL    HW235041   7.066   3.020   2.034  0.0356  0.3396  0.1432
11122SOL     OW35042   9.072   1.739   7.337 -0.6531  0.6370  0.1833
11122SOL    HW135043   8.993   1.784   7.308 -0.0886  2.5183  1.5371
11122SOL    HW235044   9.140   1.768   7.277 -0.2198  1.8529  1.2537
11123SOL     OW35045   7.164   9.225   8.670  0.3819  0.1484  0.1037
11123SOL    HW135046   7.091   9.209   8.610  1.0369  0.9830 -0.9344
11123SOL    HW235047   7.149   9.165   8.743 -0.8747 -0.2927 -0.5038
11124SOL     OW35048   7.260   7.021   3.744  0.0430  0.3411  0.0159
11124SOL    HW135049   7.257   6.941   3.796 -0.5294  0.6482  0.4574
11124SOL    HW235050   7.269   7.092   3.808  0.8791  0.6104 -0.3917
11125SOL     OW35051   2.912   4.421   6.692  0.2896  0.6395 -0.0040
11125SOL    HW135052   2.905   4.346   6.633  1.8741  1.3208 -1.1097
11125SOL    HW235053   3.005   4.426   6.713  0.2382  2.3742 -0.0958
11126SOL     OW35054   5.278   1.478   8.532  0.2120  0.1067 -0.2540
11126SOL    HW135055   5.229   1.420   8.591  0.6367 -0.6395 -0.6325
11126SOL    HW235056   5.280   1.562   8.578  0.2904 -0.3936  0.6624
11127SOL     OW35057   4.719   2.303   2.059  0.9731  0.0177 -0.3078
11127SOL    HW135058   4.673   2.270   2.136 -0.3376  0.6301 -0.8263
11127SOL    HW235059   4.709   2.234   1.994  0.3137  0.3821 -0.5973
11128SOL     OW35060   5.184   5.843   0.550  0.0102  0.0581 -0.0963
11128SOL    HW135061   5.228   5.777   0.603  0.4850  0.2115 -0.2874
11128SOL    HW235062   5.105   5.800   0.518  0.7650 -0.7100 -0.9504
11129SOL     OW35063   0.067   0.053   3.203 -0.3809 -0.6861  0.0139
11129SOL    HW135064   0.147   0.098   3.173 -0.7646 -0.6314 -0.9514
11129SOL    HW235065  -0.002   0.119   3.195 -0.2820 -0.2577  2.2752
11130SOL     OW35066   1.988   1.138   3.052  0.4951  0.1559 -0.5149
11130SOL    HW135067   2.023   1.188   3.126  0.5932  0.5995 -0.8559
11130SOL    HW235068   2.061   1.083   3.023  0.8209  0.8639 -1.0396
11131SOL     OW35069   2.898   1.782   4.215 -0.3134  0.3755  0.1602
11131SOL    HW135070   2.812   1.821   4.233 -0.6748 -0.8081  1.0389
11131SOL    HW235071   2.884   1.727   4.138 -0.4989 -0.3229  0.6903
11132SOL     OW35072   7.687   5.980   1.604  0.5570  0.2108 -0.4992
11132SOL    HW135073   7.730   5.934   1.677 -1.8483 -0.9869  0.1932
11132SOL    HW235074   7.749   6.050   1.581  2.9372 -1.5225  0.3964
11133SOL     OW35075   0.982   1.966   8.814  0.4242  0.2911 -0.2598
11133SOL    HW135076   0.919   1.981   8.884  1.7126 -0.4590  1.0965
11133SOL    HW235077   1.026   2.050   8.803 -1.4220  1.0925 -1.8774
11134SOL     OW35078   1.785   8.878   3.738 -0.1805  0.3547 -0.1215
11134SOL    HW135079   1.813   8.817   3.670 -3.1360 -0.4001 -0.7419
11134SOL    HW235080   1.862   8.890   3.793  1.6907 -0.5905 -2.4385
11135SOL     OW35081   3.273   6.430   0.964  0.6127  0.9901  0.0436
11135SOL    HW135082   3.237   6.345   0.939  1.1706  0.1560  1.9867
11135SOL    HW235083   3.303   6.468   0.882 -0.8163 -0.1432 -1.0185
11136SOL     OW35084   5.393   4.292   1.679 -0.1759  0.5532  0.0657
11136SOL    HW135085   5.413   4.262   1.768 -0.2505 -0.8867 -0.4014
11136SOL    HW235086   5.362   4.382   1.691  1.0704  0.8222  1.3659
11137SOL     OW35087   7.599   7.109   0.255 -0.7532 -0.1337 -0.4310
11137SOL    HW135088   7.637   7.115   0.343  1.5622 -2.2236 -1.1922
11137SOL    HW235089   7.598   7.199   0.222 -0.9098  0.5620  1.4547
11138SOL     OW35090   8.141   0.327   5.840  0.5662  0.2001  0.4811
11138SOL    HW135091   8.141   0.422   5.833  0.1742  0.2557  1.1708
11138SOL    HW235092   8.100   0.309   5.925  1.1732 -0.5625  0.6247
11139SOL     OW35093   3.559   6.843   2.131 -0.1092 -0.0758  0.0734
11139SOL    HW135094   3.639   6.876   2.172 -0.1185  0.5181 -0.3845
11139SOL    HW235095   3.590   6.793   2.056 -0.1789  0.4778 -0.3305
11140SOL     OW35096   7.107   5.566   2.820 -0.0622  0.0463 -0.9558
11140SOL    HW135097   7.185   5.530   2.862  2.2044  1.3443 -3.9654
11140SOL    HW235098   7.113   5.660   2.833 -0.7845  0.2215 -1.8491
11141SOL     OW35099   3.667   6.996   5.060  0.3439  0.1618 -0.9990
11141SOL    HW135100   3.653   6.920   5.004  0.8800 -0.2265 -0.6134
11141SOL    HW235101   3.579   7.024   5.085  0.1501 -0.4556 -0.9865
11142SOL     OW35102   7.801   1.450   0.136 -0.7206 -0.0864 -0.1614
11142SOL    HW135103   7.817   1.420   0.047 -2.7067  1.1269 -0.9635
11142SOL    HW235104   7.706   1.451   0.144 -0.5824  0.6995  1.6685
11143SOL     OW35105   7.257   3.707   3.613  0.1735 -0.2119  0.0977
11143SOL    HW135106   7.349   3.683   3.627  0.4297 -0.6711 -2.1065
11143SOL    HW235107   7.251   3.798   3.644  1.8866  0.5013 -1.4979
11144SOL     OW35108   3.768   9.193   6.022  0.5718 -0.1188 -0.8423
11144SOL    HW135109   3.679   9.226   6.005  0.6832  1.0928  0.8386
11144SOL    HW235110   3.817   9.269   6.051  0.8116 -1.7406  3.3138
11145SOL     OW35111   0.193   7.577   1.391 -0.1386 -0.3121  0.0630
11145SOL    HW135112   0.277   7.622   1.379 -0.4751  0.2910 -0.0450
11145SOL    HW235113   0.204   7.493   1.347 -0.4320  0.7662 -2.1050
11146SOL     OW35114   6.213   6.720   9.292 -0.4311 -0.5911  0.9333
11146SOL    HW135115   6.279   6.656   9.318 -1.2136 -1.9477 -0.2850
11146SOL    HW235116   6.178   6.685   9.210 -0.7842  1.4886  0.1615
11147SOL     OW35117   1.040   8.822   1.122  0.7807 -0.0416  0.3829
11147SOL    HW135118   1.036   8.766   1.044  1.1262  1.6617 -0.8898
11147SOL    HW235119   1.113   8.882   1.104  1.0763  0.1504  2.1765
11148SOL     OW35120   8.955   7.990   6.484  0.0769  0.0879  0.2209
11148SOL    HW135121   9.050   7.984   6.492  0.1123 -0.1964 -0.3365
11148SOL    HW235122   8.930   7.910   6.438 -0.3013  0.7219 -0.6917
11149SOL     OW35123   3.907   2.321   2.153 -0.5307  0.6098 -0.1961
11149SOL    HW135124   3.931   2.321   2.246 -1.5975 -0.2298  0.0985
11149SOL    HW235125   3.978   2.274   2.110 -0.7490 -0.2788  0.4040
11150SOL     OW35126   3.694   2.521   1.435  0.3044 -0.1264 -0.1840
11150SOL    HW135127   3.701   2.436   1.392 -2.0978 -0.1980 -0.4921
11150SOL    HW235128   3.764   2.573   1.396  0.7656 -1.4494 -1.1696
11151SOL     OW35129   7.104   6.307   6.986  0.0766 -0.5108 -0.1569
11151SOL    HW135130   7.170   6.361   6.943 -1.2006 -1.1770 -3.1177
11151SOL    HW235131   7.112   6.221   6.944 -2.2043 -0.7811 -0.1229
11152SOL     OW35132   2.595   0.273   8.947  0.2683  0.1708  0.1095
11152SOL    HW135133   2.562   0.184   8.935  0.7658 -0.0182  0.1237
11152SOL    HW235134   2.667   0.280   8.884 -1.9042  1.6800 -2.2924
11153SOL     OW35135   6.382   2.247   3.945 -0.2018  0.0056  0.4678
11153SOL    HW135136   6.341   2.178   3.893  1.7168 -0.9700  0.1775
11153SOL    HW235137   6.461   2.206   3.980 -0.1080  1.4525  1.9970
11154SOL     OW35138   2.195   4.172   7.546 -0.0689 -0.0059  0.5570
11154SOL    HW135139   2.194   4.211   7.458  0.9585  0.5431  0.7824
11154SOL    HW235140   2.113   4.122   7.550 -0.0469 -0.1838 -0.7738
11155SOL     OW35141   6.568   3.334   9.221 -0.4106  0.7313 -0.3568
11155SOL    HW135142   6.547   3.288   9.302  0.9135  0.4881 -0.1523
11155SOL    HW235143   6.647   3.291   9.188 -0.2330  1.6369 -1.1307
11156SOL     OW35144   7.100   8.082   3.125  0.2503  0.3656 -0.3703
11156SOL    HW135145   7.010   8.113   3.134 -0.0723  0.4863 -3.4997
11156SOL    HW235146   7.152   8.143   3.177 -1.2951  1.0961  0.3435
11157SOL     OW35147   6.368   6.570   2.481 -0.2228  0.2340 -0.0152
11157SOL    HW135148   6.407   6.598   2.398  1.7780 -0.6034  0.6270
11157SOL    HW235149   6.321   6.647   2.512  1.4229  1.4674 -0.5014
11158SOL     OW35150   5.330   7.734   1.962 -0.0369  0.4539  0.2641
11158SOL    HW135151   5.370   7.651   1.935  0.3125  0.9376 -0.7041
11158SOL    HW235152   5.285   7.765   1.883 -2.0058  0.1078  1.2188
11159SOL     OW35153   2.543   5.758   3.720 -0.5457 -0.3699  0.3597
11159SOL    HW135154   2.473   5.778   3.783  0.5017 -0.2022  1.4797
11159SOL    HW235155   2.499   5.762   3.634 -1.9163 -0.3020  1.0453
11160SOL     OW35156   2.786   6.935   1.831 -0.5074  0.4000 -0.2498
11160SOL    HW135157   2.782   6.996   1.904 -1.8859  1.6093 -1.2871
11160SOL    HW235158   2.713   6.874   1.847  1.0305 -1.1592  0.9233
11161SOL     OW35159   1.278   3.956   8.005 -0.1338  0.2723 -0.4068
11161SOL    HW135160   1.189   3.937   8.033  0.5871 -3.0860 -0.2578
11161SOL    HW235161   1.283   3.923   7.915  0.8094  1.0099 -0.6412
11162SOL     OW35162   4.263   0.118   2.099 -0.0262 -0.1215 -0.4282
11162SOL    HW135163   4.291   0.080   2.016 -0.0381  1.3338 -1.1029
11162SOL    HW235164   4.337   0.105   2.158  0.5319  0.1168 -1.0698
11163SOL     OW35165   7.322   3.760   8.384  0.0288  0.4357 -0.4543
11163SOL    HW135166   7.285   3.717   8.462 -0.1721  0.7341 -0.3846
11163SOL    HW235167   7.373   3.691   8.341  0.1211  0.2620 -0.0708
11164SOL     OW35168   9.015   5.758   4.731 -0.0541  0.0327 -0.6974
11164SOL    HW135169   8.989   5.768   4.640 -1.0644 -0.5320 -0.4772
11164SOL    HW235170   9.094   5.703   4.728 -1.1965 -1.6152 -1.1115
11165SOL     OW35171   8.558   7.853   6.704 -0.1240  0.0216 -0.2658
11165SOL    HW135172   8.505   7.899   6.639 -2.0881 -0.9595  0.5889
11165SOL    HW235173   8.630   7.913   6.724 -1.2390  1.6427 -1.0372
11166SOL     OW35174   4.131   1.209   2.281  0.1844 -0.3906  0.2191
11166SOL    HW135175   4.151   1.287   2.230  0.5863 -1.0031 -0.5616
11166SOL    HW235176   4.183   1.219   2.361 -0.4604  0.5722  0.5321
11167SOL     OW35177   2.015   3.691   7.705  0.4445  0.4552  0.3766
11167SOL    HW135178   2.090   3.681   7.645 -0.5589  0.0428 -0.8345
11167SOL    HW235179   1.950   3.739   7.654 -0.9655 -1.1328  0.6382
11168SOL     OW35180   3.834   6.519   0.860  0.5402  0.0231 -0.2694
11168SOL    HW135181   3.770   6.474   0.915  1.2876 -2.5046 -1.3821
11168SOL    HW235182   3.908   6.458   0.854  1.1690  0.9459 -2.6710
11169SOL     OW35183   5.149   4.026   0.271  0.5867 -0.7569 -0.5100
11169SOL    HW135184   5.240   4.047   0.296  0.3718 -0.9390  0.4348
11169SOL    HW235185   5.154   3.938   0.235  0.5842 -1.3068  0.7871
11170SOL     OW35186   6.110   2.680   1.085 -0.0232 -0.2515 -0.4038
11170SOL    HW135187   6.096   2.762   1.134  0.4470  1.3881 -2.9153
11170SOL    HW235188   6.032   2.628   1.104 -0.8206  1.1964  0.4391
11171SOL     OW35189   3.179   6.328   1.646  0.3559 -0.4881 -0.4179
11171SOL    HW135190   3.136   6.310   1.562 -0.4089 -0.4871 -0.0336
11171SOL    HW235191   3.110   6.317   1.711  0.2839  2.0298 -0.0103
11172SOL     OW35192   1.316   2.353   6.407  0.0490 -0.4858  0.0565
11172SOL    HW135193   1.357   2.421   6.459 -2.1998 -0.0226  1.2638
11172SOL    HW235194   1.369   2.275   6.424  2.0892  0.7038 -0.6352
11173SOL     OW35195   1.119   7.459   2.875  0.1975  0.7710  0.1493
11173SOL    HW135196   1.166   7.464   2.792  0.7655  0.1162  0.4283
11173SOL    HW235197   1.157   7.528   2.929  0.8661  0.2158  0.3880
11174SOL     OW35198   5.979   5.009   5.367  0.8749 -0.7431 -0.3058
11174SOL    HW135199   6.029   5.081   5.328  0.5454  0.3491  1.2679
11174SOL    HW235200   5.887   5.036   5.358  0.7160 -1.2623 -0.2685
11175SOL     OW35201   9.180   0.019   9.196 -0.0004 -0.1513 -0.0457
11175SOL    HW135202   9.199  -0.072   9.218  1.7754  0.8483  2.8355
11175SOL    HW235203   9.263   0.055   9.167 -0.4011  0.8932  0.0822
11176SOL     OW35204   8.154   4.254   6.004 -0.0689 -0.4228 -0.3211
11176SOL    HW135205   8.215   4.315   6.045  0.2379 -2.0852  1.7681
11176SOL    HW235206   8.069   4.276   6.043 -0.3483  0.0944 -1.2046
11177SOL     OW35207   6.003   3.413   3.531  0.8560 -0.5481  0.2984
11177SOL    HW135208   5.925   3.446   3.486  1.4681 -0.4562 -0.7167
11177SOL    HW235209   6.033   3.485   3.585  0.7464 -0.2847  0.0075
11178SOL     OW35210   5.104   6.652   2.676  0.0956 -0.3382 -0.0242
11178SOL    HW135211   5.069   6.709   2.744  0.8179 -0.1288  0.1775
11178SOL    HW235212   5.168   6.597   2.721 -1.6167 -2.3126  0.0840
11179SOL     OW35213   8.723   2.288   3.823 -0.1768  0.0304  0.0162
11179SOL    HW135214   8.646   2.335   3.855 -0.6946 -1.3156  0.7846
11179SOL    HW235215   8.796   2.327   3.872 -0.8594 -1.4204  2.2797
11180SOL     OW35216   6.023   6.369   0.483 -0.5837  0.2004 -0.0839
11180SOL    HW135217   5.997   6.389   0.393 -1.5386 -1.3401 -0.1651
11180SOL    HW235218   5.973   6.431   0.537  0.8722  1.9149 -0.6607
11181SOL     OW35219   8.310   7.199   4.402  0.6455 -0.2471 -0.1688
11181SOL    HW135220   8.345   7.110   4.393  1.0411 -0.1487  0.3919
11181SOL    HW235221   8.282   7.204   4.493  0.7004  0.2312 -0.1799
11182SOL     OW35222   5.806   7.401   0.257 -0.2065 -0.6321  0.4713
11182SOL    HW135223   5.768   7.371   0.174 -0.4967 -1.3800  0.8632
11182SOL    HW235224   5.730   7.418   0.313 -0.0116 -0.1704  0.5925
11183SOL     OW35225   3.514   9.253   3.180 -0.6942  0.5628 -0.2958
11183SOL    HW135226   3.478   9.247   3.268  1.9878  1.5618  0.9097
11183SOL    HW235227   3.511   9.164   3.147  1.3442 -0.4271  2.0757
11184SOL     OW35228   0.789   3.849   3.716  0.2655 -0.7476 -0.0074
11184SOL    HW135229   0.731   3.802   3.657  1.2477 -0.0779 -1.5408
11184SOL    HW235230   0.869   3.796   3.717  0.0334 -1.0917  1.2356
11185SOL     OW35231   6.776   6.095   5.302  0.0003  0.0989 -0.4989
11185SOL    HW135232   6.682   6.106   5.289 -0.0219  1.2158  0.5158
11185SOL    HW235233   6.796   6.009   5.265 -1.2138  0.3513 -1.7452
11186SOL     OW35234   5.031   8.359   2.284  0.1257 -0.2303  0.4308
11186SOL    HW135235   4.969   8.290   2.307 -1.2750  1.1234  0.7831
11186SOL    HW235236   5.091   8.319   2.221 -1.5102 -1.3555 -0.4055
11187SOL     OW35237   5.209   1.608   7.408 -0.8873  0.1518 -0.3232
11187SOL    HW135238   5.269   1.536   7.388 -1.7160 -0.1709 -1.7739
11187SOL    HW235239   5.178   1.590   7.496 -0.9849 -1.2031 -0.6268
11188SOL     OW35240   1.471   4.619   2.555 -0.2205  0.5150  0.2787
11188SOL    HW135241   1.396   4.574   2.516  0.9651 -0.0470 -1.4341
11188SOL    HW235242   1.456   4.614   2.649 -0.2170 -3.3156  0.1412
11189SOL     OW35243   6.465   0.123   5.767 -0.5988 -0.0236 -0.2022
11189SOL    HW135244   6.380   0.083   5.788 -0.3288  0.1041  1.1951
11189SOL    HW235245   6.448   0.217   5.771 -0.2696  0.0057  0.6350
11190SOL     OW35246   1.871   4.732   7.596 -0.0593  0.0609 -0.0161
11190SOL    HW135247   1.871   4.652   7.647  0.1980  0.5113  0.6997
11190SOL    HW235248   1.786   4.773   7.615 -0.1843 -0.0295 -0.3675
11191SOL     OW35249   6.824   3.738   2.366  0.0620  0.5161 -0.1865
11191SOL    HW135250   6.762   3.808   2.386 -1.1162 -0.5317 -0.1228
11191SOL    HW235251   6.774   3.658   2.377  1.1891 -0.3166 -1.0131
11192SOL     OW35252   3.507   0.770   5.994  0.2238  0.5229 -0.3004
11192SOL    HW135253   3.419   0.769   6.032 -0.7089 -2.9990 -2.2584
11192SOL    HW235254   3.500   0.714   5.917  4.2575 -0.0873 -0.3390
11193SOL     OW35255   6.471   5.977   9.004  0.3509  0.0885  0.3026
11193SOL    HW135256   6.528   6.049   8.979  0.7361 -0.5699 -0.7178
11193SOL    HW235257   6.442   5.939   8.921 -0.1037 -0.7282  0.8301
11194SOL     OW35258   3.807   0.655   3.774 -0.2082  1.0135 -0.2824
11194SOL    HW135259   3.767   0.741   3.764 -0.6713  0.6918 -1.3920
11194SOL    HW235260   3.854   0.641   3.692 -0.7052 -0.0610 -0.3985
11195SOL     OW35261   5.268   6.500   5.299 -0.2556 -0.0045  0.1912
11195SOL    HW135262   5.292   6.432   5.236 -0.5384  1.1037 -1.1550
11195SOL    HW235263   5.174   6.510   5.288 -0.4634 -0.4986  1.5143
11196SOL     OW35264   7.017   5.645   8.249  0.0175 -0.4781 -0.2079
11196SOL    HW135265   7.034   5.679   8.161  0.6284 -0.3345 -0.0342
11196SOL    HW235266   7.061   5.707   8.308 -0.6399 -0.4088  0.2177
11197SOL     OW35267   4.224   3.336   0.582 -0.3437 -0.3869 -0.3397
11197SOL    HW135268   4.168   3.276   0.533  0.6144 -1.8350  0.3100
11197SOL    HW235269   4.288   3.367   0.518  1.8311 -3.4296  0.2674
11198SOL     OW35270   3.941   8.607   7.283 -0.3403  0.0596 -0.2750
11198SOL    HW135271   3.883   8.546   7.236  0.4466 -1.0937  0.2186
11198SOL    HW235272   3.894   8.627   7.364  0.0036 -0.9905  0.1924
11199SOL     OW35273   4.826   5.744   4.381  0.3246 -0.3475  0.3019
11199SOL    HW135274   4.912   5.757   4.341 -0.2336 -0.2260 -0.8491
11199SOL    HW235275   4.815   5.820   4.438  0.6937 -0.0407 -0.0359
11200SOL     OW35276   7.303   9.246   0.384 -0.0532 -0.1953 -0.2764
11200SOL    HW135277   7.304   9.208   0.296 -0.8986 -1.1379  0.1210
11200SOL    HW235278   7.370   9.315   0.381 -0.0017 -0.2978 -1.6192
11201SOL     OW35279   5.232   1.573   6.288  0.1518 -0.7287 -0.4548
11201SOL    HW135280   5.199   1.530   6.209  0.1914  0.4591 -1.1325
11201SOL    HW235281   5.226   1.506   6.356  1.1268 -2.1201 -1.6976
11202SOL     OW35282   6.827   5.441   0.447 -0.2304  0.2052 -0.6104
11202SOL    HW135283   6.761   5.481   0.503  1.9134 -1.9055  3.6266
11202SOL    HW235284   6.899   5.503   0.446  0.0005 -0.0555 -0.4349
11203SOL     OW35285   3.353   1.777   0.731  0.0150  0.5266 -0.4635
11203SOL    HW135286   3.426   1.819   0.686  0.1199  0.6349 -0.1908
11203SOL    HW235287   3.359   1.808   0.822  0.4450 -0.5235 -0.1180
11204SOL     OW35288   6.653   3.614   5.523 -0.1191  0.3633 -0.6677
11204SOL    HW135289   6.645   3.529   5.479  0.6170 -0.3338  0.5028
11204SOL    HW235290   6.563   3.645   5.532 -0.8614 -2.4712  2.9833
11205SOL     OW35291   8.190   8.820   3.642  0.0193  0.0780 -0.2963
11205SOL    HW135292   8.248   8.896   3.633  1.6645 -1.3469 -2.2133
11205SOL    HW235293   8.228   8.770   3.714 -0.7660  0.7938  0.6267
11206SOL     OW35294   7.435   6.487   6.272  0.3088  0.2612 -0.0150
11206SOL    HW135295   7.528   6.477   6.292  0.2036  0.0609  0.3788
11206SOL    HW235296   7.432   6.497   6.177  0.5354 -2.1408 -0.3162
11207SOL     OW35297   8.021   6.150   1.219  0.0899 -0.1738  0.9257
11207SOL    HW135298   7.932   6.129   1.190  0.4239 -2.2756  1.3404
11207SOL    HW235299   8.013   6.162   1.314  0.1317  0.2631  0.8728
11208SOL     OW35300   0.076   0.375   6.480 -0.3521  0.3887 -0.1453
11208SOL    HW135301   0.079   0.285   6.449 -1.3066  0.2816  0.0463
11208SOL    HW235302  -0.010   0.407   6.452  0.8749  1.9894 -2.2490
11209SOL     OW35303   4.713   8.399   1.050  0.1646 -0.6372  1.0096
11209SOL    HW135304   4.655   8.469   1.078  2.0998  1.1252  0.7189
11209SOL    HW235305   4.736   8.353   1.131 -2.1882 -1.8361  1.0386
11210SOL     OW35306   8.755   4.174   5.276  0.6216  0.1183 -0.3291
11210SOL    HW135307   8.682   4.170   5.338 -0.2152 -0.5626 -1.3354
11210SOL    HW235308   8.738   4.251   5.223  0.3344 -0.3369 -0.9100
11211SOL     OW35309   3.915   5.233   6.039 -0.1752 -0.3068 -0.4778
11211SOL    HW135310   3.935   5.224   5.946  0.9698  0.1524 -0.2768
11211SOL    HW235311   3.856   5.159   6.058 -0.0831 -0.6360 -1.4652
11212SOL     OW35312   4.885   8.968   4.864  0.2020 -0.0514 -0.1148
11212SOL    HW135313   4.802   8.979   4.910  0.8304 -1.0973  1.3076
11212SOL    HW235314   4.949   8.953   4.933  1.7539  1.6034 -1.1324
11213SOL     OW35315   4.252   3.160   6.626 -0.1158  0.1359  0.3879
11213SOL    HW135316   4.223   3.068   6.629 -0.4636  0.2183 -0.4679
11213SOL    HW235317   4.267   3.182   6.718  0.5053 -0.9462  0.5631
11214SOL     OW35318   7.784   7.836   1.553 -0.0816  0.0302  0.3548
11214SOL    HW135319   7.733   7.834   1.634 -0.9277 -1.4832 -0.2026
11214SOL    HW235320   7.821   7.748   1.545 -0.0379  0.1497 -0.9230
11215SOL     OW35321   8.939   5.300   3.211 -0.0364 -0.0140 -0.2340
11215SOL    HW135322   9.017   5.355   3.206  0.1872 -0.4851 -2.5137
11215SOL    HW235323   8.958   5.225   3.154 -1.1248 -1.4649  1.2421
11216SOL     OW35324   4.544   2.303   4.783 -0.0006  0.1419  0.3062
11216SOL    HW135325   4.510   2.347   4.861 -0.8485  1.0040 -0.5445
11216SOL    HW235326   4.541   2.210   4.805 -2.9046  0.1929  0.2534
11217SOL     OW35327   7.154   3.884   2.177  0.0827 -0.0139  0.0703
11217SOL    HW135328   7.183   3.953   2.118  0.4829  1.0339  1.4688
11217SOL    HW235329   7.058   3.890   2.176  0.1257  3.6160  3.6229
11218SOL     OW35330   2.930   2.992   2.776  0.4366  0.2052 -0.2623
11218SOL    HW135331   2.911   3.026   2.688 -0.5962  3.1448  1.0352
11218SOL    HW235332   3.009   3.039   2.803  1.1921 -1.2476  0.1431
11219SOL     OW35333   8.602   6.380   3.979 -0.0741  0.1100 -0.5564
11219SOL    HW135334   8.592   6.383   3.884  1.3086 -1.3079 -0.7775
11219SOL    HW235335   8.536   6.318   4.008  0.0017 -0.0323 -0.6858
11220SOL     OW35336   8.371   8.636   4.350  0.3653  0.2045 -0.1906
11220SOL    HW135337   8.277   8.649   4.339  0.2872 -0.8653 -0.8293
11220SOL    HW235338   8.382   8.541   4.353  1.0330  0.3334  3.4118
11221SOL     OW35339   5.873   6.415   4.584  0.3941 -0.0696  0.1814
11221SOL    HW135340   5.895   6.412   4.678  0.2270  0.6445  0.2487
11221SOL    HW235341   5.789   6.461   4.581  0.4319 -0.0313 -0.3259
11222SOL     OW35342   7.048   5.726   7.984  0.1012 -0.1158  0.1404
11222SOL    HW135343   7.085   5.752   7.900 -1.4657  0.4730 -0.3833
11222SOL    HW235344   6.955   5.746   7.977 -0.1180 -0.3977  1.8864
11223SOL     OW35345   0.061   4.270   2.099 -0.5941  0.4043 -0.4682
11223SOL    HW135346   0.012   4.194   2.129  0.2168 -0.0798 -0.3478
11223SOL    HW235347   0.119   4.235   2.031  2.6492  0.1003  2.3229
11224SOL     OW35348   7.106   1.139   1.680  0.3175  0.2036  0.9417
11224SOL    HW135349   7.165   1.174   1.747 -0.2653  2.2846  0.4246
11224SOL    HW235350   7.151   1.155   1.597 -0.7226  1.3923  0.5791
11225SOL     OW35351   8.783   8.633   3.161 -0.1187  0.4600  0.1406
11225SOL    HW135352   8.708   8.673   3.117  0.3026 -0.0899 -1.0856
11225SOL    HW235353   8.852   8.699   3.156  0.3416 -0.1147 -1.2093
11226SOL     OW35354   1.377   1.047   0.657  0.1743  0.3794  0.1818
11226SOL    HW135355   1.375   1.087   0.744 -1.9670  1.6915 -0.4283
11226SOL    HW235356   1.332   0.963   0.668  1.2527 -0.1341  0.6598
11227SOL     OW35357   1.497   7.581   7.650  0.5019  0.4200 -0.3153
11227SOL    HW135358   1.549   7.540   7.720  2.1306  2.8618 -0.0577
11227SOL    HW235359   1.561   7.613   7.587 -0.8122  1.1954 -1.2925
11228SOL     OW35360   0.585   6.623   0.648 -0.6071  0.0802  0.4391
11228SOL    HW135361   0.577   6.656   0.559 -1.2816  0.0222  0.4819
11228SOL    HW235362   0.529   6.680   0.701 -0.2179  0.1091  0.8275
11229SOL     OW35363   0.640   4.786   6.831  0.6236  0.3700  0.2883
11229SOL    HW135364   0.727   4.753   6.854  0.5199  0.2987  0.5832
11229SOL    HW235365   0.599   4.713   6.784  0.6149  0.2923  0.4133
11230SOL     OW35366   7.821   3.000   0.343 -0.1236  0.3448  0.0444
11230SOL    HW135367   7.818   2.985   0.437 -1.5247  0.0546 -0.0403
11230SOL    HW235368   7.885   2.936   0.310  0.0070  0.1194  0.7285
11231SOL     OW35369   1.956   9.237   3.501  0.5050 -0.3783 -0.0172
11231SOL    HW135370   2.014   9.239   3.425  1.4052 -0.8391  0.6347
11231SOL    HW235371   1.899   9.312   3.490  1.0492 -0.0784 -0.8297
11232SOL     OW35372   4.659   7.615   4.919 -0.0796  0.2666 -0.1047
11232SOL    HW135373   4.701   7.536   4.954  1.2030  0.6300 -0.7965
11232SOL    HW235374   4.575   7.584   4.885 -0.8744 -0.2916  2.2429
11233SOL     OW35375   3.081   7.531   2.005 -0.4131 -0.3800  0.4372
11233SOL    HW135376   3.042   7.614   1.978  0.3497 -0.4624 -0.9749
11233SOL    HW235377   3.115   7.548   2.092 -1.0523  0.5286  0.5165
11234SOL     OW35378   4.431   0.900   3.336  0.5743  0.6493  0.4440
11234SOL    HW135379   4.524   0.908   3.357  0.3338  2.7392  0.8530
11234SOL    HW235380   4.396   0.841   3.403  2.1494 -2.6139 -1.5127
11235SOL     OW35381   6.465   5.062   2.945  0.4589 -1.0713 -0.2922
11235SOL    HW135382   6.551   5.100   2.963 -1.3194  2.8650  0.3691
11235SOL    HW235383   6.435   5.030   3.030  0.4644 -0.6374 -0.1239
11236SOL     OW35384   4.040   2.421   3.601 -0.2167  0.1633 -0.0353
11236SOL    HW135385   4.094   2.370   3.662  1.9562  1.5924 -0.7017
11236SOL    HW235386   3.986   2.356   3.557  0.6622 -1.2717  0.9574
11237SOL     OW35387   6.737   1.406   3.799  0.9040 -0.2339 -0.2712
11237SOL    HW135388   6.697   1.492   3.783 -0.3395 -0.9119 -0.8418
11237SOL    HW235389   6.788   1.389   3.720  0.8503 -0.1861 -0.3167
11238SOL     OW35390   9.220   7.254   3.572  0.0365  0.2967  0.6913
11238SOL    HW135391   9.153   7.274   3.506  1.8831 -0.1255 -1.3420
11238SOL    HW235392   9.281   7.327   3.567  1.7448 -1.1507 -0.1374
11239SOL     OW35393   1.613   6.885   2.539  0.4095  0.3455 -0.7333
11239SOL    HW135394   1.667   6.871   2.617 -2.0900  0.4427  1.0778
11239SOL    HW235395   1.575   6.972   2.552  1.1391  0.9839 -2.7993
11240SOL     OW35396   6.030   3.834   4.886  0.3049 -0.1482 -0.3864
11240SOL    HW135397   6.125   3.842   4.889  0.1602  1.7619  0.0107
11240SOL    HW235398   6.000   3.881   4.964 -1.0049  0.2267 -1.1051
11241SOL     OW35399   4.065   3.949   5.248 -0.0883  0.0123 -0.3620
11241SOL    HW135400   4.113   3.889   5.305  0.6046  0.0198 -0.9443
11241SOL    HW235401   3.976   3.948   5.284  0.3170 -0.0477  0.6789
11242SOL     OW35402   6.635   7.178   8.475 -0.3046 -0.4896 -0.6292
11242SOL    HW135403   6.569   7.214   8.533 -2.1333  1.6466 -3.8647
11242SOL    HW235404   6.717   7.217   8.505 -1.0330 -0.2632  1.1303
11243SOL     OW35405   3.041   6.836   4.955  0.4069  0.3750 -0.3511
11243SOL    HW135406   3.010   6.825   5.045 -1.4081  1.1990 -0.8652
11243SOL    HW235407   3.059   6.930   4.947  0.9290  0.2437 -0.7342
11244SOL     OW35408   3.906   3.020   8.645 -0.1307 -0.1323 -0.1410
11244SOL    HW135409   3.833   3.013   8.583  0.3314 -1.4279 -0.5617
11244SOL    HW235410   3.972   3.071   8.598 -0.7750  1.1138  0.2686
11245SOL     OW35411   5.271   6.800   9.152  0.1914  0.4264  0.5654
11245SOL    HW135412   5.179   6.781   9.131 -0.2049  1.2028  1.5514
11245SOL    HW235413   5.292   6.876   9.098  0.3758  0.0086  0.0463
11246SOL     OW35414   8.610   4.406   4.080 -0.0453 -0.5473  0.2422
11246SOL    HW135415   8.656   4.398   3.997 -1.4278 -0.2631 -0.5719
11246SOL    HW235416   8.519   4.382   4.060 -0.9993  2.2282  1.0316
11247SOL     OW35417   5.516   6.465   8.413  0.4357  0.0574 -0.0015
11247SOL    HW135418   5.484   6.543   8.458 -1.1496 -0.1678 -0.6805
11247SOL    HW235419   5.557   6.499   8.333  3.4872  0.4765  1.6756
11248SOL     OW35420   3.520   8.481   1.136  0.1432 -0.1457  0.5261
11248SOL    HW135421   3.428   8.508   1.140  0.5517  1.8379 -2.0559
11248SOL    HW235422   3.568   8.552   1.178  0.5389 -0.9770  1.4870
11249SOL     OW35423   6.483   1.993   0.242 -0.1832  0.0942  0.3367
11249SOL    HW135424   6.431   2.071   0.221 -0.4832  0.2571  1.6877
11249SOL    HW235425   6.530   2.016   0.322  2.1481  0.0315 -0.9489
11250SOL     OW35426   3.087   1.603   3.895  0.6585 -0.3637 -0.4950
11250SOL    HW135427   3.109   1.691   3.926  1.0795 -0.0462 -1.6737
11250SOL    HW235428   3.171   1.565   3.869  0.6045 -1.4505  0.7968
11251SOL     OW35429   3.685   5.590   4.135  0.4868 -0.0543 -0.3298
11251SOL    HW135430   3.758   5.591   4.073 -1.2167 -0.2784 -2.3737
11251SOL    HW235431   3.613   5.632   4.089 -1.8210 -3.2029  0.2301
11252SOL     OW35432   4.784   6.615   9.049 -0.2395  0.3518 -0.1548
11252SOL    HW135433   4.745   6.680   9.108 -2.1865 -0.3742 -0.6141
11252SOL    HW235434   4.746   6.634   8.963 -0.7292 -1.3009 -0.3214
11253SOL     OW35435   0.252   5.711   8.809  0.0898 -0.2768  0.5374
11253SOL    HW135436   0.329   5.682   8.857  0.6006 -0.4831 -0.3833
11253SOL    HW235437   0.180   5.659   8.845  0.2205  0.5534  2.0113
11254SOL     OW35438   2.178   2.193   4.482 -0.1366 -0.0634 -0.1583
11254SOL    HW135439   2.142   2.176   4.396  0.6645 -2.3817 -0.0839
11254SOL    HW235440   2.201   2.286   4.482 -2.2084  0.4638 -1.6277
11255SOL     OW35441   0.237   5.467   3.844 -0.3895 -0.0920 -0.2148
11255SOL    HW135442   0.264   5.521   3.769  0.9964  2.3708  1.9606
11255SOL    HW235443   0.317   5.422   3.871 -1.5571 -3.4619 -2.0755
11256SOL     OW35444   8.134   7.205   9.077 -0.2513 -0.4287  0.3485
11256SOL    HW135445   8.123   7.246   9.163 -0.2817  2.2613 -0.8651
11256SOL    HW235446   8.217   7.158   9.083  1.0369  1.8594  1.1114
11257SOL     OW35447   5.298   5.497   1.701 -0.1106 -0.5285 -0.4530
11257SOL    HW135448   5.383   5.521   1.736 -1.0053 -2.1530  3.0543
11257SOL    HW235449   5.254   5.581   1.686  1.6932  0.2872 -1.3504
11258SOL     OW35450   5.146   8.838   1.057 -0.6567 -0.5335  0.2041
11258SOL    HW135451   5.105   8.910   1.011  1.2713  0.4837  0.0165
11258SOL    HW235452   5.201   8.881   1.124  2.0336 -1.7072 -1.1797
11259SOL     OW35453   0.308   3.022   5.135  0.3776 -0.2123  1.0340
11259SOL    HW135454   0.252   2.945   5.147 -1.0615  1.0992  3.0696
11259SOL    HW235455   0.268   3.089   5.191  2.0795  1.7645 -0.0691
11260SOL     OW35456   0.418   2.838   2.851 -0.2673 -0.7306 -0.2124
11260SOL    HW135457   0.409   2.756   2.803  1.1201 -1.6243  1.0206
11260SOL    HW235458   0.491   2.883   2.809  0.1653 -0.9627  0.2937
11261SOL     OW35459   7.631   4.496   3.770 -0.2308 -0.3230 -0.1334
11261SOL    HW135460   7.719   4.488   3.807 -0.8919  0.3394  1.6343
11261SOL    HW235461   7.627   4.587   3.738 -1.5314  0.8882  3.2501
11262SOL     OW35462   8.375   0.225   8.322 -0.0729 -0.7739  0.3681
11262SOL    HW135463   8.340   0.159   8.262  0.9372  1.5318 -2.9014
11262SOL    HW235464   8.432   0.176   8.382 -1.8526 -3.2758  0.0521
11263SOL     OW35465   4.741   8.929   5.375 -0.4013 -0.1040  0.0905
11263SOL    HW135466   4.707   9.013   5.408  3.1886  0.7119  2.0735
11263SOL    HW235467   4.773   8.949   5.287 -0.0942  0.4835  0.3324
11264SOL     OW35468   4.720   2.482   1.678 -0.2749 -0.2140 -0.4111
11264SOL    HW135469   4.683   2.486   1.589 -2.6043  0.0120  0.5337
11264SOL    HW235470   4.645   2.467   1.735  1.2406 -0.7000  1.5187
11265SOL     OW35471   8.413   2.911   1.506 -0.3654 -0.1004 -0.1842
11265SOL    HW135472   8.329   2.878   1.538  0.1890 -0.9326  0.4282
11265SOL    HW235473   8.469   2.834   1.500  0.5339  0.5282 -0.0365
11266SOL     OW35474   4.115   3.202   3.011 -0.2578  0.4335  0.7716
11266SOL    HW135475   4.098   3.296   3.015 -0.0112  0.5492 -0.5043
11266SOL    HW235476   4.195   3.190   3.061 -0.2489  0.9181  0.8798
11267SOL     OW35477   8.240   7.739   8.459 -0.1640 -0.2123  0.4506
11267SOL    HW135478   8.186   7.795   8.514 -1.1793  0.2769 -1.0401
11267SOL    HW235479   8.301   7.799   8.417  0.2140 -0.5176  0.5536
11268SOL     OW35480   0.925   4.198   1.269  0.6023 -0.1826  0.2072
11268SOL    HW135481   0.924   4.275   1.212  1.5308  0.3437  0.8952
11268SOL    HW235482   1.016   4.189   1.296  0.4835 -1.4752  0.2011
11269SOL     OW35483   1.242   1.706   7.518 -0.4920 -0.6756  0.0441
11269SOL    HW135484   1.257   1.653   7.596  1.0987 -1.4397 -0.7496
11269SOL    HW235485   1.322   1.694   7.465 -0.7916  1.2469 -0.8741
11270SOL     OW35486   7.065   4.377   0.239  0.1591 -0.1761 -0.3683
11270SOL    HW135487   7.089   4.357   0.329  1.6551  0.8744 -0.4990
11270SOL    HW235488   6.995   4.441   0.247  0.2156 -0.1636  0.0567
11271SOL     OW35489   7.796   1.361   0.537  0.5161  0.5970  0.2237
11271SOL    HW135490   7.789   1.409   0.620  1.1249  2.4141 -0.7521
11271SOL    HW235491   7.879   1.390   0.499  0.1816 -0.1118 -1.0873
11272SOL     OW35492   1.027   6.848   2.295 -0.4449  0.0392  0.1453
11272SOL    HW135493   0.977   6.915   2.248 -0.9745  0.9790  1.9786
11272SOL    HW235494   0.961   6.798   2.342  0.0709 -0.8771 -0.1025
11273SOL     OW35495   1.144   8.470   0.541  0.0449 -0.3338 -0.0084
11273SOL    HW135496   1.168   8.445   0.630 -2.6893 -2.6553  0.1673
11273SOL    HW235497   1.099   8.554   0.551 -1.2751 -1.1329  0.9989
11274SOL     OW35498   2.287   2.020   1.201  0.0634  0.1549 -0.5065
11274SOL    HW135499   2.267   2.081   1.272  1.2085 -0.7030  0.6049
11274SOL    HW235500   2.281   2.072   1.121  0.6655  1.6310  0.3837
11275SOL     OW35501   1.342   0.389   3.177  0.5422  0.2951 -0.2277
11275SOL    HW135502   1.355   0.483   3.162  0.5026  0.3896  0.3300
11275SOL    HW235503   1.325   0.382   3.271 -2.5504  0.0730 -0.7608
11276SOL     OW35504   4.908   6.924   2.440  0.7831  0.6572  0.1864
11276SOL    HW135505   4.893   6.947   2.532  0.3338 -0.6910  0.4723
11276SOL    HW235506   4.970   6.851   2.444  0.7619  0.5904 -0.5860
11277SOL     OW35507   4.120   6.964   6.864  0.3120 -0.0322  0.1661
11277SOL    HW135508   4.030   6.996   6.859 -0.0628 -1.1945 -0.7934
11277SOL    HW235509   4.161   6.992   6.782  0.9114  0.7261  0.7160
11278SOL     OW35510   3.131   5.390   7.879  0.7950 -0.2273 -0.5603
11278SOL    HW135511   3.220   5.356   7.866  1.0718 -0.0093  0.7518
11278SOL    HW235512   3.144   5.479   7.910  0.1521 -0.6884  1.0894
11279SOL     OW35513   0.704   4.097   6.387  0.6732  0.4834  0.0472
11279SOL    HW135514   0.734   4.008   6.401 -0.1442  0.1740 -0.1422
11279SOL    HW235515   0.783   4.151   6.398  1.3136 -0.3180 -0.5655
11280SOL     OW35516   3.919   4.166   0.637 -0.2237 -0.4211 -0.3638
11280SOL    HW135517   3.932   4.130   0.549 -0.7345 -1.9853  0.1873
11280SOL    HW235518   3.910   4.260   0.623  0.0355 -0.6212 -1.9589
11281SOL     OW35519   9.105   6.095   6.067  0.0670 -0.0973 -0.6524
11281SOL    HW135520   9.128   6.105   6.159 -1.7320 -1.0166 -0.0795
11281SOL    HW235521   9.147   6.169   6.023  1.4255  0.0055  0.8040
11282SOL     OW35522   1.055   7.749   3.378  0.3321 -0.9002 -0.0824
11282SOL    HW135523   1.129   7.744   3.438 -0.9342 -1.8250  1.4551
11282SOL    HW235524   1.011   7.832   3.402  1.0285 -0.2071 -1.1861
11283SOL     OW35525   5.141   6.709   1.758 -0.9371  0.2847  0.4709
11283SOL    HW135526   5.232   6.737   1.746 -0.5477 -2.0408 -2.6582
11283SOL    HW235527   5.139   6.673   1.847  1.7301 -1.3886 -0.0912
11284SOL     OW35528   8.641   0.804   3.774 -0.1953  0.3086  0.5280
11284SOL    HW135529   8.574   0.743   3.804  1.0126 -0.5586  1.5167
11284SOL    HW235530   8.598   0.890   3.774 -1.2828 -0.2344  1.1722
11285SOL     OW35531   2.802   0.033   7.130  0.2092  0.3225  0.4846
11285SOL    HW135532   2.708   0.034   7.147  0.5901  0.1121  2.7453
11285SOL    HW235533   2.818  -0.052   7.088 -0.8165  0.9813 -1.2754
11286SOL     OW35534   9.219   3.648   7.147 -0.2345 -0.2391  0.2991
11286SOL    HW135535   9.191   3.614   7.062  0.2217  1.2849 -0.4793
11286SOL    HW235536   9.179   3.589   7.210 -2.8334  0.1824 -0.8828
11287SOL     OW35537   8.842   8.103   0.056 -0.0594 -0.6548  0.2107
11287SOL    HW135538   8.788   8.024   0.052 -0.8656 -0.0241 -1.3293
11287SOL    HW235539   8.916   8.084  -0.002 -0.5473 -0.0502 -0.6055
11288SOL     OW35540   1.637   0.194   1.092  0.0117 -0.3458 -0.0428
11288SOL    HW135541   1.730   0.214   1.100  0.1551 -1.1740  0.3834
11288SOL    HW235542   1.634   0.118   1.034 -0.5302  0.8186 -1.5942
11289SOL     OW35543   3.266   7.797   6.402 -0.2183  0.5353  0.0375
11289SOL    HW135544   3.275   7.708   6.438  0.2161  0.2969 -0.6461
11289SOL    HW235545   3.248   7.783   6.308  0.2385  1.1775 -0.1459
11290SOL     OW35546   4.330   2.643   3.083  0.5464  0.0320 -0.1063
11290SOL    HW135547   4.353   2.730   3.116  1.4594  0.8140 -2.6232
11290SOL    HW235548   4.378   2.582   3.138  2.6062  1.3164 -0.4300
11291SOL     OW35549   5.812   0.949   8.910  0.3207 -0.0438 -0.2159
11291SOL    HW135550   5.882   0.911   8.858  0.7531 -0.0488  0.3691
11291SOL    HW235551   5.732   0.911   8.874  0.6826 -0.7493 -0.2811
11292SOL     OW35552   3.695   2.925   4.692 -0.0942  0.4488  0.2784
11292SOL    HW135553   3.787   2.949   4.686 -0.0139  0.1993  0.4890
11292SOL    HW235554   3.669   2.905   4.602  0.0820  0.4263  0.2319
11293SOL     OW35555   6.867   5.505   5.022 -0.1566 -0.4488  0.3040
11293SOL    HW135556   6.811   5.562   5.075 -1.7813 -1.2407 -0.5280
11293SOL    HW235557   6.883   5.555   4.942  1.6890  0.4411  1.1908
11294SOL     OW35558   1.746   0.681   0.309 -0.8130  0.1695  0.0700
11294SOL    HW135559   1.746   0.676   0.404 -0.4447  2.2120  0.1958
11294SOL    HW235560   1.654   0.674   0.284 -1.4654  4.3865  0.9079
11295SOL     OW35561   8.384   0.873   6.492 -0.2050  0.2865 -1.0124
11295SOL    HW135562   8.305   0.902   6.538  1.5533  0.9965  1.7036
11295SOL    HW235563   8.429   0.954   6.468  0.5273 -0.1072 -1.0022
11296SOL     OW35564   4.872   3.519   4.446 -0.8978 -0.6582 -0.1500
11296SOL    HW135565   4.955   3.520   4.494 -1.8856  1.9709  1.6402
11296SOL    HW235566   4.896   3.498   4.356  1.4699 -1.8637  0.7242
11297SOL     OW35567   8.269   2.143   0.928 -0.9162  0.7473  0.3396
11297SOL    HW135568   8.278   2.223   0.876 -1.1988  1.9495  2.1179
11297SOL    HW235569   8.283   2.072   0.865  0.7773  2.2089 -0.9905
11298SOL     OW35570   2.759   8.731   6.458 -0.3835 -0.2390 -0.7653
11298SOL    HW135571   2.670   8.703   6.477  0.2413 -0.7337  1.6512
11298SOL    HW235572   2.759   8.753   6.365 -2.8080 -0.9961 -0.9588
11299SOL     OW35573   1.031   3.210   8.574  0.4970  0.0169 -0.3967
11299SOL    HW135574   1.087   3.143   8.535 -0.4541 -1.1977  0.2728
11299SOL    HW235575   1.015   3.179   8.663  0.2118  1.2499 -0.0088
11300SOL     OW35576   3.238   2.942   6.730 -0.5783 -0.1740  0.4818
11300SOL    HW135577   3.282   2.988   6.659 -0.3974 -1.2690 -0.1190
11300SOL    HW235578   3.187   3.010   6.774  1.2443  1.0148  0.8397
11301SOL     OW35579   3.770   5.182   3.459 -0.7172  0.6198  0.2097
11301SOL    HW135580   3.715   5.247   3.504 -2.1365 -0.5694  0.2266
11301SOL    HW235581   3.709   5.115   3.429  0.9950 -2.2460  2.7636
11302SOL     OW35582   1.699   6.706   0.655 -0.5480  0.8822 -0.3325
11302SOL    HW135583   1.714   6.659   0.573  0.3006  0.3975  0.0981
11302SOL    HW235584   1.742   6.790   0.643  1.1406  0.1208  0.2887
11303SOL     OW35585   1.823   2.934   4.497 -0.3486  0.3564 -0.3033
11303SOL    HW135586   1.910   2.895   4.500 -0.4022  0.3591  1.3142
11303SOL    HW235587   1.767   2.866   4.460  0.0248 -0.2000  0.1679
11304SOL     OW35588   3.394   3.085   6.908 -0.2632  0.3193 -0.0902
11304SOL    HW135589   3.330   3.022   6.874 -1.2587  1.3726 -0.1914
11304SOL    HW235590   3.477   3.058   6.869 -0.3312 -2.0332  1.2677
11305SOL     OW35591   4.450   9.191   2.404  0.2076 -0.2263 -0.1102
11305SOL    HW135592   4.406   9.204   2.488  1.0498  0.9339  0.1669
11305SOL    HW235593   4.444   9.275   2.360  1.5916 -0.2307 -0.3291
11306SOL     OW35594   2.132   3.852   1.048  0.2002  0.1349 -0.0322
11306SOL    HW135595   2.182   3.933   1.044  0.5219 -0.0421  0.3933
11306SOL    HW235596   2.132   3.828   1.140 -0.5475  0.0564 -0.0438
11307SOL     OW35597   6.406   8.240   2.817 -0.1156 -0.4527 -0.1800
11307SOL    HW135598   6.377   8.221   2.728 -1.4338 -1.1169  0.3698
11307SOL    HW235599   6.482   8.184   2.831 -0.0700 -0.5433 -0.7895
11308SOL     OW35600   2.127   6.207   8.977 -0.1121 -0.6060  0.0416
11308SOL    HW135601   2.122   6.232   8.884  0.3768 -0.1056  0.1459
11308SOL    HW235602   2.068   6.268   9.021  0.7689  0.1113  0.2442
11309SOL     OW35603   5.088   4.494   4.497 -0.3827  0.7481 -0.5135
11309SOL    HW135604   5.098   4.479   4.402  1.4230  1.4088 -0.4547
11309SOL    HW235605   5.174   4.473   4.533 -0.2548  3.0996  0.6436
11310SOL     OW35606   7.830   5.904   7.660 -0.3731  0.9173 -0.1346
11310SOL    HW135607   7.905   5.874   7.609 -1.4802 -0.8521 -0.7285
11310SOL    HW235608   7.863   5.909   7.750  0.0340 -1.3947 -0.1354
11311SOL     OW35609   3.161   7.434   8.307  0.4124  0.0516 -0.2918
11311SOL    HW135610   3.156   7.521   8.267 -0.0117 -0.8737 -2.3392
11311SOL    HW235611   3.229   7.389   8.257  0.7689 -0.7312  0.8819
11312SOL     OW35612   0.747   0.724   8.582  0.5425  0.3436 -0.1324
11312SOL    HW135613   0.772   0.676   8.503 -1.3657 -1.5825  0.3833
11312SOL    HW235614   0.709   0.657   8.640  0.0699  2.0633  1.5968
11313SOL     OW35615   3.237   0.770   6.089  0.0723 -0.2307 -0.0550
11313SOL    HW135616   3.203   0.735   6.007 -0.0299  0.4604 -0.3086
11313SOL    HW235617   3.179   0.842   6.111 -0.5604 -1.0991  1.2063
11314SOL     OW35618   7.833   6.082   6.028  0.0955 -0.0570  0.1615
11314SOL    HW135619   7.765   6.135   6.069 -0.2646  0.2381 -0.8164
11314SOL    HW235620   7.786   6.008   5.989  0.3199  0.2038 -0.6057
11315SOL     OW35621   2.813   8.382   7.050  0.1981  0.7675  0.5127
11315SOL    HW135622   2.752   8.406   6.980  0.5653 -2.0157 -0.8251
11315SOL    HW235623   2.900   8.397   7.012  0.4386 -2.4759 -0.3591
11316SOL     OW35624   0.139   4.023   8.263  0.7311 -0.1129  0.1917
11316SOL    HW135625   0.155   4.005   8.356  0.2200  1.3163  0.5671
11316SOL    HW235626   0.112   4.115   8.261 -2.2794 -0.9590 -0.9980
11317SOL     OW35627   7.807   1.439   4.848  0.0432 -0.7722 -0.4324
11317SOL    HW135628   7.810   1.514   4.789  1.5493 -0.3531  0.1563
11317SOL    HW235629   7.886   1.447   4.901 -1.4522 -0.9557  1.8850
11318SOL     OW35630   1.673   2.849   1.076  0.1907 -0.3316 -0.1086
11318SOL    HW135631   1.580   2.869   1.085 -0.0554 -0.9490 -1.1696
11318SOL    HW235632   1.696   2.878   0.988  1.2131  0.6053  0.4487
11319SOL     OW35633   4.371   6.312   8.323  0.0253  0.4330  0.0349
11319SOL    HW135634   4.418   6.232   8.298 -0.4637  0.0199  0.4263
11319SOL    HW235635   4.437   6.366   8.367  0.1498 -0.1196  0.5279
11320SOL     OW35636   3.886   2.727   3.266  0.0421 -0.4300 -0.3344
11320SOL    HW135637   3.827   2.803   3.267 -0.6626 -0.9651 -0.9147
11320SOL    HW235638   3.936   2.737   3.185  2.6289  1.4341  1.4221
11321SOL     OW35639   8.299   9.209   3.898 -0.2177  0.1346  0.1865
11321SOL    HW135640   8.261   9.141   3.953 -1.1595  1.1496  0.8379
11321SOL    HW235641   8.303   9.286   3.955  0.6978  0.6594 -0.5676
11322SOL     OW35642   6.252   3.893   0.204  0.2292 -0.5906  0.0981
11322SOL    HW135643   6.176   3.900   0.146 -0.0574 -0.7970  0.4480
11322SOL    HW235644   6.288   3.806   0.186 -0.1927 -0.8809  0.6340
11323SOL     OW35645   5.213   5.286   3.044  0.0881  0.2372 -0.1787
11323SOL    HW135646   5.207   5.300   3.138  1.7654  2.4537 -0.3446
11323SOL    HW235647   5.253   5.200   3.034 -1.2850 -0.5721  1.0930
11324SOL     OW35648   0.511   3.472   6.736  0.3343 -0.8738  1.3543
11324SOL    HW135649   0.450   3.509   6.799  0.9661 -0.0701  1.5002
11324SOL    HW235650   0.595   3.515   6.754  0.2900  0.1414 -0.6930
11325SOL     OW35651   4.681   8.806   8.351 -0.3486  0.7045  0.2264
11325SOL    HW135652   4.642   8.733   8.303 -0.1070  1.4860 -1.2150
11325SOL    HW235653   4.724   8.766   8.426  0.6270 -0.7460 -1.0835
11326SOL     OW35654   5.646   6.242   1.140  0.0376  0.1462  0.9863
11326SOL    HW135655   5.602   6.262   1.223  1.1395 -0.9345  1.8394
11326SOL    HW235656   5.618   6.153   1.118 -0.6743  0.6238 -0.0883
11327SOL     OW35657   6.546   0.128   2.979  0.5198 -0.2975 -0.2427
11327SOL    HW135658   6.467   0.111   2.927 -1.4218 -0.5818  2.6649
11327SOL    HW235659   6.592   0.044   2.981  0.5885 -0.2860 -1.4676
11328SOL     OW35660   4.988   4.605   3.603 -0.2879 -0.0871 -0.5704
11328SOL    HW135661   4.910   4.560   3.637 -0.8027 -0.1055 -1.7527
11328SOL    HW235662   5.043   4.534   3.570 -0.5144  0.0556 -1.2492
11329SOL     OW35663   8.679   8.216   7.004  0.4676  0.3738  0.0269
11329SOL    HW135664   8.670   8.291   6.945  2.6199  1.0098  0.4956
11329SOL    HW235665   8.711   8.253   7.086 -1.1290 -0.7050  1.1675
11330SOL     OW35666   1.570   9.032   3.503  0.4279 -0.2394 -0.0639
11330SOL    HW135667   1.506   8.961   3.507  1.2342 -1.0466 -1.0356
11330SOL    HW235668   1.621   9.022   3.583  0.3272 -0.5616 -0.0373
11331SOL     OW35669   4.589   4.182   0.770  0.5002 -0.0754  0.0271
11331SOL    HW135670   4.510   4.130   0.786  1.3937 -0.6138  2.9588
11331SOL    HW235671   4.582   4.256   0.831  1.2489  1.0370 -1.2007
11332SOL     OW35672   6.328   5.184   4.464  0.4615  0.5562 -0.3824
11332SOL    HW135673   6.314   5.275   4.439  0.6979  0.9972  1.0290
11332SOL    HW235674   6.416   5.182   4.500 -0.5206  0.3339  2.0786
11333SOL     OW35675   7.964   2.516   8.583 -0.6471  0.0101  0.2852
11333SOL    HW135676   7.952   2.512   8.488 -1.3388 -0.0025  0.3705
11333SOL    HW235677   8.031   2.449   8.601 -1.0728 -0.5280 -0.0987
11334SOL     OW35678   2.195   5.832   5.678 -0.0524  0.0463 -0.2667
11334SOL    HW135679   2.281   5.791   5.678  0.1582  0.3192  3.2684
11334SOL    HW235680   2.192   5.884   5.598  2.4788 -1.1757 -1.1724
11335SOL     OW35681   1.718   6.557   0.909 -0.6713 -0.8012  0.1294
11335SOL    HW135682   1.767   6.475   0.896  1.1983  0.3048 -0.0609
11335SOL    HW235683   1.690   6.582   0.821 -1.9862 -1.6737  0.2947
11336SOL     OW35684   3.260   1.567   8.294  0.1189  0.6613 -0.6609
11336SOL    HW135685   3.198   1.502   8.261  0.0961  1.2481 -1.8112
11336SOL    HW235686   3.258   1.637   8.229  2.2488  0.5232 -0.9087
11337SOL     OW35687   0.808   7.287   6.467 -0.4557  0.0044  0.4475
11337SOL    HW135688   0.758   7.222   6.516 -2.3047  0.5779 -0.6348
11337SOL    HW235689   0.750   7.363   6.462  0.4225  0.6014 -1.0261
11338SOL     OW35690   4.146   1.759   1.619  0.6990  0.5115  0.0656
11338SOL    HW135691   4.193   1.784   1.698 -1.9406  2.7308  0.9925
11338SOL    HW235692   4.163   1.830   1.558 -0.2982  0.6214 -0.0865
11339SOL     OW35693   0.598   8.616   4.319  0.4997  0.1194  0.3974
11339SOL    HW135694   0.516   8.579   4.284  0.3756  1.4966 -0.8029
11339SOL    HW235695   0.651   8.539   4.340 -0.7443 -0.7770  0.3304
11340SOL     OW35696   8.530   0.611   7.014  0.1483  0.0780 -0.4153
11340SOL    HW135697   8.523   0.705   6.993 -0.6578  0.1321  0.1089
11340SOL    HW235698   8.611   0.605   7.065  0.6675  0.3548 -1.1822
11341SOL     OW35699   8.960   0.960   8.301  0.5230 -0.5489  0.2464
11341SOL    HW135700   9.027   0.920   8.245  1.5956  1.0042  0.3655
11341SOL    HW235701   8.962   0.908   8.381  2.5244  0.2392  0.7517
11342SOL     OW35702   0.382   3.307   3.879 -0.3243 -0.1545  0.0580
11342SOL    HW135703   0.383   3.343   3.968 -1.4911 -2.8633  1.2299
11342SOL    HW235704   0.290   3.312   3.853  0.1008  1.1912 -1.2905
11343SOL     OW35705   1.771   6.051   6.786 -0.2509 -0.1146 -0.0593
11343SOL    HW135706   1.754   5.959   6.809 -1.0385  0.0102 -0.1379
11343SOL    HW235707   1.799   6.091   6.869  0.9582 -0.6215 -0.2108
11344SOL     OW35708   6.070   3.690   1.852  0.4748 -0.2812 -0.5085
11344SOL    HW135709   6.020   3.731   1.782 -0.2850  0.8339  0.6642
11344SOL    HW235710   6.084   3.600   1.822 -0.2492  0.0473 -1.8648
11345SOL     OW35711   2.618   2.964   5.848  0.3395  0.1298  0.1616
11345SOL    HW135712   2.589   3.054   5.860 -1.6698 -0.4840  0.1426
11345SOL    HW235713   2.708   2.963   5.880  0.5885  2.2619 -0.3967
11346SOL     OW35714   4.083   2.750   2.236  0.7200 -0.3363  0.0491
11346SOL    HW135715   4.105   2.699   2.314  1.3765 -0.5389 -0.2673
11346SOL    HW235716   4.164   2.752   2.184  0.8232  1.3741  0.2465
11347SOL     OW35717   5.378   7.594   4.862  0.1859 -0.1124 -0.4354
11347SOL    HW135718   5.345   7.681   4.839 -0.0957 -0.2213 -0.4427
11347SOL    HW235719   5.299   7.541   4.875  0.3202 -1.0660 -3.0931
11348SOL     OW35720   3.154   4.194   1.793  0.0601 -0.2638 -0.1608
11348SOL    HW135721   3.248   4.210   1.787  0.6185 -3.7838 -1.7313
11348SOL    HW235722   3.128   4.237   1.875  3.0660  0.5287  0.4393
11349SOL     OW35723   7.100   1.483   2.675 -0.6209 -0.4215 -0.5068
11349SOL    HW135724   7.132   1.555   2.729 -2.4370 -1.0992  1.5541
11349SOL    HW235725   7.065   1.526   2.597 -1.2317  0.9230  0.4768
11350SOL     OW35726   0.338   6.386   6.388 -0.8685 -0.1499 -0.0809
11350SOL    HW135727   0.359   6.294   6.405 -2.6843 -0.4606  0.6008
11350SOL    HW235728   0.309   6.420   6.472 -1.4987  0.6741 -0.6262
11351SOL     OW35729   1.687   7.528   1.280  0.0696  0.5690  0.4639
11351SOL    HW135730   1.708   7.588   1.351 -1.6126 -0.3755  1.7923
11351SOL    HW235731   1.773   7.498   1.248  0.8357 -0.1433  3.0951
11352SOL     OW35732   4.468   0.550   2.793  0.2368 -0.9515  0.4345
11352SOL    HW135733   4.557   0.586   2.795 -0.0350  0.0609 -2.8049
11352SOL    HW235734   4.411   0.626   2.802 -0.3006 -1.3604  0.5049
11353SOL     OW35735   5.445   6.545   2.097 -0.3577 -0.1342  0.0062
11353SOL    HW135736   5.441   6.548   2.002  0.9979 -0.3641 -0.0693
11353SOL    HW235737   5.362   6.506   2.123 -0.1874 -1.2956 -1.1495
11354SOL     OW35738   1.035   4.770   5.442 -0.5725  0.0671  0.2297
11354SOL    HW135739   1.089   4.699   5.407  0.0597 -0.1733  1.6327
11354SOL    HW235740   1.098   4.830   5.483 -1.2319  0.6368  0.4195
11355SOL     OW35741   4.315   3.055   8.911  0.3615  0.5131  0.1915
11355SOL    HW135742   4.326   3.111   8.834  0.5034  0.0931 -0.0940
11355SOL    HW235743   4.400   3.013   8.923  1.2596  2.8334  2.3675
11356SOL     OW35744   4.762   6.543   5.011  0.2204  0.2827  1.0137
11356SOL    HW135745   4.672   6.510   5.004 -0.3800  2.2538 -1.2436
11356SOL    HW235746   4.816   6.464   5.014 -1.3602 -0.9474 -1.4118
11357SOL     OW35747   6.552   5.188   1.112 -0.6111  0.3973  0.2562
11357SOL    HW135748   6.588   5.192   1.200  0.0970 -1.3715  0.0647
11357SOL    HW235749   6.523   5.097   1.102 -1.4402  0.7868 -1.0388
11358SOL     OW35750   5.433   6.689   2.790  0.6501  0.1822  0.2080
11358SOL    HW135751   5.400   6.686   2.880 -0.4555  2.0760 -0.1008
11358SOL    HW235752   5.490   6.612   2.783  0.5112 -0.1731  2.4200
11359SOL     OW35753   0.726   0.628   6.333 -0.5706 -0.2400  0.1019
11359SOL    HW135754   0.790   0.690   6.367 -1.9166  0.8084  0.7487
11359SOL    HW235755   0.741   0.547   6.383  2.7082 -1.2260 -2.3050
11360SOL     OW35756   8.216   4.660   8.488 -0.5975 -0.1231  0.0880
11360SOL    HW135757   8.130   4.688   8.456 -1.4815 -2.7403  0.1077
11360SOL    HW235758   8.275   4.673   8.414 -1.2218  0.5977 -0.2885
11361SOL     OW35759   1.200   4.965   8.900  0.6437 -0.4460 -0.0877
11361SOL    HW135760   1.196   4.981   8.805  0.2619 -0.0076  0.0041
11361SOL    HW235761   1.259   5.033   8.933  1.0275 -0.7951 -0.0555
11362SOL     OW35762   4.641   3.279   6.144 -0.0418  0.2167 -0.4774
11362SOL    HW135763   4.694   3.301   6.221 -0.2488 -0.8020 -0.0218
11362SOL    HW235764   4.640   3.358   6.091  2.0785  0.2021 -0.5758
11363SOL     OW35765   4.017   2.260   5.798 -0.4140  0.1016 -0.5519
11363SOL    HW135766   3.933   2.214   5.800 -0.6606  0.5877  0.4931
11363SOL    HW235767   3.995   2.347   5.762 -0.2753  0.0598 -0.7374
11364SOL     OW35768   5.492   3.840   7.694  0.0697 -0.2213 -0.0278
11364SOL    HW135769   5.478   3.756   7.651 -0.6054 -0.7473  1.2088
11364SOL    HW235770   5.489   3.904   7.622 -0.2970 -1.1577 -0.8572
11365SOL     OW35771   0.553   8.021   7.816  0.5920  0.2134 -0.0453
11365SOL    HW135772   0.470   7.988   7.784  0.7932  2.0771 -2.6744
11365SOL    HW235773   0.605   7.943   7.834 -1.2349 -0.9412  0.3133
11366SOL     OW35774   8.055   1.557   5.045  0.0996 -0.1605  0.1671
11366SOL    HW135775   8.138   1.513   5.027  0.0552 -0.5292  0.8459
11366SOL    HW235776   8.027   1.521   5.129 -0.4458  0.4130  0.2315
11367SOL     OW35777   8.204   1.011   9.037 -0.0104  0.5738 -0.1890
11367SOL    HW135778   8.264   1.037   9.108  2.0865 -0.8931 -1.3804
11367SOL    HW235779   8.219   1.075   8.968 -0.4061  0.6742 -0.1840
11368SOL     OW35780   3.812   6.511   4.752  0.0649  0.0167  0.2078
11368SOL    HW135781   3.717   6.507   4.754 -0.0366  0.7148 -1.6297
11368SOL    HW235782   3.836   6.473   4.667  1.5844 -2.4062  1.6419
11369SOL     OW35783   4.557   6.586   5.801 -0.4274 -0.3291 -0.0458
11369SOL    HW135784   4.543   6.580   5.707 -2.1270 -0.6632  0.2067
11369SOL    HW235785   4.494   6.523   5.838 -1.1668  1.2397  1.3980
11370SOL     OW35786   3.971   8.948   5.586  0.4818 -0.1529  0.0113
11370SOL    HW135787   3.932   8.916   5.667  0.1255  0.4305  0.0709
11370SOL    HW235788   4.027   9.021   5.614  0.2214  0.1610 -0.2895
11371SOL     OW35789   8.036   0.081   7.906 -0.0072 -0.0690  0.0084
11371SOL    HW135790   7.978   0.121   7.842  1.5462  0.4729 -1.1061
11371SOL    HW235791   8.058  -0.005   7.869  1.4379  0.5237 -0.5313
11372SOL     OW35792   6.750   3.626   5.824  0.3892  0.0094  0.0866
11372SOL    HW135793   6.722   3.596   5.738  3.4181 -1.0357 -0.5994
11372SOL    HW235794   6.783   3.715   5.809  2.4375 -0.7738 -0.1801
11373SOL     OW35795   2.515   1.264   7.950  0.0876 -0.1768  0.0456
11373SOL    HW135796   2.551   1.298   7.868 -1.1890  0.1521 -0.3843
11373SOL    HW235797   2.538   1.330   8.015  0.1562  0.0832 -0.2404
11374SOL     OW35798   2.923   5.770   1.192  0.2901  0.2926 -0.5627
11374SOL    HW135799   3.008   5.730   1.210 -0.4122 -0.1995  1.8149
11374SOL    HW235800   2.885   5.714   1.124  0.9338 -0.7757 -0.0554
11375SOL     OW35801   9.049   4.531   6.015 -0.6335 -0.6309  0.0172
11375SOL    HW135802   9.061   4.474   5.939  0.8320 -1.6332  0.9670
11375SOL    HW235803   8.973   4.495   6.061 -2.8887  1.2759 -2.0856
11376SOL     OW35804   4.546   6.712   2.679  0.0061 -0.0815 -0.2543
11376SOL    HW135805   4.624   6.684   2.630 -1.0201 -2.2113 -0.7602
11376SOL    HW235806   4.504   6.776   2.622 -0.5187 -1.6307 -1.6782
11377SOL     OW35807   6.946   6.208   3.484  0.5320 -0.2682  0.4441
11377SOL    HW135808   6.929   6.206   3.578  0.7491 -0.8883  0.4733
11377SOL    HW235809   7.040   6.191   3.477  0.2629 -1.6248  0.0484
11378SOL     OW35810   2.793   5.332   9.175 -0.6124 -0.0629  0.3438
11378SOL    HW135811   2.734   5.282   9.230 -1.1587 -0.7014 -0.7995
11378SOL    HW235812   2.791   5.286   9.091 -0.7117  1.5806 -0.5572
11379SOL     OW35813   1.023   0.464   0.607  0.0992 -0.2255 -0.2359
11379SOL    HW135814   0.998   0.494   0.694  0.6935 -1.3205  0.3233
11379SOL    HW235815   0.974   0.383   0.594  1.7497 -1.2826  0.0201
11380SOL     OW35816   2.837   5.962   9.235  0.1209 -0.5460 -0.4972
11380SOL    HW135817   2.805   5.883   9.278  2.6685 -0.6598  1.3280
11380SOL    HW235818   2.870   5.931   9.151 -1.0577 -1.0105 -0.8093
11381SOL     OW35819   6.682   2.329   2.511 -0.4549  0.4188 -0.2434
11381SOL    HW135820   6.650   2.256   2.565 -1.1927 -0.9574 -2.4727
11381SOL    HW235821   6.754   2.292   2.461  0.9965  2.0114  0.6340
11382SOL     OW35822   0.056   5.814   0.324 -0.0868  0.2077  0.6174
11382SOL    HW135823   0.005   5.792   0.402 -0.1239 -0.3409  0.4377
11382SOL    HW235824   0.008   5.887   0.284 -0.8099 -0.3977  0.3724
11383SOL     OW35825   0.818   3.601   4.058  0.1315 -0.7826 -0.1439
11383SOL    HW135826   0.742   3.610   4.116  0.1717 -2.3231  0.1633
11383SOL    HW235827   0.883   3.661   4.094 -0.6407 -0.0653  0.0791
11384SOL     OW35828   4.053   3.799   0.374 -0.1965 -0.2138 -0.0514
11384SOL    HW135829   4.129   3.763   0.328  0.2937  1.3293 -0.4936
11384SOL    HW235830   3.991   3.726   0.379  0.6491 -1.0301 -1.1518
11385SOL     OW35831   2.436   5.486   3.868 -0.4906 -0.2897  0.5700
11385SOL    HW135832   2.377   5.556   3.838 -0.2369 -1.0768 -1.8219
11385SOL    HW235833   2.442   5.500   3.963 -3.1605  0.8534  0.6214
11386SOL     OW35834   0.460   0.683   6.828 -0.2150  0.6560 -0.3891
11386SOL    HW135835   0.489   0.766   6.790 -2.6335  1.2072 -1.0990
11386SOL    HW235836   0.421   0.708   6.912  0.2462  0.0612  0.0086
11387SOL     OW35837   5.639   6.065   3.438  0.6889  0.0647  0.0635
11387SOL    HW135838   5.609   6.142   3.390  2.2168 -0.8867 -2.5297
11387SOL    HW235839   5.563   6.006   3.440  0.6597  0.0110 -1.4807
11388SOL     OW35840   7.694   7.426   0.838 -0.3738 -0.0941 -0.5158
11388SOL    HW135841   7.600   7.406   0.845 -0.1240 -0.7844  1.0898
11388SOL    HW235842   7.706   7.503   0.893 -0.1283  0.5186 -1.4055
11389SOL     OW35843   9.245   6.786   3.584 -0.2727 -0.0621 -0.0164
11389SOL    HW135844   9.242   6.850   3.512  0.6051 -0.9024 -0.8092
11389SOL    HW235845   9.276   6.836   3.659  0.7805  0.3699 -0.7270
11390SOL     OW35846   0.707   6.610   1.519 -0.0347  0.0339  0.1481
11390SOL    HW135847   0.784   6.624   1.465  0.4536 -1.4282  0.4550
11390SOL    HW235848   0.737   6.552   1.589 -0.6876  1.7662  1.9088
11391SOL     OW35849   7.885   0.844   6.780  0.1042  0.4850  0.1894
11391SOL    HW135850   7.820   0.779   6.808  0.0603  1.2276  1.8725
11391SOL    HW235851   7.967   0.795   6.776 -0.2184 -0.0377 -0.1250
11392SOL     OW35852   1.773   4.892   3.848 -0.1938  0.4363  0.1513
11392SOL    HW135853   1.824   4.843   3.783  0.1644 -0.2857  0.9746
11392SOL    HW235854   1.795   4.852   3.932 -0.1888  1.7629  0.7957
11393SOL     OW35855   6.352   2.153   1.496 -0.4056  0.6062  0.0418
11393SOL    HW135856   6.400   2.236   1.488 -0.9207  0.8964 -0.1079
11393SOL    HW235857   6.336   2.144   1.590 -1.9317  1.6075 -0.1020
11394SOL     OW35858   8.425   0.170   8.679 -1.0393 -0.0512  0.2615
11394SOL    HW135859   8.396   0.249   8.634  0.1472 -0.4967 -1.3692
11394SOL    HW235860   8.521   0.175   8.676 -0.9594 -1.3198  0.5430
11395SOL     OW35861   9.211   0.119   6.164  0.3627  0.5861 -0.1292
11395SOL    HW135862   9.179   0.056   6.229  0.8966  1.6507  1.2081
11395SOL    HW235863   9.298   0.142   6.195  0.6897  0.9764 -1.3382
11396SOL     OW35864   7.066   5.512   6.875 -0.1193  0.4824  0.4852
11396SOL    HW135865   7.072   5.567   6.954 -2.5215 -1.5942  2.1667
11396SOL    HW235866   7.095   5.426   6.904  0.4239  0.0490 -1.3086
11397SOL     OW35867   1.416   6.820   4.834 -0.0305  0.0835  0.1299
11397SOL    HW135868   1.396   6.772   4.753  0.8951  0.2481 -0.1985
11397SOL    HW235869   1.427   6.911   4.805 -0.3498  0.2519  0.5398
11398SOL     OW35870   8.899   5.764   8.414 -0.2359 -0.5013 -0.5086
11398SOL    HW135871   8.844   5.718   8.478  0.8978  0.1137  0.9501
11398SOL    HW235872   8.837   5.805   8.354 -1.3031 -2.3820 -0.7359
11399SOL     OW35873   6.615   2.852   8.106  0.2528 -0.7833  0.0525
11399SOL    HW135874   6.568   2.885   8.183 -0.7598 -0.4380 -0.6988
11399SOL    HW235875   6.565   2.775   8.078 -0.2270 -0.0877 -1.0840
11400SOL     OW35876   6.599   6.161   4.236 -0.1606 -0.5317 -0.0470
11400SOL    HW135877   6.693   6.169   4.223 -0.1157 -2.4130 -1.0438
11400SOL    HW235878   6.588   6.160   4.331  0.7889  0.0218  0.0757
11401SOL     OW35879   4.815   6.206   1.754  0.1613 -0.5872 -0.6028
11401SOL    HW135880   4.812   6.252   1.838  0.9298  0.6024 -1.2134
11401SOL    HW235881   4.750   6.252   1.700  1.4072  0.2178 -1.4259
11402SOL     OW35882   0.445   1.999   3.879 -0.4751  0.0451  0.0927
11402SOL    HW135883   0.402   1.938   3.819 -1.5591  0.4841  0.4028
11402SOL    HW235884   0.424   1.966   3.966  3.1608 -2.0104  0.2654
11403SOL     OW35885   0.481   4.074   4.879  0.2323 -0.1494  0.5941
11403SOL    HW135886   0.442   4.009   4.821  0.1427 -0.8560  1.4475
11403SOL    HW235887   0.575   4.057   4.875  0.2755  0.1601  0.2305
11404SOL     OW35888   0.626   7.355   8.728 -0.5294  0.0689 -0.6589
11404SOL    HW135889   0.535   7.329   8.743 -0.8366  0.6719 -1.4572
11404SOL    HW235890   0.638   7.349   8.633 -0.1725  1.4328 -0.7064
11405SOL     OW35891   4.031   3.358   4.061 -0.2769  0.3593 -0.4137
11405SOL    HW135892   4.018   3.453   4.067 -1.5512  0.2343 -0.9476
11405SOL    HW235893   4.054   3.342   3.970 -0.7812  0.0810 -0.4944
11406SOL     OW35894   6.573   7.129   6.216 -0.5276  0.4032  0.5109
11406SOL    HW135895   6.518   7.196   6.257 -2.2180  0.4234 -1.6462
11406SOL    HW235896   6.625   7.177   6.151  1.1265  0.1817  1.6425
11407SOL     OW35897   6.642   1.034   5.132 -0.2034  0.5599 -0.2695
11407SOL    HW135898   6.726   1.078   5.130 -0.3709  0.9351  0.9317
11407SOL    HW235899   6.588   1.083   5.069  0.4701  0.2856 -1.0759
11408SOL     OW35900   2.660   6.142   3.273  0.3092 -0.4861  0.3808
11408SOL    HW135901   2.600   6.209   3.241 -2.4696 -2.9153  0.2991
11408SOL    HW235902   2.661   6.155   3.368  1.2403  0.8137  0.2036
11409SOL     OW35903   8.778   4.589   7.724 -0.5724 -0.0064  0.3556
11409SOL    HW135904   8.815   4.647   7.657  0.7832 -0.7821  0.4120
11409SOL    HW235905   8.802   4.632   7.807 -0.4431 -0.1199  0.3768
11410SOL     OW35906   8.886   6.740   4.009 -0.2681  0.0282 -0.1205
11410SOL    HW135907   8.869   6.776   3.922  0.6707 -1.8690 -1.1227
11410SOL    HW235908   8.966   6.784   4.038  0.5088 -0.7262 -1.0622
11411SOL     OW35909   4.594   9.040   4.169  0.3096 -0.4388  0.4948
11411SOL    HW135910   4.665   9.089   4.127  0.4368 -2.5018 -1.8038
11411SOL    HW235911   4.624   9.026   4.259  2.4035 -0.4673 -0.1786
11412SOL     OW35912   3.861   6.709   4.309  0.4258  0.4356  0.6717
11412SOL    HW135913   3.794   6.649   4.341  0.3375  0.5454  0.6956
11412SOL    HW235914   3.919   6.655   4.255  0.1699  0.3891  0.4411
11413SOL     OW35915   7.110   0.277   2.023  0.2796  0.5301 -0.0535
11413SOL    HW135916   7.101   0.357   2.076  0.3665  0.3325  0.2548
11413SOL    HW235917   7.194   0.240   2.049 -0.1352 -0.1029  0.4041
11414SOL     OW35918   1.202   7.144   8.700 -0.2466  0.3596 -0.0612
11414SOL    HW135919   1.193   7.197   8.779 -1.1454  0.5408 -0.2872
11414SOL    HW235920   1.162   7.196   8.631 -1.2392 -0.6636 -0.2654
11415SOL     OW35921   2.315   9.254   3.688  0.1183  0.4233  0.2058
11415SOL    HW135922   2.373   9.205   3.746 -1.9442 -0.8827  1.2073
11415SOL    HW235923   2.235   9.202   3.683 -0.2042  1.1053 -2.8873
11416SOL     OW35924   8.656   6.988   7.107  0.4163 -0.0495 -0.2764
11416SOL    HW135925   8.721   7.033   7.054  0.0178 -0.8510 -1.4716
11416SOL    HW235926   8.572   7.022   7.076  0.1855 -0.3236  0.0329
11417SOL     OW35927   6.461   3.752   9.071  0.3921  0.1448  0.4150
11417SOL    HW135928   6.461   3.748   8.976  0.5708 -0.5074  0.4401
11417SOL    HW235929   6.547   3.786   9.094  0.3137  0.3941  0.3417
11418SOL     OW35930   5.123   6.177   6.019 -0.1748  0.2528  0.1688
11418SOL    HW135931   5.134   6.091   6.059  1.2912  1.9499  3.5652
11418SOL    HW235932   5.203   6.190   5.967  0.5512  0.4098  1.3148
11419SOL     OW35933   0.885   2.980   7.390  0.3023  0.0325 -0.4998
11419SOL    HW135934   0.800   2.961   7.430  0.0560 -0.4664 -1.2489
11419SOL    HW235935   0.923   3.049   7.445  0.2128 -1.0203  0.9101
11420SOL     OW35936   6.011   1.598   5.119  0.0123 -0.2202 -0.1944
11420SOL    HW135937   6.032   1.593   5.212  1.8205  1.0592 -0.5069
11420SOL    HW235938   6.049   1.681   5.090 -0.2456 -0.7549 -2.1497
11421SOL     OW35939   3.213   7.925   6.663 -0.5019 -0.0345  0.3002
11421SOL    HW135940   3.182   7.892   6.579 -0.8454 -1.3484  0.9427
11421SOL    HW235941   3.302   7.891   6.671 -0.9900 -1.1599  1.1357
11422SOL     OW35942   8.844   0.830   3.591  0.2820 -0.2501 -0.3324
11422SOL    HW135943   8.864   0.746   3.551  2.9425 -0.1776  0.7568
11422SOL    HW235944   8.793   0.808   3.669  0.8298 -0.8612 -0.1445
11423SOL     OW35945   0.139   4.114   3.057 -0.1232  0.0365 -0.1520
11423SOL    HW135946   0.179   4.047   3.001  1.8817 -0.2582  1.5821
11423SOL    HW235947   0.046   4.110   3.036  0.1174 -2.5312 -0.8776
11424SOL     OW35948   8.145   4.898   6.658 -0.6520  0.1011  0.3054
11424SOL    HW135949   8.073   4.835   6.654 -0.1541 -0.3633 -2.1729
11424SOL    HW235950   8.105   4.982   6.637 -0.9793  0.3329  1.7997
11425SOL     OW35951   3.735   5.173   2.590 -0.2277 -0.3293  0.7107
11425SOL    HW135952   3.821   5.159   2.629  0.1511 -1.4770 -0.5117
11425SOL    HW235953   3.677   5.185   2.664  0.8543 -0.2755  1.5645
11426SOL     OW35954   6.890   0.158   6.194  0.0397 -0.2079  0.3654
11426SOL    HW135955   6.918   0.231   6.250  2.6648 -0.6918 -0.2645
11426SOL    HW235956   6.966   0.139   6.140 -2.2713 -0.1027 -3.0435
11427SOL     OW35957   7.276   7.022   1.288 -0.1744  0.2058 -0.7463
11427SOL    HW135958   7.215   6.997   1.218 -1.2011  2.4883 -0.6926
11427SOL    HW235959   7.322   7.098   1.253 -0.5051  1.2037  0.9712
11428SOL     OW35960   0.405   6.874   3.724  0.9156 -0.4736  0.1186
11428SOL    HW135961   0.361   6.834   3.800 -0.5326 -1.2367 -1.1040
11428SOL    HW235962   0.346   6.944   3.696  0.9576 -0.8523 -0.9283
11429SOL     OW35963   2.132   4.815   4.465 -0.2194  0.4371  0.3965
11429SOL    HW135964   2.169   4.821   4.377 -0.0296  1.8315  0.5698
11429SOL    HW235965   2.065   4.746   4.458 -1.7547  2.0653 -1.3803
11430SOL     OW35966   2.486   5.470   0.262 -0.4702  0.0349 -0.0551
11430SOL    HW135967   2.520   5.426   0.339  1.9179 -0.9876 -1.6269
11430SOL    HW235968   2.401   5.430   0.246 -0.0148 -1.2915  0.7854
11431SOL     OW35969   1.204   6.596   8.452 -0.5435 -0.8728  0.2963
11431SOL    HW135970   1.121   6.626   8.491  0.7457  1.0495  1.6839
11431SOL    HW235971   1.220   6.511   8.492 -1.6214 -1.0354  0.3949
11432SOL     OW35972   2.349   0.783   3.536  0.1991 -0.0529  0.1204
11432SOL    HW135973   2.426   0.838   3.553  0.0860  0.0703  0.2439
11432SOL    HW235974   2.347   0.722   3.610  0.7656 -0.7273 -0.4171
11433SOL     OW35975   2.988   4.981   5.106 -0.5970 -0.0663  0.2561
11433SOL    HW135976   3.000   5.071   5.137  0.3045 -0.2466  0.4399
11433SOL    HW235977   3.072   4.958   5.066 -0.8685 -0.7870  0.0914
11434SOL     OW35978   6.778   2.203   5.854 -0.3554  0.1838  0.0778
11434SOL    HW135979   6.856   2.177   5.904  0.9230  2.3297 -0.7697
11434SOL    HW235980   6.753   2.288   5.891 -2.4646 -0.5614  0.4828
11435SOL     OW35981   7.304   3.870   6.532 -0.0959  0.0669 -0.4526
11435SOL    HW135982   7.245   3.926   6.582  1.2270 -0.1045  1.3536
11435SOL    HW235983   7.332   3.803   6.594 -1.2803 -2.3508 -2.4380
11436SOL     OW35984   1.321   1.745   3.539  0.4735 -0.2763  0.2451
11436SOL    HW135985   1.305   1.678   3.606  0.2083 -0.7833 -0.3303
11436SOL    HW235986   1.234   1.767   3.506  0.4591  1.0378  1.0841
11437SOL     OW35987   7.765   3.259   3.794  0.0033  0.8077 -0.4498
11437SOL    HW135988   7.840   3.270   3.852 -0.4202 -1.2216  0.5289
11437SOL    HW235989   7.790   3.303   3.714  1.4653  1.8211  0.5451
11438SOL     OW35990   3.614   5.286   1.582 -0.4251  0.4948  0.0235
11438SOL    HW135991   3.555   5.351   1.621  0.2030 -0.0088  1.8753
11438SOL    HW235992   3.689   5.336   1.552 -1.5205  1.0655 -1.8062
11439SOL     OW35993   3.681   2.941   7.050 -0.3462  0.8888 -1.0751
11439SOL    HW135994   3.637   3.019   7.083 -1.1287  0.6922 -1.6422
11439SOL    HW235995   3.688   2.955   6.955  0.4409  0.7307 -1.0486
11440SOL     OW35996   4.038   0.478   6.632  0.0921 -0.3991  0.0238
11440SOL    HW135997   4.102   0.536   6.590  0.2447 -0.1833  0.5491
11440SOL    HW235998   3.965   0.535   6.656  1.1611 -0.0100  2.4691
11441SOL     OW35999   8.028   3.631   1.799  0.0315 -0.8430 -0.1720
11441SOL    HW136000   8.070   3.611   1.883 -0.0921 -0.9867 -0.1433
11441SOL    HW236001   8.086   3.592   1.734  0.7718  0.3444 -0.2303
11442SOL     OW36002   8.355   3.154   0.189  0.5004 -0.3394  0.8079
11442SOL    HW136003   8.273   3.155   0.239 -1.5333  0.9613 -2.3532
11442SOL    HW236004   8.401   3.233   0.218 -0.9048  0.6984  0.2926
11443SOL     OW36005   7.993   3.004   7.173 -0.4546 -0.8490 -0.3424
11443SOL    HW136006   8.002   3.003   7.078  0.1526  1.4521 -0.3371
11443SOL    HW236007   7.969   3.094   7.194  1.8689 -0.6981  1.8970
11444SOL     OW36008   7.744   4.521   0.054 -0.0170 -0.1238  0.0944
11444SOL    HW136009   7.661   4.567   0.064  0.1862 -0.0845  1.5929
11444SOL    HW236010   7.731   4.465  -0.023 -1.1515  0.4761 -0.1563
11445SOL     OW36011   8.630   5.860   9.035  0.1477 -0.5678 -0.0673
11445SOL    HW136012   8.627   5.907   9.118 -0.2008  1.9492 -1.4535
11445SOL    HW236013   8.642   5.928   8.969 -0.2657 -2.4385 -2.1510
11446SOL     OW36014   8.122   9.036   4.163  0.8155  0.3633 -0.5167
11446SOL    HW136015   8.054   8.983   4.205  0.8039  0.0851 -0.8859
11446SOL    HW236016   8.101   9.126   4.188  1.2541  0.1391  0.7179
11447SOL     OW36017   9.279   7.219   5.671  0.5110 -0.3582 -0.2536
11447SOL    HW136018   9.345   7.187   5.611  1.0279  1.1078 -0.4873
11447SOL    HW236019   9.312   7.304   5.701 -2.0010  1.2096 -1.6688
11448SOL     OW36020   4.606   1.302   8.640  0.7150  0.6190 -0.0347
11448SOL    HW136021   4.616   1.350   8.723  0.4380  2.5105 -1.0489
11448SOL    HW236022   4.538   1.238   8.657  0.7326  0.9223  1.2427
11449SOL     OW36023   0.626   5.731   1.753 -0.1328 -0.3790 -0.1680
11449SOL    HW136024   0.627   5.800   1.819 -0.1947 -0.2520 -0.3000
11449SOL    HW236025   0.637   5.650   1.803  1.7194 -0.1486 -0.1711
11450SOL     OW36026   3.926   3.413   8.932 -0.2269 -0.5000 -0.0238
11450SOL    HW136027   3.990   3.343   8.946  1.1677  0.5533 -0.9654
11450SOL    HW236028   3.920   3.421   8.837 -0.9107  0.2017  0.0698
11451SOL     OW36029   7.212   5.833   0.629  0.4902 -0.0995 -0.2191
11451SOL    HW136030   7.174   5.823   0.542 -2.5700  2.7402  0.6625
11451SOL    HW236031   7.155   5.782   0.686  2.5320 -2.0161  0.1340
11452SOL     OW36032   2.572   0.328   2.805 -0.3482  0.3834 -0.2906
11452SOL    HW136033   2.616   0.363   2.883  0.5256 -2.2892  0.5033
11452SOL    HW236034   2.497   0.280   2.839 -0.4984 -0.0181 -1.1605
11453SOL     OW36035   2.356   0.757   0.820 -0.1289 -0.5668 -1.1419
11453SOL    HW136036   2.306   0.837   0.805 -1.1146 -1.2540 -1.5936
11453SOL    HW236037   2.418   0.754   0.747  0.0657 -0.1058 -0.9988
11454SOL     OW36038   6.243   3.627   9.111 -0.0697  0.0317 -0.4052
11454SOL    HW136039   6.245   3.543   9.065  1.1566  0.8319 -1.8282
11454SOL    HW236040   6.324   3.671   9.085 -1.0755  1.9908 -0.2926
11455SOL     OW36041   4.120   0.557   3.730  0.4389 -0.3298 -1.1491
11455SOL    HW136042   4.055   0.547   3.661  0.7265 -1.4610 -1.2628
11455SOL    HW236043   4.203   0.532   3.689  0.7970  0.1500 -0.7306
11456SOL     OW36044   0.498   8.974   2.240 -0.5678  0.1406  0.2929
11456SOL    HW136045   0.477   8.925   2.320  0.2111 -0.7703 -0.0600
11456SOL    HW236046   0.593   8.969   2.233 -0.7806 -1.3913 -1.7157
11457SOL     OW36047   8.065   2.859   6.415  0.1813 -0.5021  0.2947
11457SOL    HW136048   8.139   2.829   6.467  2.1871  2.5111 -0.6773
11457SOL    HW236049   8.100   2.933   6.365 -3.7266  1.6141  0.5196
11458SOL     OW36050   1.438   3.972   8.452 -0.0797  0.2769  0.0973
11458SOL    HW136051   1.508   3.944   8.510 -0.8924 -2.3454 -0.1394
11458SOL    HW236052   1.358   3.964   8.505 -0.7318 -1.3414 -1.0978
11459SOL     OW36053   7.070   9.283   3.713 -0.1938 -0.2298  0.2968
11459SOL    HW136054   7.000   9.276   3.648  0.6579 -3.5549 -0.3639
11459SOL    HW236055   7.090   9.377   3.717 -3.4466  0.5628 -0.7766
11460SOL     OW36056   6.205   3.032   5.462  0.6969 -0.3697 -0.7486
11460SOL    HW136057   6.127   3.015   5.409 -1.1792 -0.0704  1.8190
11460SOL    HW236058   6.171   3.074   5.541  3.3307 -1.4596  1.0161
11461SOL     OW36059   4.304   4.797   6.354  0.0196 -0.5770  0.5308
11461SOL    HW136060   4.298   4.804   6.259 -0.7933 -1.9407  0.4793
11461SOL    HW236061   4.387   4.840   6.375  0.7921 -1.3180 -0.9029
11462SOL     OW36062   9.106   7.145   7.258  0.7416  0.0332  0.3199
11462SOL    HW136063   9.089   7.139   7.352  3.5248  0.8098  0.9187
11462SOL    HW236064   9.032   7.197   7.223  0.3606  0.8352  2.2751
11463SOL     OW36065   5.343   6.640   0.739  0.2015  0.1345  0.2599
11463SOL    HW136066   5.260   6.657   0.695 -0.4815 -2.9122  0.2130
11463SOL    HW236067   5.410   6.659   0.674 -0.6206 -0.3262 -0.7305
11464SOL     OW36068   3.127   0.182   8.091  0.3027  0.0176  0.0414
11464SOL    HW136069   3.121   0.101   8.040 -0.6080 -0.7862  1.3816
11464SOL    HW236070   3.193   0.163   8.158 -0.2766  0.2050  0.6719
11465SOL     OW36071   8.308   5.645   3.103 -0.1126  0.0274 -0.1893
11465SOL    HW136072   8.396   5.679   3.119 -0.4439  0.5460  0.5611
11465SOL    HW236073   8.279   5.690   3.024  0.6672 -0.8615 -0.9878
11466SOL     OW36074   0.937   5.463   0.110 -0.5199  0.2521  0.4195
11466SOL    HW136075   0.974   5.535   0.160  1.6290 -1.0953  0.8637
11466SOL    HW236076   0.954   5.485   0.019 -1.9977  1.4162  0.4146
11467SOL     OW36077   0.298   5.312   5.358 -0.3979  0.1404 -0.3510
11467SOL    HW136078   0.251   5.230   5.345  0.4315 -0.0769 -2.1452
11467SOL    HW236079   0.386   5.285   5.382  0.1424  0.4612 -1.8793
11468SOL     OW36080   4.942   7.639   8.233  0.2439 -0.0763 -0.5978
11468SOL    HW136081   4.952   7.588   8.153  1.2429 -0.5299 -0.1902
11468SOL    HW236082   5.028   7.679   8.248  0.3821 -0.8324  0.7982
11469SOL     OW36083   3.396   6.688   0.818 -0.0408  0.0972  0.0257
11469SOL    HW136084   3.424   6.636   0.743 -0.0525  0.4642 -0.2341
11469SOL    HW236085   3.433   6.775   0.802  0.8996 -0.1134  0.9974
11470SOL     OW36086   6.384   0.458   3.010 -0.2217 -0.1421 -0.1313
11470SOL    HW136087   6.395   0.494   2.922 -0.6468 -0.2162 -0.2161
11470SOL    HW236088   6.324   0.519   3.053 -1.4955 -1.1115 -0.4948
11471SOL     OW36089   4.646   3.093   1.762 -0.6082  0.1608  0.4893
11471SOL    HW136090   4.685   3.007   1.749 -0.0087  0.6129 -0.8562
11471SOL    HW236091   4.701   3.134   1.829  0.1287  0.1021 -0.0639
11472SOL     OW36092   1.609   6.350   0.359  0.7096  0.1105  0.1191
11472SOL    HW136093   1.657   6.319   0.283  0.6063 -2.3746  1.0406
11472SOL    HW236094   1.554   6.276   0.385  0.0784  1.2211  2.0697
11473SOL     OW36095   3.350   2.234   7.692 -0.1791  0.6857  0.1063
11473SOL    HW136096   3.296   2.211   7.617  0.9560 -0.6915 -0.2949
11473SOL    HW236097   3.324   2.173   7.760  0.3412  0.5039  0.1437
11474SOL     OW36098   8.871   8.817   7.721  0.3529  0.1244 -0.1640
11474SOL    HW136099   8.943   8.826   7.783  0.2343  1.4163 -0.1824
11474SOL    HW236100   8.885   8.732   7.679  1.2432 -0.1173  0.6077
11475SOL     OW36101   8.153   0.830   2.426  0.2419  0.4284  0.5755
11475SOL    HW136102   8.111   0.835   2.512 -1.3334  0.7691 -0.1885
11475SOL    HW236103   8.235   0.878   2.437 -0.3933  1.3134  1.6282
11476SOL     OW36104   1.250   6.405   3.673 -0.2055 -0.3651 -0.4248
11476SOL    HW136105   1.160   6.383   3.651 -0.3735 -0.8396  0.6982
11476SOL    HW236106   1.294   6.416   3.588 -1.6435  1.2529 -0.9775
11477SOL     OW36107   9.034   8.927   6.519 -0.0892 -0.2380  0.0684
11477SOL    HW136108   9.125   8.902   6.504 -0.4289 -0.7255 -1.2502
11477SOL    HW236109   8.982   8.857   6.479 -1.0513 -0.4369  1.6199
11478SOL     OW36110   5.906   6.962   3.174  0.0370  0.4133 -0.4176
11478SOL    HW136111   5.984   6.911   3.153  1.1690  1.5970  0.8098
11478SOL    HW236112   5.833   6.907   3.145  1.2383 -1.6958  0.4358
11479SOL     OW36113   7.333   2.725   0.475 -0.3143 -0.2589  0.7585
11479SOL    HW136114   7.273   2.679   0.534  0.1102 -0.6291  0.8987
11479SOL    HW236115   7.318   2.685   0.389 -0.2118 -0.4050  0.8089
11480SOL     OW36116   3.000   8.035   6.031 -0.5243  0.3373  0.5087
11480SOL    HW136117   2.977   8.019   6.123 -0.7890  1.4224  0.6432
11480SOL    HW236118   3.007   7.948   5.992 -0.9705 -0.1122  1.4231
11481SOL     OW36119   2.071   3.912   5.975 -0.0206  0.2202  0.2431
11481SOL    HW136120   2.123   3.957   6.042 -1.0930  1.7547  0.0606
11481SOL    HW236121   2.137   3.875   5.916  0.9046  1.1113  0.6872
11482SOL     OW36122   5.495   2.616   3.032  0.5491 -0.3276 -0.5338
11482SOL    HW136123   5.505   2.640   3.124  3.2988 -1.4181 -0.5099
11482SOL    HW236124   5.521   2.694   2.983  0.6080 -0.2620 -0.3953
11483SOL     OW36125   3.158   4.138   6.319  0.5986 -0.3691 -0.7730
11483SOL    HW136126   3.145   4.043   6.330  0.3081 -0.1000  1.5296
11483SOL    HW236127   3.126   4.176   6.401 -1.0243  1.9123 -2.4135
11484SOL     OW36128   0.106   0.990   6.336 -0.0207 -0.0572  0.3701
11484SOL    HW136129   0.016   0.959   6.335 -0.0668  0.0646  0.7965
11484SOL    HW236130   0.116   1.034   6.420  0.3476  0.1919  0.2002
11485SOL     OW36131   1.442   5.783   6.216 -0.1977 -0.0587  0.1575
11485SOL    HW136132   1.443   5.842   6.291  0.5944 -0.6226  0.6039
11485SOL    HW236133   1.508   5.819   6.157 -0.5041  0.1328 -0.0664
11486SOL     OW36134   2.900   7.758   3.363 -0.0261 -0.3480  0.0305
11486SOL    HW136135   2.939   7.816   3.298 -1.0747  1.8293  1.2942
11486SOL    HW236136   2.820   7.725   3.321 -0.6220  0.9304  0.1611
11487SOL     OW36137   2.067   8.008   1.904 -0.2574  0.1346  0.3944
11487SOL    HW136138   2.155   7.975   1.883 -0.5825  1.2835 -3.1194
11487SOL    HW236139   2.073   8.102   1.891 -1.4753  0.4982  2.3069
11488SOL     OW36140   3.608   1.019   7.799 -0.2484  0.8936 -0.4513
11488SOL    HW136141   3.583   0.937   7.756  0.2170  0.8963 -0.7345
11488SOL    HW236142   3.691   0.997   7.843 -0.2960  1.1190 -0.2509
11489SOL     OW36143   5.313   0.406   0.931  0.6371  0.0052  0.3205
11489SOL    HW136144   5.289   0.325   0.886  1.5899 -0.1101  0.0220
11489SOL    HW236145   5.383   0.444   0.877 -0.3028  1.3996  0.0399
11490SOL     OW36146   0.669   8.750   5.333  0.1746  0.4284 -0.0645
11490SOL    HW136147   0.617   8.673   5.358 -1.7734  2.0780  1.1550
11490SOL    HW236148   0.685   8.795   5.416 -0.8210  2.6151 -1.0393
11491SOL     OW36149   5.154   4.179   3.940  0.1793 -0.2159  0.3014
11491SOL    HW136150   5.186   4.168   3.850 -0.4977  3.0256 -0.3963
11491SOL    HW236151   5.221   4.230   3.984 -1.2503  1.5092  0.5192
11492SOL     OW36152   1.129   8.031   0.311  0.3654 -0.4248 -0.1204
11492SOL    HW136153   1.104   8.013   0.402  1.8808  0.0763  0.4101
11492SOL    HW236154   1.224   8.035   0.313  0.5395 -2.5146 -2.1413
11493SOL     OW36155   4.900   3.927   8.566  0.1217  0.1179 -0.2025
11493SOL    HW136156   4.805   3.924   8.559  0.0460  0.3551  0.7068
11493SOL    HW236157   4.929   3.955   8.479 -0.6984  1.0335 -0.1950
11494SOL     OW36158   2.158   8.284   8.375  0.2501 -0.1903 -0.0511
11494SOL    HW136159   2.115   8.213   8.422  0.0410  0.7649  1.2685
11494SOL    HW236160   2.240   8.246   8.342  1.0166 -0.5773  2.2057
11495SOL     OW36161   5.256   6.908   8.180  0.1826 -0.4240  0.2620
11495SOL    HW136162   5.258   6.891   8.274  0.9458  2.2058  0.7585
11495SOL    HW236163   5.179   6.965   8.168  0.7642  0.1993 -0.5224
11496SOL     OW36164   7.347   4.880   1.719  0.3847  0.4293  0.0751
11496SOL    HW136165   7.320   4.809   1.777 -0.0282 -0.9381 -1.7324
11496SOL    HW236166   7.441   4.867   1.706  0.5244  0.8772  0.6094
11497SOL     OW36167   7.854   7.587   5.574 -0.0909  0.6621 -0.1299
11497SOL    HW136168   7.844   7.543   5.659 -2.4658  1.8872  0.2824
11497SOL    HW236169   7.845   7.517   5.510 -3.2011  0.3752  0.5410
11498SOL     OW36170   1.629   4.609   6.936  0.0040  0.0156 -0.6185
11498SOL    HW136171   1.571   4.683   6.955  2.5631  2.0614 -0.4864
11498SOL    HW236172   1.646   4.569   7.021 -0.0304  0.3288 -0.4621
11499SOL     OW36173   7.425   6.390   1.777 -0.0792  0.4867 -0.1454
11499SOL    HW136174   7.354   6.367   1.837  0.8501 -1.7346  0.1792
11499SOL    HW236175   7.423   6.485   1.773 -0.8817  0.6346  2.5371
11500SOL     OW36176   2.484   4.783   4.788 -0.3820  0.3643 -0.9390
11500SOL    HW136177   2.512   4.698   4.819  0.8492  0.7921 -0.8641
11500SOL    HW236178   2.461   4.769   4.696  2.1764  0.4450 -1.6269
11501SOL     OW36179   5.317   9.263   3.571  0.7647 -0.1982 -0.0596
11501SOL    HW136180   5.264   9.342   3.583  0.7457 -0.4423  1.5408
11501SOL    HW236181   5.389   9.273   3.633  0.9494 -1.2799 -0.0892
11502SOL     OW36182   7.843   6.518   2.226  0.4513 -0.1171  0.4064
11502SOL    HW136183   7.900   6.447   2.197  0.6147  0.3821 -0.4988
11502SOL    HW236184   7.756   6.494   2.193  0.7077  0.6433 -0.8546
11503SOL     OW36185   2.583   0.194   6.182 -0.1167  0.3201 -0.2854
11503SOL    HW136186   2.640   0.266   6.158  0.3452  0.0960  0.1397
11503SOL    HW236187   2.610   0.169   6.270  0.5676 -1.1809 -0.9015
11504SOL     OW36188   8.873   8.915   2.538 -0.0418 -0.4579 -0.0738
11504SOL    HW136189   8.915   8.905   2.623 -0.8547 -0.7938  0.2944
11504SOL    HW236190   8.871   9.010   2.524  1.3740 -0.4640 -0.3803
11505SOL     OW36191   2.217   1.288   4.361 -0.5267 -0.0665 -0.3919
11505SOL    HW136192   2.225   1.362   4.421 -1.6574  1.1043 -1.6443
11505SOL    HW236193   2.248   1.322   4.277  0.1870 -1.4139 -0.6899
11506SOL     OW36194   4.348   6.961   7.580  0.1800  0.9392 -0.3724
11506SOL    HW136195   4.443   6.968   7.585  0.0214  1.4021  2.9529
11506SOL    HW236196   4.316   7.049   7.600 -0.9822  0.5751 -0.5589
11507SOL     OW36197   6.928   4.477   3.697  0.1032  0.0593 -0.1515
11507SOL    HW136198   6.880   4.547   3.741 -0.6139 -0.5191 -0.0046
11507SOL    HW236199   6.949   4.513   3.611 -1.4559 -0.0142 -0.5922
11508SOL     OW36200   4.875   6.725   1.971  0.2287 -0.6808 -0.2679
11508SOL    HW136201   4.828   6.747   1.891 -0.5798 -1.5072 -0.0310
11508SOL    HW236202   4.883   6.630   1.969  1.2379 -0.6085  0.0626
11509SOL     OW36203   8.425   1.844   8.984 -0.0664 -0.0813  0.3869
11509SOL    HW136204   8.505   1.792   8.994  0.7604  0.9275 -0.7742
11509SOL    HW236205   8.378   1.832   9.066  0.5504 -1.9023  0.5019
11510SOL     OW36206   4.340   7.329   1.358 -0.4754  0.3474  0.0257
11510SOL    HW136207   4.279   7.281   1.414  0.2427 -0.2275  0.3260
11510SOL    HW236208   4.345   7.416   1.397 -0.4449  0.1346  0.5082
11511SOL     OW36209   7.950   7.619   2.029  0.6444 -0.5972  0.1541
11511SOL    HW136210   7.887   7.670   1.979  1.0029 -0.9162 -0.6220
11511SOL    HW236211   8.027   7.675   2.035  0.5867 -0.5407  0.3999
11512SOL     OW36212   6.939   6.539   4.415 -0.2513 -0.1015  0.1403
11512SOL    HW136213   6.916   6.482   4.488 -0.6584 -0.7567 -0.4903
11512SOL    HW236214   7.031   6.560   4.429 -0.8664  1.4946  1.9848
11513SOL     OW36215   3.302   4.515   1.228 -0.1846  0.2450  0.2151
11513SOL    HW136216   3.375   4.497   1.288 -0.6614  2.1643  1.4272
11513SOL    HW236217   3.302   4.441   1.168  2.2079 -0.2365  0.7365
11514SOL     OW36218   5.591   5.844   6.697 -0.9075 -0.6445  0.6996
11514SOL    HW136219   5.538   5.776   6.739 -3.6541  2.1111  1.8032
11514SOL    HW236220   5.548   5.858   6.612  0.0605 -0.7116  0.1898
11515SOL     OW36221   1.864   7.870   6.551 -0.4216 -0.7035 -0.0827
11515SOL    HW136222   1.955   7.893   6.535 -0.2247 -2.1540 -1.1691
11515SOL    HW236223   1.813   7.933   6.501 -0.0916  1.3447  2.0909
11516SOL     OW36224   1.859   1.941   3.956  0.0514  0.0098  0.1675
11516SOL    HW136225   1.807   1.862   3.942 -1.2016  0.8984 -0.3189
11516SOL    HW236226   1.812   1.988   4.025  0.9550  0.1936  0.6640
11517SOL     OW36227   3.925   7.291   4.678  0.7444 -0.0499  0.0302
11517SOL    HW136228   3.838   7.262   4.703 -0.0144  0.9244 -1.4316
11517SOL    HW236229   3.976   7.210   4.671 -0.1321 -0.6498  0.5454
11518SOL     OW36230   0.564   3.817   1.176  0.4186 -0.2985  0.0137
11518SOL    HW136231   0.602   3.755   1.112 -1.5493 -0.9582 -0.5418
11518SOL    HW236232   0.528   3.761   1.244 -1.3119  0.2344 -0.4553
11519SOL     OW36233   5.079   6.766   6.147 -0.0484 -0.3662  0.2416
11519SOL    HW136234   5.110   6.680   6.120 -0.7273 -0.0631 -1.5667
11519SOL    HW236235   5.141   6.828   6.109 -1.1841  0.0808 -0.9360
11520SOL     OW36236   3.864   4.853   6.293 -0.1355 -0.1227 -0.4083
11520SOL    HW136237   3.928   4.790   6.327  0.2009  0.3782 -0.0975
11520SOL    HW236238   3.789   4.800   6.267  0.3225 -0.6951 -0.5656
11521SOL     OW36239   5.918   1.472   7.880 -0.2055 -0.0212  0.0564
11521SOL    HW136240   5.979   1.543   7.857 -0.4331 -0.2719 -1.3571
11521SOL    HW236241   5.854   1.514   7.938 -0.2954  0.9397 -0.7054
11522SOL     OW36242   5.245   6.756   5.261 -0.4052  0.5908  0.2161
11522SOL    HW136243   5.215   6.726   5.175  0.5916  0.4622 -0.0906
11522SOL    HW236244   5.281   6.677   5.302  0.2096  0.9070  0.2822
11523SOL     OW36245   7.477   9.178   4.050 -0.2965 -0.0584 -0.9415
11523SOL    HW136246   7.467   9.266   4.013  0.1404  0.2363 -0.3742
11523SOL    HW236247   7.548   9.138   4.001 -0.2243  0.0577 -0.9301
11524SOL     OW36248   6.626   1.792   7.533 -0.0149  0.3554 -0.1680
11524SOL    HW136249   6.571   1.869   7.517  3.2255  2.5323 -1.4845
11524SOL    HW236250   6.615   1.739   7.454  1.1042  1.6700 -1.2421
11525SOL     OW36251   3.108   1.678   0.942  0.3893 -0.0508 -0.1188
11525SOL    HW136252   3.111   1.678   0.846 -0.8257  2.5613 -0.1937
11525SOL    HW236253   3.016   1.667   0.964  0.8029 -1.9169  0.8117
11526SOL     OW36254   4.100   6.313   4.649 -0.5107 -0.0925 -0.3909
11526SOL    HW136255   4.100   6.371   4.725  0.0417  0.1479 -0.5792
11526SOL    HW236256   4.059   6.232   4.681 -1.4728  0.4666 -0.1838
11527SOL     OW36257   7.183   1.722   9.047 -0.1806  0.3640  0.6454
11527SOL    HW136258   7.155   1.802   9.002  0.5722 -0.2134 -0.8834
11527SOL    HW236259   7.180   1.654   8.980  0.7095 -0.5776  1.5291
11528SOL     OW36260   8.246   3.064   1.292 -0.4200 -0.3634  0.0933
11528SOL    HW136261   8.204   2.998   1.237 -0.6167 -0.1294 -0.0370
11528SOL    HW236262   8.329   3.024   1.318  1.1091  0.7283 -2.9040
11529SOL     OW36263   8.668   7.613   2.198 -0.4134  0.1521 -0.4913
11529SOL    HW136264   8.580   7.608   2.162 -1.0689  0.5296  1.0002
11529SOL    HW236265   8.663   7.565   2.281  0.3267  1.6502  0.4530
11530SOL     OW36266   8.716   4.381   1.305 -0.0562 -0.0204 -0.4380
11530SOL    HW136267   8.726   4.406   1.396 -1.3854  1.4129 -0.6603
11530SOL    HW236268   8.805   4.361   1.275  0.4085 -0.2771  1.0902
11531SOL     OW36269   4.910   4.610   8.904  0.0496 -0.3383  0.0946
11531SOL    HW136270   4.950   4.523   8.909 -0.3783 -0.6644 -1.8090
11531SOL    HW236271   4.821   4.594   8.872  0.8969  0.9857 -3.1957
11532SOL     OW36272   4.980   4.368   2.105  0.7356  0.1726  0.5307
11532SOL    HW136273   5.052   4.397   2.048  1.1436  0.7331  1.3204
11532SOL    HW236274   5.000   4.276   2.123  1.3218  0.3623  0.8504
11533SOL     OW36275   0.173   7.280   0.970 -0.4718 -0.1985  0.5473
11533SOL    HW136276   0.189   7.192   1.003  0.0691 -0.5472 -0.5989
11533SOL    HW236277   0.077   7.287   0.964 -0.6192  0.2467  3.1061
11534SOL     OW36278   3.930   8.198   6.502  0.0662 -0.1842  0.8690
11534SOL    HW136279   3.922   8.178   6.409  0.4356  1.4433  0.4795
11534SOL    HW236280   3.884   8.282   6.513 -1.5581 -1.2285  2.4823
11535SOL     OW36281   8.304   5.104   0.882 -0.3405  0.0736  0.3779
11535SOL    HW136282   8.299   5.082   0.976 -3.1173 -0.5770  0.1314
11535SOL    HW236283   8.311   5.199   0.880 -0.4633  0.1103  1.2416
11536SOL     OW36284   0.268   4.675   7.627  0.3632  0.1417  0.1503
11536SOL    HW136285   0.268   4.771   7.627 -1.8812  0.1857  1.7701
11536SOL    HW236286   0.207   4.652   7.557  1.9033 -0.1382 -1.1123
11537SOL     OW36287   8.196   5.946   1.819 -0.1177  0.5689 -0.0810
11537SOL    HW136288   8.228   5.988   1.740  0.4939  1.5683  0.6841
11537SOL    HW236289   8.127   6.004   1.851 -0.2575  0.2509  0.2021
11538SOL     OW36290   5.885   0.974   0.871  0.3787  0.2725 -0.3123
11538SOL    HW136291   5.973   0.978   0.833 -0.3302 -1.3518 -2.2056
11538SOL    HW236292   5.893   0.916   0.947  1.1854  1.1620  0.2945
11539SOL     OW36293   6.898   5.624   4.781  0.0384 -0.6866 -0.5290
11539SOL    HW136294   6.982   5.667   4.801  0.3137 -1.7107  0.5584
11539SOL    HW236295   6.885   5.640   4.688  0.4847  1.1561 -0.3063
11540SOL     OW36296   1.371   9.167   4.663 -0.4218 -0.2326 -0.1701
11540SOL    HW136297   1.367   9.147   4.570 -1.3338  2.6026 -0.8043
11540SOL    HW236298   1.416   9.252   4.668  1.1839 -1.1418  2.1207
11541SOL     OW36299   4.598   0.456   0.932 -0.3200 -0.7309  0.2927
11541SOL    HW136300   4.661   0.527   0.937 -0.5167 -0.5083 -0.3920
11541SOL    HW236301   4.519   0.496   0.897 -0.3248 -1.3522 -0.4235
11542SOL     OW36302   3.829   0.802   0.089 -0.3572 -0.1153 -0.2674
11542SOL    HW136303   3.825   0.712   0.058 -0.3346 -0.7873  1.5983
11542SOL    HW236304   3.851   0.854   0.012 -0.7746 -1.6608 -1.4328
11543SOL     OW36305   5.831   8.727   0.895  0.3474  0.5231  0.0787
11543SOL    HW136306   5.836   8.695   0.804  0.6459 -2.6469  1.1540
11543SOL    HW236307   5.918   8.762   0.912  0.7549 -0.2268 -0.4106
11544SOL     OW36308   1.152   6.869   7.820 -0.7180 -0.2363 -0.0369
11544SOL    HW136309   1.145   6.787   7.771 -2.5328 -0.2051  0.1633
11544SOL    HW236310   1.209   6.923   7.766 -0.9705 -0.9764 -1.0703
11545SOL     OW36311   1.361   6.751   2.514 -0.1183  0.1781  0.1098
11545SOL    HW136312   1.444   6.799   2.514  0.3743 -0.6655 -0.4804
11545SOL    HW236313   1.295   6.819   2.510  0.4695  0.9501  2.6403
11546SOL     OW36314   8.037   8.361   6.791  0.4487 -0.6281  0.2328
11546SOL    HW136315   7.993   8.444   6.806  0.0880 -0.9950  1.2186
11546SOL    HW236316   7.967   8.299   6.771  0.6526 -0.8869  0.3177
11547SOL     OW36317   6.493   0.553   8.822  0.0737  0.7948 -0.2325
11547SOL    HW136318   6.461   0.625   8.769  0.7730  2.5182  1.6100
11547SOL    HW236319   6.418   0.526   8.874  0.1376  1.0278 -0.0211
11548SOL     OW36320   8.186   4.921   2.728  0.0489 -0.3785 -0.2950
11548SOL    HW136321   8.259   4.875   2.770 -0.3540 -0.2379  0.5861
11548SOL    HW236322   8.136   4.852   2.685  0.9389 -0.4190 -1.2669
11549SOL     OW36323   3.461   4.849   3.056 -0.9406  0.5550  0.0340
11549SOL    HW136324   3.367   4.870   3.056 -0.7295  1.6973 -2.4696
11549SOL    HW236325   3.483   4.842   2.964  1.7174  1.4508  0.5825
11550SOL     OW36326   9.048   2.569   3.426 -0.1605 -0.3701  0.1713
11550SOL    HW136327   8.991   2.511   3.477 -0.7813  0.3510  0.3159
11550SOL    HW236328   8.993   2.600   3.354 -0.0499  0.5492  0.4685
11551SOL     OW36329   2.214   5.165   7.749  0.0577 -0.4269 -0.4916
11551SOL    HW136330   2.238   5.082   7.790  1.1265  0.5180  0.8101
11551SOL    HW236331   2.128   5.148   7.710  1.5722 -2.9961 -2.8075
11552SOL     OW36332   8.511   8.353   6.637 -0.0723 -0.4061 -0.3310
11552SOL    HW136333   8.435   8.372   6.692  0.1480 -0.9206  0.1520
11552SOL    HW236334   8.580   8.409   6.671 -0.4270  0.5790 -1.2215
11553SOL     OW36335   4.568   8.215   5.216  0.0329 -0.0683  0.1181
11553SOL    HW136336   4.490   8.209   5.160 -0.4202  0.3229  0.7043
11553SOL    HW236337   4.533   8.236   5.303  0.8733  1.4574  0.1072
11554SOL     OW36338   2.266   6.444   0.604  0.4372 -0.1495  0.5611
11554SOL    HW136339   2.185   6.476   0.566  0.4096 -0.3742  0.4291
11554SOL    HW236340   2.282   6.501   0.679  2.4307  2.7043 -1.9288
11555SOL     OW36341   1.956   4.511   8.881  0.2010 -0.0075 -0.5751
11555SOL    HW136342   1.883   4.464   8.921  0.5861  0.6216  0.9041
11555SOL    HW236343   2.034   4.477   8.926  0.8581 -0.7401 -2.1928
11556SOL     OW36344   3.275   5.795   0.245  0.4003 -0.2119 -0.5530
11556SOL    HW136345   3.229   5.721   0.206  0.1067 -0.3634  0.0711
11556SOL    HW236346   3.297   5.851   0.171  0.5252 -0.8671 -1.0140
11557SOL     OW36347   1.848   7.877   1.840  0.1121  0.3289  0.6106
11557SOL    HW136348   1.931   7.918   1.862 -0.4930  2.3275 -0.7178
11557SOL    HW236349   1.789   7.903   1.910  0.6636 -1.4469  1.7884
11558SOL     OW36350   5.812   8.517   3.397  0.0015 -0.1247  0.6186
11558SOL    HW136351   5.808   8.592   3.338 -0.2101  0.6127  1.5667
11558SOL    HW236352   5.741   8.531   3.458  0.7950 -0.4070  1.6178
11559SOL     OW36353   6.421   5.353   7.705 -0.1024 -0.3209 -0.6153
11559SOL    HW136354   6.474   5.432   7.697 -0.2500 -0.2743 -1.1222
11559SOL    HW236355   6.424   5.313   7.618 -1.0240 -0.2361 -0.6882
11560SOL     OW36356   1.391   4.958   7.792 -0.2414 -0.4521  0.5025
11560SOL    HW136357   1.415   4.995   7.877 -1.1224 -0.6484  0.8499
11560SOL    HW236358   1.348   5.030   7.746  0.2137 -0.3537  0.2322
11561SOL     OW36359   6.669   7.601   5.371 -0.1943 -0.0075  0.2024
11561SOL    HW136360   6.662   7.507   5.354 -0.6976  0.0457  0.1171
11561SOL    HW236361   6.732   7.607   5.443  0.9947 -0.3131 -0.7949
11562SOL     OW36362   8.666   1.688   0.810 -0.3550  0.1972  0.2462
11562SOL    HW136363   8.688   1.776   0.778 -1.6131  1.2753  2.2127
11562SOL    HW236364   8.589   1.662   0.759  0.1574  0.1182 -0.4995
11563SOL     OW36365   1.673   7.105   3.788 -0.0374 -0.8192 -0.1529
11563SOL    HW136366   1.731   7.073   3.857  1.0295  0.2526 -0.5532
11563SOL    HW236367   1.620   7.172   3.831  1.6508  0.9082 -0.7313
11564SOL     OW36368   2.825   3.045   2.074  0.2787 -0.0039  0.6285
11564SOL    HW136369   2.763   2.988   2.120 -0.6450  0.8632  0.4746
11564SOL    HW236370   2.772   3.117   2.041  1.4577  1.0349  0.9452
11565SOL     OW36371   6.366   0.407   5.074  0.6870  0.7582 -0.5760
11565SOL    HW136372   6.410   0.479   5.029  0.9435  0.4819 -0.7673
11565SOL    HW236373   6.410   0.400   5.158 -0.4410  1.9279  0.1388
11566SOL     OW36374   6.816   3.783   6.464 -0.3651  0.1268  0.5270
11566SOL    HW136375   6.735   3.735   6.483 -0.7323  1.6062  2.9431
11566SOL    HW236376   6.792   3.842   6.393 -1.3096  0.2539  0.9325
11567SOL     OW36377   0.284   6.427   6.657 -0.4399  0.1189 -0.3649
11567SOL    HW136378   0.248   6.354   6.706  1.8439 -0.5274  0.4329
11567SOL    HW236379   0.331   6.480   6.722 -0.1087  1.0219 -1.3105
11568SOL     OW36380   5.214   7.309   3.303 -0.0556  0.1957  0.5348
11568SOL    HW136381   5.205   7.307   3.398 -0.9552 -0.7775  0.4521
11568SOL    HW236382   5.134   7.351   3.272  0.3755  0.7911  0.2211
11569SOL     OW36383   0.970   9.287   1.574  1.0004  0.1284  0.2603
11569SOL    HW136384   0.875   9.291   1.582  0.9702  0.0443 -0.0446
11569SOL    HW236385   1.001   9.269   1.662  0.7353  0.1863  0.3658
11570SOL     OW36386   0.423   4.119   1.476  0.1725  0.4250 -0.2917
11570SOL    HW136387   0.411   4.025   1.464  2.0721  0.3358 -1.9004
11570SOL    HW236388   0.514   4.135   1.449  0.8263  2.2804  2.7610
11571SOL     OW36389   1.956   1.287   3.548  0.3835  0.2976 -0.4690
11571SOL    HW136390   1.894   1.214   3.556 -0.6868  1.1747 -0.6142
11571SOL    HW236391   1.986   1.283   3.457  1.1314 -0.5976 -0.1855
11572SOL     OW36392   1.577   8.611   1.650 -0.0149 -0.2608 -0.0860
11572SOL    HW136393   1.568   8.706   1.654  0.7638 -0.1625 -0.5795
11572SOL    HW236394   1.553   8.581   1.738  2.2687  0.6075  0.8808
11573SOL     OW36395   6.414   4.594   3.027  0.5756 -0.2470 -0.6184
11573SOL    HW136396   6.479   4.524   3.025  0.7995 -0.0631  0.0820
11573SOL    HW236397   6.374   4.587   3.114  0.9070  0.7795 -0.3788
11574SOL     OW36398   8.831   3.272   2.975 -0.5890 -0.2009 -0.2737
11574SOL    HW136399   8.811   3.247   2.885 -1.1511 -0.1646 -0.1617
11574SOL    HW236400   8.799   3.362   2.983  1.7012  0.6878 -0.7605
11575SOL     OW36401   2.240   4.173   5.766  0.5997 -0.0486  0.2231
11575SOL    HW136402   2.227   4.266   5.748 -1.2599 -0.2279  0.4914
11575SOL    HW236403   2.245   4.167   5.861  3.2606  0.0479  0.1288
11576SOL     OW36404   1.451   2.473   3.396 -0.2243  0.8714 -0.0168
11576SOL    HW136405   1.473   2.532   3.324  1.9139 -0.5263 -0.5673
11576SOL    HW236406   1.365   2.438   3.373 -0.4123  1.9155 -0.9149
11577SOL     OW36407   5.291   0.928   8.847 -0.2713  0.3526  0.0879
11577SOL    HW136408   5.207   0.932   8.894 -0.3860  0.3114 -0.1156
11577SOL    HW236409   5.268   0.897   8.760  0.0118 -0.0675  0.1616
11578SOL     OW36410   2.523   8.844   1.360  0.0284 -0.3595  0.2414
11578SOL    HW136411   2.611   8.874   1.381  0.2717 -1.7128  1.2390
11578SOL    HW236412   2.480   8.835   1.445 -1.1100  0.3730 -0.2402
11579SOL     OW36413   2.321   4.179   2.135 -0.2452  0.1137  0.1691
11579SOL    HW136414   2.351   4.180   2.044  0.1449  3.2709  0.2901
11579SOL    HW236415   2.231   4.210   2.131 -1.4293 -3.1124  0.5240
11580SOL     OW36416   9.024   1.105   7.908  0.0184  0.1667  0.0524
11580SOL    HW136417   9.036   1.161   7.985  0.7949  1.0587 -0.6958
11580SOL    HW236418   9.101   1.049   7.908  0.1176  0.3034 -0.1808
11581SOL     OW36419   4.332   8.698   7.707 -0.2451 -0.2318 -0.3937
11581SOL    HW136420   4.248   8.655   7.692 -0.0660 -0.0206 -2.1389
11581SOL    HW236421   4.317   8.754   7.783 -0.9494 -2.1154  0.8804
11582SOL     OW36422   2.313   3.948   1.687  0.0538 -0.0002  0.3573
11582SOL    HW136423   2.284   3.869   1.641  0.2894 -0.3671  0.8284
11582SOL    HW236424   2.391   3.976   1.640 -0.5392  0.4766 -0.3652
11583SOL     OW36425   9.116   7.030   0.476 -0.1464  0.0021 -0.4783
11583SOL    HW136426   9.182   7.086   0.434  0.4874 -1.0371 -0.8727
11583SOL    HW236427   9.145   6.941   0.459 -1.8523 -0.4787 -0.9794
11584SOL     OW36428   1.873   2.500   8.026  0.8253  0.0980 -0.3051
11584SOL    HW136429   1.858   2.409   8.001  0.2425  0.5702 -1.7052
11584SOL    HW236430   1.794   2.526   8.073  0.6238  0.1427 -0.6683
11585SOL     OW36431   5.748   2.446   7.522  0.3200 -0.1165  0.1739
11585SOL    HW136432   5.711   2.509   7.584 -0.3586 -0.6507  0.3173
11585SOL    HW236433   5.761   2.366   7.573  1.1455 -0.1100 -0.0156
11586SOL     OW36434   2.539   0.797   8.170  0.9422  0.4228 -0.3785
11586SOL    HW136435   2.580   0.759   8.248  1.3900 -0.2077 -0.9205
11586SOL    HW236436   2.446   0.804   8.193  1.2949  1.6083  0.7553
11587SOL     OW36437   2.600   7.800   3.413  0.6875 -0.3947 -0.3269
11587SOL    HW136438   2.553   7.722   3.385 -0.9851  0.3367  0.4016
11587SOL    HW236439   2.547   7.836   3.484  1.4688  1.3632 -0.6123
11588SOL     OW36440   7.932   5.118   2.791  0.4169 -0.1016 -0.3388
11588SOL    HW136441   8.007   5.095   2.846 -0.1207 -0.0172  0.4495
11588SOL    HW236442   7.966   5.183   2.730  0.8105  0.5337  0.5361
11589SOL     OW36443   0.945   2.556   1.348 -0.0031 -0.3724  0.1593
11589SOL    HW136444   1.034   2.582   1.372  0.0474 -0.6395  0.2630
11589SOL    HW236445   0.949   2.461   1.337  0.2406 -0.1244 -2.1150
11590SOL     OW36446   6.980   9.047   4.405 -0.2073  0.0876  0.2511
11590SOL    HW136447   7.075   9.033   4.407 -0.3438 -0.9785 -0.5706
11590SOL    HW236448   6.945   8.972   4.358 -1.3843  0.9026 -0.2013
11591SOL     OW36449   9.113   2.150   2.803 -0.0323 -0.4482  0.0499
11591SOL    HW136450   9.107   2.226   2.861  0.3609 -0.9362  0.7354
11591SOL    HW236451   9.024   2.136   2.773 -0.2544 -0.2476  0.6094
11592SOL     OW36452   2.798   3.754   6.817 -0.5618  0.1085 -0.6021
11592SOL    HW136453   2.828   3.702   6.892  1.6062 -1.3900 -2.4222
11592SOL    HW236454   2.730   3.700   6.776 -1.4084  0.7109 -0.0030
11593SOL     OW36455   2.530   8.934   4.628 -0.0794 -0.4393  0.3409
11593SOL    HW136456   2.607   8.906   4.678  1.4298  0.1954 -1.5693
11593SOL    HW236457   2.514   9.024   4.657 -0.6036 -0.8294  1.3047
11594SOL     OW36458   8.262   7.760   7.280  0.1629  0.6215 -0.1158
11594SOL    HW136459   8.237   7.853   7.288 -0.7474  0.2685  1.2769
11594SOL    HW236460   8.313   7.741   7.358  2.8668  0.6859 -1.8108
11595SOL     OW36461   2.717   4.603   6.127  0.7845  0.3160 -0.3458
11595SOL    HW136462   2.785   4.671   6.119  1.2029 -0.0431  0.1137
11595SOL    HW236463   2.751   4.530   6.075  0.7300  0.1514 -0.1498
11596SOL     OW36464   8.864   5.350   8.726 -0.5300  0.4675 -0.2710
11596SOL    HW136465   8.854   5.257   8.748  0.8235  0.2582 -0.5281
11596SOL    HW236466   8.799   5.394   8.780  0.3695 -0.4115  1.5663
11597SOL     OW36467   4.975   6.027   3.434 -0.7990  0.4322  0.1963
11597SOL    HW136468   4.975   6.121   3.413  0.0641  0.5517  0.6618
11597SOL    HW236469   5.068   6.005   3.444 -1.0148 -0.3959  0.4280
11598SOL     OW36470   2.790   5.977   5.751 -0.2164 -0.3478 -0.0392
11598SOL    HW136471   2.740   5.953   5.672  1.4897  0.0396 -1.2546
11598SOL    HW236472   2.855   5.908   5.760 -1.0954 -0.9784  1.6871
11599SOL     OW36473   2.790   1.341   2.352  0.2603 -0.0495  0.0455
11599SOL    HW136474   2.877   1.308   2.372  1.4353  3.3851  0.9901
11599SOL    HW236475   2.783   1.334   2.257  0.3885 -3.0315  0.2257
11600SOL     OW36476   5.016   2.853   7.417 -0.4748  0.1058  0.3497
11600SOL    HW136477   5.086   2.869   7.353 -1.6495  0.9424 -0.7570
11600SOL    HW236478   4.996   2.940   7.452 -1.2962 -0.0471  0.2825
11601SOL     OW36479   5.796   4.454   5.365  0.3928  0.2098  0.4841
11601SOL    HW136480   5.741   4.516   5.413 -2.3384 -0.0657 -2.1774
11601SOL    HW236481   5.850   4.509   5.309  0.8331  0.3405  1.0270
11602SOL     OW36482   8.236   0.204   0.122 -0.4060 -0.0189 -0.0553
11602SOL    HW136483   8.318   0.156   0.125 -0.1655  0.3111 -1.0573
11602SOL    HW236484   8.201   0.198   0.211  1.8426  1.8196  1.0025
11603SOL     OW36485   0.248   1.050   2.253 -0.1130 -0.1031  0.0354
11603SOL    HW136486   0.167   1.096   2.232 -0.3632 -0.1066  0.9977
11603SOL    HW236487   0.282   1.021   2.168 -1.8395 -1.3182 -0.2563
11604SOL     OW36488   3.462   6.673   5.443 -0.0104 -0.6439 -0.0721
11604SOL    HW136489   3.419   6.756   5.466 -0.1441 -0.6895 -0.1556
11604SOL    HW236490   3.555   6.691   5.453 -0.0484 -0.5436  0.1122
11605SOL     OW36491   3.187   8.188   3.307  0.7127  0.1798  0.1365
11605SOL    HW136492   3.124   8.133   3.354  0.8439  0.7634  1.0058
11605SOL    HW236493   3.150   8.196   3.219  0.9502 -1.7078 -0.1556
11606SOL     OW36494   3.962   7.782   1.054 -0.0027  0.0891 -0.6021
11606SOL    HW136495   3.990   7.709   1.000 -2.3066  0.7033 -2.7201
11606SOL    HW236496   3.954   7.855   0.993 -2.3834  0.8889  0.6206
11607SOL     OW36497   8.760   2.562   0.430  0.2161  0.3140 -0.7977
11607SOL    HW136498   8.790   2.653   0.426 -0.4323  0.4919 -1.8420
11607SOL    HW236499   8.668   2.569   0.456  0.7331 -0.1724  1.3004
11608SOL     OW36500   0.662   4.322   1.627  0.2402  0.0600 -0.0435
11608SOL    HW136501   0.685   4.357   1.541  0.9537 -1.2289 -0.3948
11608SOL    HW236502   0.603   4.387   1.664 -1.5974 -0.2453 -2.2780
11609SOL     OW36503   0.808   9.124   7.093 -0.6053  0.1941  0.0377
11609SOL    HW136504   0.886   9.176   7.072  0.4679 -0.9056  1.2000
11609SOL    HW236505   0.752   9.184   7.143  0.0480  0.6237  0.2630
11610SOL     OW36506   8.493   2.404   8.798  0.0260 -0.4287  0.4314
11610SOL    HW136507   8.541   2.416   8.879  3.1552  0.9674 -1.5204
11610SOL    HW236508   8.493   2.309   8.783  2.2149 -0.4492  0.4697
11611SOL     OW36509   8.674   7.578   6.928  0.4625 -0.2537 -0.2793
11611SOL    HW136510   8.628   7.574   7.012 -1.1105  0.0729 -1.0852
11611SOL    HW236511   8.629   7.514   6.873  1.0413  0.0052 -1.0686
11612SOL     OW36512   1.081   7.285   6.435 -0.6811 -0.3916 -0.0207
11612SOL    HW136513   0.986   7.281   6.448 -0.7845  2.6535  0.6303
11612SOL    HW236514   1.103   7.376   6.454  2.5047 -1.2516  0.6023
11613SOL     OW36515   0.838   5.737   7.237 -0.0912 -0.0760  1.0267
11613SOL    HW136516   0.784   5.664   7.207  0.9105 -0.2461 -0.4253
11613SOL    HW236517   0.873   5.708   7.322 -1.1267 -0.5353  1.3089
11614SOL     OW36518   5.473   7.331   3.198 -0.0162  0.0366 -0.2694
11614SOL    HW136519   5.379   7.338   3.215  0.0803  2.8964 -0.5334
11614SOL    HW236520   5.514   7.365   3.278  0.7475 -0.1351 -0.5875
11615SOL     OW36521   7.398   8.801   1.035 -0.1489 -0.1144 -0.1971
11615SOL    HW136522   7.423   8.878   1.086 -0.0945 -0.8712  0.9169
11615SOL    HW236523   7.411   8.727   1.094  1.2789 -1.1384 -1.7618
11616SOL     OW36524   0.601   2.725   0.823 -0.5886 -0.1277  0.2431
11616SOL    HW136525   0.532   2.695   0.883  0.7306 -2.2092  0.7674
11616SOL    HW236526   0.676   2.740   0.880 -0.1120  0.5507 -0.5561
11617SOL     OW36527   8.338   4.804   5.253  0.1079 -0.0976 -0.2502
11617SOL    HW136528   8.322   4.866   5.324 -0.2884  0.3418 -0.7198
11617SOL    HW236529   8.261   4.811   5.197  0.3322 -0.5808 -0.6231
11618SOL     OW36530   2.703   0.826   5.695 -0.0282 -0.1245 -0.2942
11618SOL    HW136531   2.649   0.758   5.657 -0.3724  1.1456 -2.1505
11618SOL    HW236532   2.748   0.866   5.620  0.3774  1.4818  0.7748
11619SOL     OW36533   0.519   7.774   2.141  0.2370  0.0622  0.6040
11619SOL    HW136534   0.578   7.803   2.212  1.4230 -0.2880 -0.2264
11619SOL    HW236535   0.577   7.732   2.078 -0.9246 -0.2891 -0.2309
11620SOL     OW36536   8.953   7.844   5.601  0.4013  0.2076 -0.0819
11620SOL    HW136537   8.872   7.799   5.626  0.6040 -0.8213 -1.2477
11620SOL    HW236538   9.018   7.810   5.663 -0.1181  1.3223  1.1039
11621SOL     OW36539   2.950   8.737   7.874  0.0687 -0.4948 -0.1947
11621SOL    HW136540   2.933   8.753   7.967 -0.8901  1.1003 -0.6183
11621SOL    HW236541   2.988   8.819   7.842 -2.3899  0.0854 -1.8406
11622SOL     OW36542   7.529   2.316   1.278 -0.1284  0.1547  0.1811
11622SOL    HW136543   7.581   2.252   1.230  0.3651 -0.1666  1.1195
11622SOL    HW236544   7.517   2.276   1.364 -0.2276  1.1151  0.6174
11623SOL     OW36545   8.502   4.013   9.165 -1.1434 -0.3523  0.1693
11623SOL    HW136546   8.490   3.919   9.183  0.6289 -0.6613 -0.2225
11623SOL    HW236547   8.494   4.021   9.070 -0.4123 -0.2489  0.1122
11624SOL     OW36548   1.673   3.113   8.928  0.1329 -0.2368  0.1087
11624SOL    HW136549   1.713   3.063   8.999 -0.0377 -0.8082 -0.1862
11624SOL    HW236550   1.697   3.204   8.945 -1.4346 -0.1302  1.9206
11625SOL     OW36551   3.247   6.578   3.479  0.1670  0.4042 -0.5976
11625SOL    HW136552   3.280   6.492   3.504  0.4718  0.8959  0.7264
11625SOL    HW236553   3.322   6.622   3.439  0.7027  0.9546  0.9924
11626SOL     OW36554   7.432   0.448   6.819 -0.0558  0.1893 -0.8047
11626SOL    HW136555   7.365   0.400   6.770  0.6223 -1.1386 -0.4364
11626SOL    HW236556   7.382   0.504   6.878 -0.8500 -0.1198 -1.1750
11627SOL     OW36557   3.727   4.437   1.592 -0.4752 -0.1374  0.1731
11627SOL    HW136558   3.707   4.521   1.633 -0.5706  1.7938 -3.6090
11627SOL    HW236559   3.810   4.410   1.632  0.2050  2.3709  0.5348
11628SOL     OW36560   3.066   1.287   2.379  0.0647  0.2656 -0.1969
11628SOL    HW136561   3.120   1.241   2.443  1.0910  1.5385 -0.1146
11628SOL    HW236562   3.118   1.286   2.299 -1.7006 -2.3260 -1.3817
11629SOL     OW36563   1.672   5.336   1.184  0.2092 -0.3806  0.1445
11629SOL    HW136564   1.731   5.275   1.230 -0.7418 -0.8040  0.8205
11629SOL    HW236565   1.639   5.393   1.253 -0.1932 -0.1572 -0.2363
11630SOL     OW36566   3.465   0.482   9.059  0.5168 -0.4623  0.4006
11630SOL    HW136567   3.483   0.514   8.970  0.0677 -2.3785 -0.4129
11630SOL    HW236568   3.439   0.560   9.108 -1.1348  0.3424 -1.6560
11631SOL     OW36569   7.742   0.715   8.712 -0.1160 -0.0826  1.0160
11631SOL    HW136570   7.655   0.715   8.752  0.3631 -0.8965  2.0611
11631SOL    HW236571   7.743   0.637   8.657  0.6294 -1.1448  2.5079
11632SOL     OW36572   4.520   2.603   4.776 -0.1509 -0.3883 -0.3683
11632SOL    HW136573   4.477   2.528   4.815  0.5135 -0.1423  0.8480
11632SOL    HW236574   4.606   2.606   4.817 -0.7704  2.0109  0.8531
11633SOL     OW36575   6.322   7.297   6.152 -0.2094 -0.3448  0.5068
11633SOL    HW136576   6.233   7.315   6.181  0.0414 -0.2558  1.2205
11633SOL    HW236577   6.348   7.376   6.103 -0.6008 -0.4669  0.0961
11634SOL     OW36578   9.165   1.996   5.083 -0.6942 -0.3364 -0.0386
11634SOL    HW136579   9.256   2.016   5.103 -0.8147  1.1350 -0.8349
11634SOL    HW236580   9.118   2.014   5.164 -0.2791 -1.0116  0.3464
11635SOL     OW36581   6.399   6.821   6.677  0.6443 -0.0891  0.4678
11635SOL    HW136582   6.315   6.785   6.649 -0.3508  2.0594  0.5626
11635SOL    HW236583   6.444   6.843   6.595 -0.3304  1.8764  0.4159
11636SOL     OW36584   1.178   3.678   3.908 -0.1115  0.3076 -0.1340
11636SOL    HW136585   1.253   3.625   3.937 -0.1110 -0.0106 -0.7073
11636SOL    HW236586   1.193   3.764   3.946  0.1077  0.0064  0.4589
11637SOL     OW36587   1.231   7.041   7.622  0.2917 -0.3896  0.6219
11637SOL    HW136588   1.278   7.123   7.633 -0.6703  0.3172 -0.3686
11637SOL    HW236589   1.284   6.991   7.560 -0.1888  0.3677 -0.4195
11638SOL     OW36590   6.238   1.939   9.016  0.0859 -0.2097 -0.1067
11638SOL    HW136591   6.153   1.983   9.010 -0.3687 -1.0182  0.3512
11638SOL    HW236592   6.249   1.898   8.930 -1.0054 -1.9432  0.5661
11639SOL     OW36593   6.333   1.345   0.408 -0.5527 -0.0273  0.4684
11639SOL    HW136594   6.342   1.375   0.499  0.2565 -0.3296  0.4939
11639SOL    HW236595   6.285   1.416   0.364  1.4006  1.3575  0.5023
11640SOL     OW36596   4.261   7.408   4.014  0.6079  1.1100  0.6662
11640SOL    HW136597   4.226   7.491   3.983 -1.1861 -0.1299 -0.8125
11640SOL    HW236598   4.223   7.397   4.101 -0.4368  1.1192  0.2224
11641SOL     OW36599   6.799   2.319   3.500  0.3071 -0.0991  0.2307
11641SOL    HW136600   6.768   2.260   3.568  0.3347 -1.1072 -0.6203
11641SOL    HW236601   6.785   2.271   3.418  3.4208 -0.2958 -0.2473
11642SOL     OW36602   7.471   6.755   2.295 -0.1197  0.3507 -0.2972
11642SOL    HW136603   7.537   6.812   2.257 -0.5409  0.8216 -0.3258
11642SOL    HW236604   7.389   6.802   2.284 -0.7728 -1.1647 -2.1669
11643SOL     OW36605   6.158   7.704   8.378 -0.0314 -0.1973 -0.4163
11643SOL    HW136606   6.196   7.618   8.396  0.0554  0.2319  1.6819
11643SOL    HW236607   6.103   7.692   8.301  0.7946 -1.8834 -0.7510
11644SOL     OW36608   2.566   1.913   5.305 -0.6175 -0.5184  0.1754
11644SOL    HW136609   2.493   1.920   5.367  0.2570 -0.7683  1.2568
11644SOL    HW236610   2.629   1.856   5.349 -0.1082 -0.9525 -1.0862
11645SOL     OW36611   2.744   7.999   5.203  0.7402  0.7449 -0.3861
11645SOL    HW136612   2.759   7.943   5.126 -0.4006  0.3680 -0.3444
11645SOL    HW236613   2.830   8.006   5.244  0.8699 -1.1353 -0.2857
11646SOL     OW36614   1.421   6.630   3.015  0.2836  0.0314 -0.1142
11646SOL    HW136615   1.475   6.603   3.089 -0.6348 -1.7268 -0.0593
11646SOL    HW236616   1.331   6.631   3.050 -0.3979 -2.6747 -1.6417
11647SOL     OW36617   4.096   1.018   2.701  0.7349 -0.3956 -0.8043
11647SOL    HW136618   4.079   1.029   2.608  1.3584 -0.4414 -0.9286
11647SOL    HW236619   4.010   1.015   2.742  0.4292 -1.3138 -1.4922
11648SOL     OW36620   2.722   2.768   5.609 -0.3375  0.1118  0.2676
11648SOL    HW136621   2.770   2.815   5.677 -0.6007  0.5676  0.1443
11648SOL    HW236622   2.781   2.766   5.534  0.3430 -1.2600  0.8169
11649SOL     OW36623   8.461   2.606   3.015 -0.1924  0.0336  0.0150
11649SOL    HW136624   8.368   2.586   3.003 -0.1486 -0.0231 -0.2394
11649SOL    HW236625   8.504   2.563   2.941  0.2113 -1.2525  0.9902
11650SOL     OW36626   1.116   4.832   0.931  0.1578 -0.0489  0.1489
11650SOL    HW136627   1.091   4.876   1.012 -0.3735  0.4379 -0.2741
11650SOL    HW236628   1.107   4.900   0.864 -3.3661 -1.5074 -0.9389
11651SOL     OW36629   4.284   2.605   2.819 -0.2458  0.7934 -0.0925
11651SOL    HW136630   4.222   2.533   2.833 -0.4470  1.1385  0.8010
11651SOL    HW236631   4.314   2.628   2.906  0.9625  0.8014 -0.5063
11652SOL     OW36632   8.076   3.977   4.051  0.1398  0.7464  0.2710
11652SOL    HW136633   8.043   4.058   4.012 -1.0258  0.4798  0.6716
11652SOL    HW236634   8.160   4.002   4.089  1.4093  0.9464 -2.5641
11653SOL     OW36635   8.839   6.458   5.089  0.4397  0.1666 -0.1503
11653SOL    HW136636   8.883   6.374   5.084  0.4943  0.2294 -0.7235
11653SOL    HW236637   8.873   6.508   5.015  0.2586  0.6211  0.0706
11654SOL     OW36638   6.758   4.411   2.487 -0.6954 -0.5603 -1.0534
11654SOL    HW136639   6.801   4.341   2.537 -1.4997 -0.8930 -0.7971
11654SOL    HW236640   6.765   4.383   2.396 -1.1884 -1.0987 -0.9388
11655SOL     OW36641   3.792   1.889   5.724 -0.1740  0.1015 -0.0314
11655SOL    HW136642   3.781   1.952   5.653 -2.4506 -0.3097 -0.0849
11655SOL    HW236643   3.780   1.940   5.804 -1.6864 -0.1919 -0.0661
11656SOL     OW36644   5.726   9.066   4.041  0.4284 -0.4943  0.2884
11656SOL    HW136645   5.738   9.003   3.969 -4.0083  0.1293 -1.2075
11656SOL    HW236646   5.690   9.014   4.112 -0.7961 -0.1256 -0.0493
11657SOL     OW36647   5.965   3.137   7.611  0.2184  0.3620 -1.2304
11657SOL    HW136648   6.046   3.147   7.662  0.4139 -0.8979 -1.2928
11657SOL    HW236649   5.966   3.213   7.552  1.5772  0.1262 -1.5405
11658SOL     OW36650   0.057   6.517   3.797 -0.3128  0.3289 -0.5173
11658SOL    HW136651   0.025   6.454   3.733 -3.2777  1.2560 -0.0211
11658SOL    HW236652   0.146   6.538   3.768 -0.9301 -0.6639 -3.2514
11659SOL     OW36653   2.371   2.805   4.157 -0.1255 -0.4900  0.6575
11659SOL    HW136654   2.463   2.821   4.137 -0.2014 -3.0630 -2.1141
11659SOL    HW236655   2.372   2.758   4.240  1.1250 -1.2955  0.1976
11660SOL     OW36656   3.278   0.812   4.816 -0.1565 -0.1913 -0.3067
11660SOL    HW136657   3.248   0.862   4.892 -0.5421 -0.0134 -0.5715
11660SOL    HW236658   3.335   0.872   4.768 -0.3643 -0.1096 -0.4549
11661SOL     OW36659   4.654   8.939   5.023 -0.0757 -0.7861 -0.0354
11661SOL    HW136660   4.584   8.989   4.980 -0.6393 -2.9092 -1.6993
11661SOL    HW236661   4.613   8.905   5.102 -0.4607 -0.7337 -0.2066
11662SOL     OW36662   6.780   2.156   7.436 -0.0838 -0.7636 -0.2497
11662SOL    HW136663   6.723   2.225   7.469  1.1336  0.0354  0.2320
11662SOL    HW236664   6.815   2.114   7.515  0.2725 -1.0045 -0.5321
11663SOL     OW36665   6.023   1.710   3.882  0.3720 -0.5023 -0.1732
11663SOL    HW136666   6.076   1.788   3.896 -1.3492  0.5089  0.9313
11663SOL    HW236667   5.973   1.727   3.802 -0.8048  0.0138  0.6533
11664SOL     OW36668   9.027   4.740   9.196 -0.0764 -0.1524 -0.2745
11664SOL    HW136669   9.091   4.749   9.266 -0.0187  0.7029 -0.4319
11664SOL    HW236670   8.943   4.760   9.238 -0.3211 -1.7897  0.0561
11665SOL     OW36671   6.579   3.901   7.772 -0.1139  0.3302  0.0905
11665SOL    HW136672   6.629   3.974   7.735 -0.2929  0.2661 -0.2771
11665SOL    HW236673   6.597   3.827   7.715 -0.5998  0.2959 -0.0235
11666SOL     OW36674   9.171   6.568   8.695  0.0402 -0.0634 -0.2124
11666SOL    HW136675   9.087   6.611   8.713 -0.0046 -0.2599  0.0483
11666SOL    HW236676   9.162   6.535   8.606 -0.6381 -1.1958  0.2667
11667SOL     OW36677   8.596   0.226   5.861  0.2376 -0.2170  0.1688
11667SOL    HW136678   8.577   0.201   5.771 -0.5709  0.3416  0.1719
11667SOL    HW236679   8.620   0.319   5.856  0.7766 -0.3382  0.4539
11668SOL     OW36680   2.138   6.564   8.414 -0.3851 -0.0611 -0.1964
11668SOL    HW136681   2.128   6.659   8.409 -0.6052 -0.1089 -0.6791
11668SOL    HW236682   2.220   6.545   8.369 -0.5045 -0.1330 -0.3838
11669SOL     OW36683   4.411   0.821   5.282 -0.0060  0.5453  0.3059
11669SOL    HW136684   4.488   0.873   5.259 -0.2426  1.5757  1.7639
11669SOL    HW236685   4.417   0.742   5.227  2.5874  0.1761  1.0897
11670SOL     OW36686   3.322   6.839   6.724 -0.2309  0.3062 -0.5409
11670SOL    HW136687   3.250   6.829   6.663 -0.8668  0.6405  0.1453
11670SOL    HW236688   3.391   6.782   6.690 -1.6449 -1.8177  0.0922
11671SOL     OW36689   4.552   8.470   1.306 -0.1273  0.1013 -0.1620
11671SOL    HW136690   4.562   8.531   1.233  0.0668 -0.5453 -0.6790
11671SOL    HW236691   4.462   8.438   1.297  0.1468 -0.5475 -0.5579
11672SOL     OW36692   7.681   2.091   8.033 -0.0496 -0.2106 -0.1833
11672SOL    HW136693   7.686   2.009   7.984 -0.3963  0.4801 -1.3673
11672SOL    HW236694   7.620   2.146   7.984 -0.4778  0.4549  1.0600
11673SOL     OW36695   5.308   2.519   4.628  0.4629  0.0485 -0.4753
11673SOL    HW136696   5.368   2.492   4.559  0.9010 -0.7573  0.2102
11673SOL    HW236697   5.243   2.573   4.584  1.4671  0.5998 -1.2944
11674SOL     OW36698   1.216   7.077   0.887 -0.4860  0.1959 -0.2105
11674SOL    HW136699   1.280   7.035   0.944 -2.5348 -2.4746  0.2017
11674SOL    HW236700   1.164   7.132   0.946 -0.0157  0.6265 -0.1909
11675SOL     OW36701   0.839   0.063   4.135 -0.1154  0.2730 -0.5101
11675SOL    HW136702   0.904  -0.007   4.131  0.1579  0.6073 -2.2005
11675SOL    HW236703   0.890   0.143   4.146 -0.4417  0.2149  1.7205
11676SOL     OW36704   0.737   8.674   5.044  0.5073 -0.3570 -0.1213
11676SOL    HW136705   0.675   8.657   5.116  1.3831 -2.8814  0.0848
11676SOL    HW236706   0.800   8.736   5.081 -0.2404 -0.0283  0.6114
11677SOL     OW36707   5.432   4.106   0.279 -0.6478 -0.1092  0.4730
11677SOL    HW136708   5.451   4.055   0.200  0.5934 -0.6209  1.0910
11677SOL    HW236709   5.506   4.165   0.288  0.1695 -1.3677  2.3085
11678SOL     OW36710   8.148   0.407   2.400  0.3020 -0.0350  0.4120
11678SOL    HW136711   8.230   0.431   2.357 -0.8525  0.5758 -1.5064
11678SOL    HW236712   8.139   0.471   2.471  1.1353  0.3409  0.1880
11679SOL     OW36713   4.295   4.232   9.235 -0.1800 -0.1544 -0.2093
11679SOL    HW136714   4.202   4.223   9.213 -0.7514  0.9837  1.6347
11679SOL    HW236715   4.302   4.196   9.324  1.3848 -1.3421 -0.7879
11680SOL     OW36716   1.435   5.901   7.081  0.1019 -0.3404 -0.2654
11680SOL    HW136717   1.385   5.978   7.053 -0.9313 -1.0093 -0.2864
11680SOL    HW236718   1.522   5.914   7.043 -0.2554  0.4930 -0.8195
11681SOL     OW36719   6.654   7.203   5.539 -0.0123 -0.1881 -0.3052
11681SOL    HW136720   6.576   7.148   5.536 -1.5300  1.8600  0.0761
11681SOL    HW236721   6.712   7.161   5.602 -1.8378 -0.4285  1.2351
11682SOL     OW36722   4.686   1.156   1.380 -0.2777  0.7725  0.0024
11682SOL    HW136723   4.663   1.145   1.472 -1.0584 -1.2560 -0.4056
11682SOL    HW236724   4.781   1.150   1.378 -0.3164 -0.0167  0.5665
11683SOL     OW36725   5.522   8.764   6.130 -0.7967  0.0993  0.1243
11683SOL    HW136726   5.573   8.693   6.169 -0.9252 -0.0545  0.0144
11683SOL    HW236727   5.496   8.730   6.044  1.7994  1.4376 -1.2416
11684SOL     OW36728   6.166   5.424   7.777 -0.1501 -0.0798 -0.5249
11684SOL    HW136729   6.188   5.482   7.851 -0.2076  0.4876 -0.9492
11684SOL    HW236730   6.251   5.395   7.743 -0.0909  0.7103 -1.0612
11685SOL     OW36731   4.888   4.406   0.607  0.2490 -0.0882  0.6586
11685SOL    HW136732   4.844   4.489   0.589  0.6875 -0.2311 -1.2314
11685SOL    HW236733   4.817   4.344   0.621 -0.1102  0.3228  0.6696
11686SOL     OW36734   4.354   7.888   6.049 -0.0299  0.0930  0.0472
11686SOL    HW136735   4.349   7.896   5.953 -0.5348 -0.0382  0.0566
11686SOL    HW236736   4.438   7.848   6.066  0.1324  0.2663 -0.3366
11687SOL     OW36737   3.764   9.019   8.744 -0.1779  0.0665  0.0419
11687SOL    HW136738   3.718   8.983   8.819  0.3646 -0.8532 -0.0573
11687SOL    HW236739   3.830   8.953   8.722  1.0033  1.2320  0.0101
11688SOL     OW36740   5.401   6.500   7.968 -0.4797  0.3613  0.0159
11688SOL    HW136741   5.434   6.428   8.020 -0.0047 -0.2817 -1.1543
11688SOL    HW236742   5.469   6.516   7.902  0.1934  2.9687  1.2608
11689SOL     OW36743   0.766   8.034   2.644 -0.4318  0.7705  0.1179
11689SOL    HW136744   0.678   8.050   2.677  0.8332  2.5826  2.8615
11689SOL    HW236745   0.773   8.087   2.565 -2.0405 -0.0393 -0.5848
11690SOL     OW36746   8.561   8.596   4.881 -0.5010  0.0243 -0.2362
11690SOL    HW136747   8.547   8.506   4.853 -1.6809  0.2949 -0.5381
11690SOL    HW236748   8.543   8.649   4.803 -0.1342  0.5455  0.0255
11691SOL     OW36749   3.855   0.771   3.375  0.0764 -0.1058  0.0840
11691SOL    HW136750   3.854   0.698   3.313 -0.2501 -1.1407  1.2709
11691SOL    HW236751   3.772   0.816   3.361 -0.6196 -1.1658  0.7030
11692SOL     OW36752   3.487   4.679   8.689 -0.4117 -0.4793 -1.0574
11692SOL    HW136753   3.395   4.677   8.664 -0.6671 -2.4117 -0.0631
11692SOL    HW236754   3.525   4.602   8.647  0.1278 -1.2377  0.7626
11693SOL     OW36755   6.484   6.730   7.203  0.0548  0.2315  0.7508
11693SOL    HW136756   6.474   6.749   7.110  2.4578 -0.5994  0.2683
11693SOL    HW236757   6.550   6.660   7.206  1.2651  1.4043  3.1492
11694SOL     OW36758   1.632   1.641   6.750  0.5214 -0.0635 -0.2184
11694SOL    HW136759   1.631   1.546   6.737 -1.1856 -0.0109 -0.6539
11694SOL    HW236760   1.544   1.661   6.784  1.8870  0.9612  2.9124
11695SOL     OW36761   0.784   6.768   5.664 -0.0378 -0.0504 -0.9011
11695SOL    HW136762   0.799   6.677   5.638  0.2986 -0.4918  0.7849
11695SOL    HW236763   0.868   6.811   5.649  0.3737 -0.4763  0.1343
11696SOL     OW36764   1.189   8.537   8.443 -0.7046 -0.1232  0.1848
11696SOL    HW136765   1.223   8.468   8.386 -0.3788  1.2538 -1.3022
11696SOL    HW236766   1.261   8.558   8.502  0.0105  0.6123 -0.9335
11697SOL     OW36767   5.626   2.158   8.396 -0.4118 -0.1154 -0.1998
11697SOL    HW136768   5.584   2.119   8.473 -0.8417  1.3145  0.3033
11697SOL    HW236769   5.555   2.198   8.347 -0.0767 -0.6414 -1.1364
11698SOL     OW36770   6.538   0.096   0.079  0.3537 -0.3610 -0.0564
11698SOL    HW136771   6.586   0.092  -0.003 -0.7054  0.7940 -0.7432
11698SOL    HW236772   6.556   0.184   0.113  0.4969 -0.7050  0.7806
11699SOL     OW36773   8.788   8.984   4.303  0.0274 -0.0829 -0.3519
11699SOL    HW136774   8.760   9.015   4.217 -1.3949 -2.8872 -0.9506
11699SOL    HW236775   8.707   8.966   4.350  0.7749 -1.6046  0.4182
11700SOL     OW36776   1.790   1.442   3.236  0.3098 -0.6443  0.2223
11700SOL    HW136777   1.726   1.455   3.306 -0.0966  1.9316 -0.5564
11700SOL    HW236778   1.747   1.477   3.158  2.7884  1.5514 -0.2351
11701SOL     OW36779   2.736   4.898   1.580  0.5744  0.3721 -0.0396
11701SOL    HW136780   2.672   4.836   1.545  1.4462 -1.1536  1.0310
11701SOL    HW236781   2.821   4.855   1.568  1.1800  1.2889  0.8639
11702SOL     OW36782   8.174   3.023   3.142 -0.3234  0.3637 -0.3601
11702SOL    HW136783   8.215   3.045   3.058  1.6012 -1.3365  0.1083
11702SOL    HW236784   8.246   3.017   3.204 -1.7578  1.8041  1.4967
11703SOL     OW36785   4.856   0.308   6.226 -0.7333  0.4258 -0.1368
11703SOL    HW136786   4.891   0.352   6.149 -0.2979  0.4382  0.0693
11703SOL    HW236787   4.850   0.377   6.292 -0.2535  0.2232  0.1199
11704SOL     OW36788   3.012   2.645   5.665 -0.1535 -0.5102  0.3607
11704SOL    HW136789   2.956   2.572   5.637 -1.3275  0.2048  0.8148
11704SOL    HW236790   3.101   2.616   5.644 -0.8227 -0.8855 -2.0630
11705SOL     OW36791   7.899   4.864   8.786 -0.3185 -0.3232 -0.3060
11705SOL    HW136792   7.855   4.917   8.853 -0.8565 -0.5632 -0.4691
11705SOL    HW236793   7.946   4.797   8.836  0.6046  0.4737 -0.0797
11706SOL     OW36794   6.065   3.845   2.867 -0.6569 -0.2088 -0.1021
11706SOL    HW136795   6.048   3.939   2.874 -0.3542 -0.2373  1.0181
11706SOL    HW236796   6.080   3.816   2.957  1.9299 -0.8327 -0.6850
11707SOL     OW36797   2.478   7.959   4.141 -0.5140 -0.5108 -0.7116
11707SOL    HW136798   2.426   7.880   4.153  0.7789 -1.6464 -2.3010
11707SOL    HW236799   2.456   7.989   4.053 -0.5823  0.6182 -0.3265
11708SOL     OW36800   8.895   2.517   8.085  0.1381  0.1028  0.1366
11708SOL    HW136801   8.917   2.486   8.172 -0.6873 -0.0480  0.2907
11708SOL    HW236802   8.945   2.599   8.075  0.0503  0.2378  0.8315
11709SOL     OW36803   7.632   5.081   0.474  0.2355 -0.5931  0.3695
11709SOL    HW136804   7.633   5.016   0.544 -0.0684  0.2521  1.1783
11709SOL    HW236805   7.686   5.153   0.507  1.3027 -0.7963 -0.8824
11710SOL     OW36806   9.143   4.288   7.200  0.0189  0.7410  0.0032
11710SOL    HW136807   9.097   4.240   7.269  0.6558  0.4498  0.2359
11710SOL    HW236808   9.202   4.224   7.162  1.2772  1.4617  0.6913
11711SOL     OW36809   8.991   7.015   6.264 -0.1368 -0.1986 -0.2254
11711SOL    HW136810   9.060   7.074   6.233 -0.2030 -0.8641 -1.6524
11711SOL    HW236811   9.013   6.999   6.356  1.0143  0.4383 -0.3833
11712SOL     OW36812   1.299   2.910   2.258  0.4528  0.0164  0.1027
11712SOL    HW136813   1.367   2.938   2.196  1.6428 -0.8439  1.0014
11712SOL    HW236814   1.317   2.817   2.272 -1.4315 -0.4225 -0.2904
11713SOL     OW36815   2.191   2.914   3.977  0.7011 -0.1532 -0.3092
11713SOL    HW136816   2.248   2.868   4.038 -0.7964  0.1663  1.3991
11713SOL    HW236817   2.235   2.908   3.892  2.9427 -0.4230  0.8430
11714SOL     OW36818   1.201   8.612   5.764 -0.1362  0.1585  0.3018
11714SOL    HW136819   1.181   8.518   5.765 -0.7709  0.2226 -2.0262
11714SOL    HW236820   1.190   8.637   5.672 -0.3831  2.6122  0.9770
11715SOL     OW36821   1.934   9.016   0.947 -0.2797 -0.3100 -0.0083
11715SOL    HW136822   1.905   8.927   0.930 -0.6652  0.3964 -3.5689
11715SOL    HW236823   2.025   9.018   0.917 -0.7880  0.8584 -1.6077
11716SOL     OW36824   5.950   5.352   1.763  0.7358  0.8299 -0.4645
11716SOL    HW136825   5.950   5.298   1.684 -0.2818 -1.2650  0.9264
11716SOL    HW236826   5.989   5.296   1.830  0.9972  2.3464  0.6726
11717SOL     OW36827   8.705   6.839   7.488 -0.2120 -0.4617 -0.1592
11717SOL    HW136828   8.707   6.749   7.522  1.3128 -0.0033  1.0190
11717SOL    HW236829   8.745   6.833   7.401  3.2746 -0.3719  1.3664
11718SOL     OW36830   5.893   8.037   6.317  0.1026  0.1666  1.3227
11718SOL    HW136831   5.897   7.950   6.357  1.2024  1.0836  3.2756
11718SOL    HW236832   5.879   8.097   6.390 -1.5201  1.5876 -0.0883
11719SOL     OW36833   8.496   3.149   7.107  0.1500 -0.4662 -0.1080
11719SOL    HW136834   8.430   3.183   7.047  0.4489  1.3176  0.5248
11719SOL    HW236835   8.579   3.178   7.070  0.4288 -0.7444  0.2981
11720SOL     OW36836   1.886   3.973   7.100 -0.0864 -0.0945  0.1954
11720SOL    HW136837   1.911   4.057   7.061  0.4221  1.2899  3.3785
11720SOL    HW236838   1.794   3.963   7.078  0.0406  0.9094 -0.8586
11721SOL     OW36839   8.783   2.314   6.551  0.0499  0.0921  0.4779
11721SOL    HW136840   8.763   2.223   6.573 -0.1264  0.2054  0.7869
11721SOL    HW236841   8.728   2.366   6.609 -1.5089  0.3974 -1.2430
11722SOL     OW36842   0.483   7.814   3.573  0.0661 -0.5806 -0.0135
11722SOL    HW136843   0.519   7.871   3.506 -0.9255 -0.4559 -0.4531
11722SOL    HW236844   0.493   7.725   3.538 -1.1202 -0.4662 -0.6586
11723SOL     OW36845   7.230   3.898   1.521  0.3122  0.8319 -0.0293
11723SOL    HW136846   7.138   3.924   1.519  0.4142  1.1801 -0.4514
11723SOL    HW236847   7.238   3.830   1.454  0.7997  2.3490 -1.5703
11724SOL     OW36848   3.370   7.385   2.512 -0.8741 -0.4536  0.4797
11724SOL    HW136849   3.451   7.400   2.562  0.0161 -1.2986 -0.6834
11724SOL    HW236850   3.361   7.290   2.508 -0.9646 -0.3948 -0.8973
11725SOL     OW36851   9.139   1.783   1.553  1.3280 -0.7736  0.0422
11725SOL    HW136852   9.127   1.877   1.560  0.2999 -0.6207 -2.9710
11725SOL    HW236853   9.065   1.745   1.601 -0.6520  0.0589 -2.2068
11726SOL     OW36854   5.464   7.189   9.159  0.3047  0.4405  0.0388
11726SOL    HW136855   5.376   7.202   9.195 -0.6572 -1.9409 -1.3397
11726SOL    HW236856   5.484   7.271   9.115 -1.6071  0.7023 -0.3856
11727SOL     OW36857   2.879   6.237   7.785  0.0042  0.0604  0.2317
11727SOL    HW136858   2.969   6.229   7.818  0.1648  0.3256 -0.1380
11727SOL    HW236859   2.882   6.313   7.726 -0.4484  0.0300  0.1700
11728SOL     OW36860   2.477   6.285   1.311  0.3668 -0.3440  0.5616
11728SOL    HW136861   2.533   6.340   1.256 -0.2943  0.1122  0.3421
11728SOL    HW236862   2.438   6.222   1.251 -2.4394  1.8166  0.0131
11729SOL     OW36863   4.524   0.317   0.457 -0.4922  0.0948 -0.0091
11729SOL    HW136864   4.551   0.252   0.522 -0.4280  1.1082  0.9746
11729SOL    HW236865   4.441   0.283   0.422  0.5164 -1.5115 -0.9204
11730SOL     OW36866   9.110   7.545   4.968 -0.1087  0.7217  0.3413
11730SOL    HW136867   9.062   7.495   4.902  1.7417 -0.4521 -0.1671
11730SOL    HW236868   9.132   7.480   5.035  2.3436  0.7817 -0.3324
11731SOL     OW36869   4.847   2.479   0.168 -0.3042 -0.3285  0.7499
11731SOL    HW136870   4.778   2.525   0.216 -1.2051 -0.5318 -0.3286
11731SOL    HW236871   4.814   2.390   0.158 -0.1066 -0.2992 -0.2052
11732SOL     OW36872   4.758   0.537   3.777 -0.4995  0.4655  0.0626
11732SOL    HW136873   4.825   0.600   3.751 -0.3510  1.0945  1.8679
11732SOL    HW236874   4.693   0.541   3.708 -0.3532  2.4108  0.0104
11733SOL     OW36875   0.929   8.457   7.374  0.0164  0.8970 -0.2707
11733SOL    HW136876   0.954   8.488   7.461  2.6224  0.5318 -0.8742
11733SOL    HW236877   0.926   8.536   7.320 -1.7370  1.1433  0.1253
11734SOL     OW36878   0.469   5.471   3.599 -0.0851  0.7081  0.8305
11734SOL    HW136879   0.523   5.439   3.671  0.4666 -0.6648 -0.1715
11734SOL    HW236880   0.493   5.563   3.589  1.1498  0.4240  1.2055
11735SOL     OW36881   8.161   5.798   2.922  0.4353  0.1278 -0.1680
11735SOL    HW136882   8.066   5.783   2.919  0.4552 -0.2419  0.7701
11735SOL    HW236883   8.187   5.807   2.831 -0.3548 -0.7414 -0.4825
11736SOL     OW36884   5.945   3.368   0.402 -0.3723 -0.2101 -0.5681
11736SOL    HW136885   5.862   3.412   0.381 -0.5015 -0.4070 -0.4640
11736SOL    HW236886   5.989   3.427   0.464 -0.0378  0.3213 -1.3023
11737SOL     OW36887   4.093   3.226   6.422 -0.1863 -0.2349 -0.1591
11737SOL    HW136888   4.139   3.188   6.347  1.8540  0.2788  0.7908
11737SOL    HW236889   4.159   3.229   6.491 -2.0577 -0.7691  1.7002
11738SOL     OW36890   5.724   8.052   6.094  0.7770  0.0992  0.2520
11738SOL    HW136891   5.660   8.054   6.165  0.4553 -1.1974  0.0045
11738SOL    HW236892   5.808   8.068   6.136  0.5732 -0.5589  0.9108
11739SOL     OW36893   6.731   7.881   0.423 -0.3960  0.0544 -0.3000
11739SOL    HW136894   6.687   7.865   0.340  0.7841  1.0672 -1.1457
11739SOL    HW236895   6.671   7.846   0.490 -0.8413 -1.8085 -1.6264
11740SOL     OW36896   8.831   1.403   0.402 -0.2796 -0.0477  0.0304
11740SOL    HW136897   8.796   1.389   0.490  1.3021  0.3831  0.7419
11740SOL    HW236898   8.845   1.316   0.367  0.7067 -0.2326  0.8690
11741SOL     OW36899   8.286   7.597   3.298 -0.4773 -0.1834 -0.2488
11741SOL    HW136900   8.246   7.651   3.365  2.8318  1.1553  0.7723
11741SOL    HW236901   8.323   7.659   3.235  0.2628 -1.3141 -0.9638
11742SOL     OW36902   9.224   5.711   9.112  0.0144 -0.2985 -0.3112
11742SOL    HW136903   9.252   5.688   9.201 -0.7290 -1.0907 -0.2629
11742SOL    HW236904   9.128   5.716   9.118  0.0817  1.6445 -0.6196
11743SOL     OW36905   1.419   4.646   5.124 -0.0023  0.0952 -0.3104
11743SOL    HW136906   1.501   4.632   5.171 -1.0450 -2.0914  0.9810
11743SOL    HW236907   1.413   4.572   5.064 -0.6520  0.6624 -0.9543
11744SOL     OW36908   6.364   7.944   1.969  0.1379  0.1489  0.2934
11744SOL    HW136909   6.436   7.954   1.907  0.0908 -2.2982 -0.2089
11744SOL    HW236910   6.402   7.964   2.055  1.4585 -1.1745  0.0343
11745SOL     OW36911   7.581   3.787   5.244 -0.6635  0.3605  0.6039
11745SOL    HW136912   7.575   3.842   5.166  0.2286 -1.2768 -0.6616
11745SOL    HW236913   7.662   3.816   5.287  1.1578 -1.5869 -1.3943
11746SOL     OW36914   2.029   2.808   1.983 -0.2885  0.2523  0.1539
11746SOL    HW136915   2.110   2.780   2.025 -0.9669  1.1046  2.0940
11746SOL    HW236916   2.054   2.824   1.892  1.1116 -2.1025  0.0719
11747SOL     OW36917   0.227   0.511   9.176 -0.1876  0.4084  0.5837
11747SOL    HW136918   0.311   0.466   9.183  0.1198  0.8338 -0.2208
11747SOL    HW236919   0.194   0.514   9.265  0.8437  0.5960  0.9705
11748SOL     OW36920   3.604   5.563   1.051 -0.7147  0.4923 -0.3651
11748SOL    HW136921   3.592   5.638   1.109 -0.4258 -0.1812  0.5773
11748SOL    HW236922   3.686   5.581   1.005 -0.7754  0.8762 -0.3211
11749SOL     OW36923   0.373   0.335   3.596  0.4883 -0.0245 -0.3716
11749SOL    HW136924   0.407   0.417   3.631  0.1778 -0.1750  0.2738
11749SOL    HW236925   0.325   0.295   3.668  1.5831 -1.3134 -0.3252
11750SOL     OW36926   4.331   1.961   8.381  0.2739 -0.0959  0.4086
11750SOL    HW136927   4.277   2.026   8.337  1.5444  0.4715 -0.3514
11750SOL    HW236928   4.377   2.009   8.449  1.6188 -0.0506 -0.4957
11751SOL     OW36929   5.056   1.309   4.417  0.3856  0.6038 -0.4857
11751SOL    HW136930   5.059   1.398   4.382 -1.4150  0.0070 -2.2415
11751SOL    HW236931   5.017   1.319   4.504 -1.6131  1.3277 -1.4372
11752SOL     OW36932   6.397   5.103   2.389 -0.0133 -0.3247 -0.4067
11752SOL    HW136933   6.457   5.037   2.354  1.1983 -0.5991  2.0472
11752SOL    HW236934   6.447   5.146   2.459 -2.1737  0.4402  0.7023
11753SOL     OW36935   3.073   6.585   0.740  0.4392 -0.2697 -0.0833
11753SOL    HW136936   3.086   6.655   0.675  1.1795 -0.1521  0.1750
11753SOL    HW236937   3.156   6.538   0.740 -0.3879 -1.7388 -0.9304
11754SOL     OW36938   5.786   2.290   3.589  0.2682  0.1553  0.6676
11754SOL    HW136939   5.727   2.364   3.603 -0.5199 -0.0622 -1.2722
11754SOL    HW236940   5.862   2.329   3.544  0.0726 -0.1074  0.0993
11755SOL     OW36941   7.373   7.554   2.197 -0.8965  0.2205  0.2474
11755SOL    HW136942   7.458   7.576   2.234 -0.6190 -1.3039  0.5202
11755SOL    HW236943   7.310   7.582   2.264 -0.5409  0.0080  0.6734
11756SOL     OW36944   7.865   1.914   6.105 -0.7524 -0.5222 -0.0401
11756SOL    HW136945   7.779   1.940   6.137 -0.8340 -0.7131 -0.1030
11756SOL    HW236946   7.903   1.862   6.176  0.0118  1.0035  0.6759
11757SOL     OW36947   2.890   0.865   3.519  0.1151 -0.3475  0.0296
11757SOL    HW136948   2.943   0.944   3.519 -1.2638  0.6347 -1.6508
11757SOL    HW236949   2.944   0.800   3.473 -0.0434  0.6022 -1.5604
11758SOL     OW36950   3.815   3.506   1.663 -0.1619  0.4218  0.1238
11758SOL    HW136951   3.801   3.553   1.745  2.5765 -0.0503  0.8998
11758SOL    HW236952   3.837   3.417   1.690  1.5323  0.4546 -1.0800
11759SOL     OW36953   6.757   5.304   0.712 -0.8070 -0.0495  0.1718
11759SOL    HW136954   6.743   5.395   0.685  1.7440 -0.2264 -2.0616
11759SOL    HW236955   6.821   5.310   0.782 -0.6814 -0.1170  0.0626
11760SOL     OW36956   2.715   4.081   4.325 -0.1772  0.3057 -0.1663
11760SOL    HW136957   2.628   4.053   4.352 -0.6760  0.2596 -1.7455
11760SOL    HW236958   2.701   4.163   4.277  0.4611 -0.4218 -1.6567
11761SOL     OW36959   3.982   5.010   5.708  0.3748  0.7012  0.5547
11761SOL    HW136960   4.058   4.973   5.753 -0.2411  0.2075  1.1905
11761SOL    HW236961   3.996   4.988   5.616 -0.0952 -1.3490  0.9425
11762SOL     OW36962   7.724   0.152   4.196 -0.1237  0.4167 -0.3578
11762SOL    HW136963   7.665   0.160   4.271  0.7979 -0.3617  0.4443
11762SOL    HW236964   7.789   0.221   4.210 -0.0642  0.3993 -0.5508
11763SOL     OW36965   1.636   2.653   6.795 -0.2482 -0.6079  0.1265
11763SOL    HW136966   1.666   2.734   6.838  1.6868 -0.2852 -1.7631
11763SOL    HW236967   1.692   2.585   6.832 -0.7136 -0.8253  0.4350
11764SOL     OW36968   7.728   8.588   5.041 -0.1997  0.5630 -0.2101
11764SOL    HW136969   7.803   8.533   5.062 -1.5435 -1.0620  0.3992
11764SOL    HW236970   7.758   8.642   4.967  1.3884 -0.4170 -0.3074
11765SOL     OW36971   2.007   7.971   4.663  0.2274  0.4902 -0.0976
11765SOL    HW136972   1.914   7.969   4.638  0.4873  0.0255 -1.0314
11765SOL    HW236973   2.052   7.924   4.593  1.0642 -0.0989  0.8281
11766SOL     OW36974   7.855   4.188   0.461  0.3919  0.6499  0.1560
11766SOL    HW136975   7.787   4.146   0.515  1.0364 -1.1350 -0.3703
11766SOL    HW236976   7.823   4.277   0.447 -2.5898 -0.5774 -1.3385
11767SOL     OW36977   0.858   3.162   3.329  0.2703 -0.2914  0.1951
11767SOL    HW136978   0.771   3.160   3.290  0.7115 -0.6634 -0.7760
11767SOL    HW236979   0.854   3.097   3.399 -0.3954  0.0787  0.5066
11768SOL     OW36980   8.098   7.415   2.090 -0.1590 -0.4368  0.4183
11768SOL    HW136981   8.053   7.496   2.069  1.4467  0.3628 -0.0451
11768SOL    HW236982   8.165   7.440   2.154  2.4129 -0.7574 -2.0256
11769SOL     OW36983   4.954   3.081   3.487 -0.0393  0.3549 -0.4009
11769SOL    HW136984   4.898   3.045   3.418  0.8423 -1.5530 -0.1593
11769SOL    HW236985   4.912   3.053   3.568  0.2085  0.5829 -0.1955
11770SOL     OW36986   1.612   5.781   3.767 -0.0195 -0.0435 -0.0064
11770SOL    HW136987   1.707   5.790   3.775  0.2071 -1.9074 -0.3789
11770SOL    HW236988   1.588   5.848   3.702  0.9163  0.9267  0.6172
11771SOL     OW36989   0.934   3.715   1.309  0.0879 -0.2023 -0.3249
11771SOL    HW136990   0.882   3.659   1.251  0.8869 -0.9466 -0.3224
11771SOL    HW236991   0.994   3.762   1.251 -0.9309  1.0620 -0.3871
11772SOL     OW36992   6.070   8.942   4.117  0.2394 -0.4544  0.3176
11772SOL    HW136993   5.989   8.946   4.066 -0.9859  1.5978  2.2903
11772SOL    HW236994   6.088   8.849   4.126 -0.4611 -0.8781 -2.3319
11773SOL     OW36995   8.330   6.400   8.472 -0.2629  0.1980 -0.0003
11773SOL    HW136996   8.402   6.442   8.520  0.5120  1.4593 -2.2168
11773SOL    HW236997   8.364   6.390   8.383 -2.3949 -0.3319 -0.7677
11774SOL     OW36998   1.717   6.467   5.036  0.1269 -0.1292 -0.1373
11774SOL    HW136999   1.812   6.458   5.044  0.2303  1.1894  0.3523
11774SOL    HW237000   1.695   6.538   5.096 -1.4115 -1.6068  1.0659
11775SOL     OW37001   1.723   0.815   7.515 -0.0704  0.1999 -0.2215
11775SOL    HW137002   1.795   0.753   7.506 -0.4388 -0.2845  0.0902
11775SOL    HW237003   1.681   0.815   7.429 -0.0390  0.0484 -0.2388
11776SOL     OW37004   4.260   3.852   8.407  0.0185  1.1686 -0.0424
11776SOL    HW137005   4.348   3.835   8.374 -0.1492  2.5135 -1.2033
11776SOL    HW237006   4.268   3.841   8.502  1.3074  0.7394 -0.1902
11777SOL     OW37007   4.353   1.122   8.122  0.0482 -0.7074 -0.3478
11777SOL    HW137008   4.375   1.213   8.146  0.4287 -0.4146 -1.7635
11777SOL    HW237009   4.423   1.096   8.062 -0.5179 -1.6561 -0.5960
11778SOL     OW37010   7.264   2.730   4.726  0.3396 -0.2564 -0.6151
11778SOL    HW137011   7.311   2.791   4.669  0.4900  2.6721  2.4842
11778SOL    HW237012   7.174   2.761   4.726  0.1701 -0.7397  0.0644
11779SOL     OW37013   2.242   7.908   8.505 -0.2296 -0.0414 -0.2183
11779SOL    HW137014   2.285   7.993   8.516  0.8976 -0.4815 -1.1412
11779SOL    HW237015   2.168   7.911   8.566 -0.3835  1.7138 -0.4542
11780SOL     OW37016   2.687   6.036   0.941 -0.4640  0.1921  0.2791
11780SOL    HW137017   2.619   6.098   0.914 -0.4983  0.5048  1.0784
11780SOL    HW237018   2.754   6.091   0.982 -1.1313 -0.4316  2.2738
11781SOL     OW37019   3.646   7.200   5.567 -0.8464 -0.0480 -0.5319
11781SOL    HW137020   3.641   7.112   5.531 -1.7253  0.2391 -1.1309
11781SOL    HW237021   3.556   7.233   5.564 -0.6636  0.5598  0.4573
11782SOL     OW37022   8.413   8.444   2.291 -0.1937 -0.3515 -0.0950
11782SOL    HW137023   8.444   8.533   2.303 -1.2678 -0.0979  0.8836
11782SOL    HW237024   8.322   8.453   2.266 -0.3030 -1.1670 -0.0190
11783SOL     OW37025   0.680   3.757   5.382 -0.4730 -0.3422  0.1482
11783SOL    HW137026   0.737   3.709   5.442 -2.3302 -2.9305 -0.0335
11783SOL    HW237027   0.622   3.807   5.438 -0.1372 -0.2618  0.4246
11784SOL     OW37028   1.054   0.717   7.077  0.9531  0.8028 -0.2476
11784SOL    HW137029   1.138   0.759   7.095  0.9854  1.3883 -1.6779
11784SOL    HW237030   1.038   0.734   6.984  0.4239 -1.3813 -0.5874
11785SOL     OW37031   5.044   6.602   0.959  0.1648  0.1655  0.3671
11785SOL    HW137032   5.102   6.671   0.991 -0.6351  0.6395  0.8414
11785SOL    HW237033   4.960   6.620   1.003 -1.1080  1.1117 -2.3447
11786SOL     OW37034   0.388   9.002   2.649 -0.1024 -0.3917 -0.1458
11786SOL    HW137035   0.410   9.015   2.557  2.0341 -0.2183  0.3460
11786SOL    HW237036   0.407   9.086   2.690 -1.2406 -0.4068  0.4249
11787SOL     OW37037   5.018   4.458   5.180 -0.2934 -0.1922  0.0182
11787SOL    HW137038   5.105   4.495   5.167 -0.3129 -0.0123  0.3757
11787SOL    HW237039   4.967   4.531   5.217 -1.1577  0.3444 -2.1433
11788SOL     OW37040   3.204   7.432   3.811  0.0282  0.3620 -0.0162
11788SOL    HW137041   3.182   7.428   3.718  1.2018 -0.0654 -0.2911
11788SOL    HW237042   3.200   7.525   3.833 -0.0005  0.4931 -0.5673
11789SOL     OW37043   9.072   2.346   6.464 -0.1252  0.0282  0.1762
11789SOL    HW137044   9.018   2.425   6.471  0.7333  0.5474  0.9710
11789SOL    HW237045   9.160   2.375   6.489  0.2458 -1.1188  0.1967
11790SOL     OW37046   3.300   7.964   7.668 -0.1949  0.0759 -0.1435
11790SOL    HW137047   3.291   7.892   7.606 -1.0477 -0.5684  0.7190
11790SOL    HW237048   3.264   8.040   7.623 -1.9135 -0.6377 -0.0061
11791SOL     OW37049   0.619   4.283   6.661 -0.4131 -0.1983  0.7515
11791SOL    HW137050   0.651   4.346   6.726  0.9771 -0.0926 -0.0304
11791SOL    HW237051   0.691   4.220   6.651 -1.2094 -1.0661  0.4214
11792SOL     OW37052   5.405   1.362   3.116 -0.4575 -0.4667 -0.2823
11792SOL    HW137053   5.375   1.308   3.043 -1.3347  0.8793 -0.9360
11792SOL    HW237054   5.397   1.306   3.193  1.8440 -2.4135 -1.3816
11793SOL     OW37055   1.686   1.931   7.054 -0.0033 -0.1726  0.5100
11793SOL    HW137056   1.747   1.970   6.991 -0.7744 -1.4338 -1.0499
11793SOL    HW237057   1.718   1.842   7.066 -0.7299 -0.4045  0.7425
11794SOL     OW37058   2.141   3.375   2.724  0.3496  0.9216  0.3498
11794SOL    HW137059   2.177   3.382   2.635 -1.7327  0.4772 -0.5550
11794SOL    HW237060   2.075   3.306   2.717  0.4271  0.6288  2.3465
11795SOL     OW37061   0.191   8.766   7.050  0.1227 -0.1321 -0.1792
11795SOL    HW137062   0.285   8.778   7.040  0.2672 -2.2200 -1.6283
11795SOL    HW237063   0.158   8.853   7.072  2.2759  0.7918 -0.4651
11796SOL     OW37064   5.350   0.296   5.610  0.0618  0.4259 -0.1585
11796SOL    HW137065   5.439   0.262   5.599 -0.5541 -0.6307 -2.1675
11796SOL    HW237066   5.347   0.372   5.552 -1.1024 -1.0565 -2.0969
11797SOL     OW37067   5.642   8.022   2.229  0.2692 -0.0738  0.2749
11797SOL    HW137068   5.635   7.962   2.155  0.6993 -1.2165  1.1468
11797SOL    HW237069   5.666   8.106   2.190  1.9787 -1.0166 -0.7590
11798SOL     OW37070   1.266   7.806   5.399 -0.2263 -0.1145 -0.1282
11798SOL    HW137071   1.240   7.739   5.337  0.4436  0.6731 -1.2801
11798SOL    HW237072   1.322   7.760   5.462 -0.7542 -0.8793 -0.2224
11799SOL     OW37073   1.752   5.022   5.703  0.0708 -0.2422  0.1295
11799SOL    HW137074   1.820   4.963   5.735  0.2776 -0.3118 -0.4303
11799SOL    HW237075   1.794   5.072   5.633 -0.1170  0.5338  0.5598
11800SOL     OW37076   1.141   9.211   6.187 -0.1037  0.2508 -0.2847
11800SOL    HW137077   1.102   9.200   6.274  0.0858  2.0631  0.0468
11800SOL    HW237078   1.068   9.239   6.132 -0.1093 -0.3729 -0.6045
11801SOL     OW37079   7.753   0.042   3.950  0.5457  0.4157 -0.6729
11801SOL    HW137080   7.661   0.037   3.922  0.6450 -0.0784 -0.9276
11801SOL    HW237081   7.750   0.079   4.038 -0.0424 -1.3789  0.0718
11802SOL     OW37082   4.494   1.554   3.435 -0.0492  0.3187  0.1708
11802SOL    HW137083   4.428   1.585   3.374 -0.4502 -2.6564 -1.0070
11802SOL    HW237084   4.541   1.633   3.463 -2.2775  2.1378 -1.1065
11803SOL     OW37085   7.110   0.648   1.695  0.6613 -0.5220  0.3822
11803SOL    HW137086   7.114   0.653   1.790 -0.4120 -1.1679  0.4685
11803SOL    HW237087   7.165   0.720   1.665  1.2201 -0.4770  1.4836
11804SOL     OW37088   3.994   5.265   1.476 -0.2865  0.0008  0.7173
11804SOL    HW137089   3.959   5.177   1.466 -0.2891  0.2187 -1.4690
11804SOL    HW237090   3.932   5.321   1.429  1.4548  0.7329 -0.7552
11805SOL     OW37091   7.244   3.666   4.286 -0.2986  0.0732  0.2176
11805SOL    HW137092   7.330   3.669   4.327  0.1319  1.7701 -0.7619
11805SOL    HW237093   7.182   3.669   4.359  0.4658  1.9393  0.8271
11806SOL     OW37094   0.508   4.766   2.422  0.0565 -0.7662 -0.1044
11806SOL    HW137095   0.583   4.778   2.480 -0.2515 -1.0122  0.3456
11806SOL    HW237096   0.460   4.693   2.460 -0.3959 -0.6321 -0.4153
11807SOL     OW37097   4.156   8.165   0.846  0.6877  0.0105 -0.1389
11807SOL    HW137098   4.167   8.073   0.821  0.3139 -0.0559 -0.0676
11807SOL    HW237099   4.172   8.167   0.940 -1.2410 -0.3360  0.2353
11808SOL     OW37100   5.965   3.652   5.458  0.0945 -0.0503  0.3516
11808SOL    HW137101   5.983   3.617   5.371 -0.1542  2.0978 -0.5941
11808SOL    HW237102   5.885   3.704   5.447  0.0092  0.1528  1.8777
11809SOL     OW37103   5.543   1.519   2.803 -0.2765  0.1329  0.0572
11809SOL    HW137104   5.633   1.551   2.807 -0.5169  0.7896  0.2769
11809SOL    HW237105   5.505   1.565   2.728 -1.0632  1.5278  1.2700
11810SOL     OW37106   1.480   7.831   0.560 -0.3444 -0.0051  0.0142
11810SOL    HW137107   1.558   7.782   0.587 -0.4813 -0.9125 -1.2017
11810SOL    HW237108   1.497   7.921   0.588  0.6632 -0.4101  0.7230
11811SOL     OW37109   7.341   6.147   5.080  0.6611  0.3116  0.1738
11811SOL    HW137110   7.274   6.169   5.146  1.3341  1.8474  0.3780
11811SOL    HW237111   7.327   6.055   5.061 -0.7817  0.3280  1.0696
11812SOL     OW37112   4.925   0.980   2.195  0.2791  0.2376  1.0539
11812SOL    HW137113   4.986   0.976   2.268  0.5163  0.1854  0.8557
11812SOL    HW237114   4.969   0.932   2.124 -0.6085 -1.0466  1.3581
11813SOL     OW37115   6.249   4.491   4.387  0.7137 -0.2039 -0.1131
11813SOL    HW137116   6.221   4.464   4.475  0.5543  0.9195  0.1855
11813SOL    HW237117   6.339   4.523   4.399  0.2980  1.0008 -0.1527
11814SOL     OW37118   1.362   7.272   9.026  1.2340 -0.2074  0.1745
11814SOL    HW137119   1.426   7.242   8.961  1.3011 -2.7035  1.3075
11814SOL    HW237120   1.282   7.288   8.977  2.5617  2.5107 -1.1990
11815SOL     OW37121   3.603   1.559   5.696  0.0692 -0.2827 -0.0288
11815SOL    HW137122   3.607   1.549   5.601 -0.3777  0.3980 -0.1255
11815SOL    HW237123   3.694   1.560   5.724  0.2455 -5.3888  0.1230
11816SOL     OW37124   1.765   8.833   5.571  1.1312  0.7577  0.1957
11816SOL    HW137125   1.775   8.924   5.544 -0.7101  0.8453 -0.2938
11816SOL    HW237126   1.768   8.835   5.666  0.2558  1.4617  0.2178
11817SOL     OW37127   4.173   8.714   8.824  0.3253  0.1971 -0.4739
11817SOL    HW137128   4.208   8.710   8.913  0.6611  1.2552 -0.5577
11817SOL    HW237129   4.137   8.626   8.809  2.5791 -0.7895 -0.2629
11818SOL     OW37130   2.691   8.257   3.569  0.1415 -0.7109  0.2366
11818SOL    HW137131   2.737   8.315   3.508  0.1073  0.2526  1.1066
11818SOL    HW237132   2.700   8.300   3.655 -2.0880 -0.6536  0.4813
11819SOL     OW37133   2.741   1.385   4.574 -0.3339 -0.2888  0.4759
11819SOL    HW137134   2.741   1.462   4.631 -0.8827  0.5053 -0.5720
11819SOL    HW237135   2.656   1.388   4.530  0.0634 -0.8974 -0.3571
11820SOL     OW37136   4.025   3.002   6.847  0.4440  0.2121 -0.5237
11820SOL    HW137137   4.040   3.085   6.892  0.4627 -0.5921  1.0132
11820SOL    HW237138   3.932   3.003   6.824  0.7579  1.2528 -1.7940
11821SOL     OW37139   3.959   5.997   3.979 -0.1648 -0.6565  0.0486
11821SOL    HW137140   3.883   5.940   3.966  0.4787 -1.3050 -0.9136
11821SOL    HW237141   3.997   5.969   4.062  0.2530 -1.7702 -0.5097
11822SOL     OW37142   9.078   5.333   9.020 -0.0377 -0.2502 -0.2541
11822SOL    HW137143   8.995   5.378   9.002  0.8567  1.0684 -1.1140
11822SOL    HW237144   9.052   5.253   9.065 -1.6826  0.8947  0.8857
11823SOL     OW37145   1.238   7.386   8.341  0.1902 -0.2941  0.4568
11823SOL    HW137146   1.169   7.363   8.403  0.4726 -2.3114  0.0610
11823SOL    HW237147   1.319   7.368   8.388  0.4347 -0.0280  0.1452
11824SOL     OW37148   0.687   6.299   3.390 -0.8194 -0.2162  0.4910
11824SOL    HW137149   0.650   6.334   3.472  0.7480 -0.1033  1.1617
11824SOL    HW237150   0.684   6.373   3.329  0.5964  0.5097  1.2939
11825SOL     OW37151   5.827   0.600   7.978 -0.1807  0.0568  0.1633
11825SOL    HW137152   5.842   0.691   7.951  0.8670 -0.3290 -0.5929
11825SOL    HW237153   5.789   0.607   8.065 -3.1094  1.3249 -1.1455
11826SOL     OW37154   0.161   6.720   0.112  0.4409 -0.1502 -0.8319
11826SOL    HW137155   0.170   6.665   0.035 -0.3302 -2.2550  0.5510
11826SOL    HW237156   0.122   6.663   0.178  0.9226  1.6652  1.0686
11827SOL     OW37157   2.359   1.381   1.547 -0.1136 -0.3186 -0.3740
11827SOL    HW137158   2.441   1.424   1.572  0.2489 -0.8950 -0.5667
11827SOL    HW237159   2.323   1.436   1.477  0.3318 -0.3119 -0.5996
11828SOL     OW37160   6.549   5.383   5.330 -0.1301 -0.7120  0.0921
11828SOL    HW137161   6.619   5.379   5.396 -0.2502  0.0033  0.2698
11828SOL    HW237162   6.484   5.320   5.361  0.6513 -1.7526 -0.3353
11829SOL     OW37163   0.517   0.745   5.867  0.2920 -0.6239  0.1551
11829SOL    HW137164   0.565   0.688   5.807 -1.2675 -2.9380  1.0241
11829SOL    HW237165   0.542   0.715   5.955  1.1709  1.5461  0.6827
11830SOL     OW37166   0.250   6.143   8.666  0.0706 -0.3138 -0.5072
11830SOL    HW137167   0.323   6.086   8.645  0.8221 -0.4776  2.2739
11830SOL    HW237168   0.191   6.088   8.718  0.0836  0.9672  0.9119
11831SOL     OW37169   8.450   3.462   6.482 -0.3632  0.5107 -0.0456
11831SOL    HW137170   8.374   3.502   6.524 -0.8611 -1.1966  0.7191
11831SOL    HW237171   8.423   3.449   6.391 -2.2781 -3.0740  0.9165
11832SOL     OW37172   1.417   6.825   7.440  0.5436  0.1902  0.6669
11832SOL    HW137173   1.501   6.847   7.400 -1.3373  1.5053 -2.7560
11832SOL    HW237174   1.380   6.756   7.385 -1.2336  0.6045  1.2827
11833SOL     OW37175   1.881   8.023   5.420  0.0296  0.3779  0.4995
11833SOL    HW137176   1.944   8.046   5.488 -1.3144 -0.4774  2.0600
11833SOL    HW237177   1.795   8.036   5.461 -0.7942 -0.7702 -0.8035
11834SOL     OW37178   2.649   2.592   7.306  0.1696  0.4350 -0.0334
11834SOL    HW137179   2.584   2.550   7.249  0.8418 -1.2063  0.3999
11834SOL    HW237180   2.602   2.606   7.388 -0.3116  1.3482 -0.4467
11835SOL     OW37181   7.765   3.249   1.169  0.3084 -0.0960 -0.0167
11835SOL    HW137182   7.752   3.342   1.151 -1.0950 -0.5102 -1.2261
11835SOL    HW237183   7.687   3.206   1.133  0.8387 -1.7175  0.7124
11836SOL     OW37184   0.078   5.221   4.691 -0.3643 -0.8459 -0.1920
11836SOL    HW137185   0.083   5.181   4.778 -0.3583  0.2295  0.3040
11836SOL    HW237186  -0.014   5.248   4.682 -1.0031 -3.3349 -1.5971
11837SOL     OW37187   0.352   9.225   0.876 -0.0771  0.6693 -0.3643
11837SOL    HW137188   0.285   9.258   0.816 -2.3838 -2.6202  0.2550
11837SOL    HW237189   0.303   9.178   0.943  2.7419  0.2231  1.4660
11838SOL     OW37190   3.368   6.685   2.709 -0.6742  0.4081 -0.1844
11838SOL    HW137191   3.320   6.723   2.782 -1.2443 -0.0043 -0.3379
11838SOL    HW237192   3.372   6.754   2.644  1.0553  1.2473  0.7720
11839SOL     OW37193   0.555   8.900   6.005  0.0344  0.1768 -0.2379
11839SOL    HW137194   0.587   8.817   6.042  0.6017  0.4093 -0.2030
11839SOL    HW237195   0.511   8.943   6.078 -0.0318  0.0205 -0.1866
11840SOL     OW37196   0.732   8.690   0.932 -0.0602  0.0774 -0.0786
11840SOL    HW137197   0.757   8.660   0.844 -0.3459 -1.2627  0.2923
11840SOL    HW237198   0.663   8.629   0.959 -1.6697  1.9305  0.1175
11841SOL     OW37199   0.229   2.582   4.905  0.1378  0.5747  0.2727
11841SOL    HW137200   0.174   2.659   4.893 -0.4965 -0.1131 -1.3984
11841SOL    HW237201   0.316   2.618   4.922 -0.1260  1.6725 -0.5780
11842SOL     OW37202   1.936   2.867   4.130  0.6233 -0.5316  0.0236
11842SOL    HW137203   2.000   2.931   4.162  2.1792 -2.1540  0.2081
11842SOL    HW237204   1.854   2.893   4.172  1.5804  0.4024  1.3653
11843SOL     OW37205   8.667   6.292   6.058  0.1066  0.1321 -0.1104
11843SOL    HW137206   8.582   6.325   6.029 -0.4789 -1.4506 -0.2878
11843SOL    HW237207   8.699   6.241   5.983  0.5769 -0.4075  0.4561
11844SOL     OW37208   2.539   7.738   0.331  0.1602  0.4689  0.6071
11844SOL    HW137209   2.583   7.787   0.261 -0.6497  1.1949  0.6012
11844SOL    HW237210   2.594   7.660   0.344 -0.4359 -0.4363 -1.8699
11845SOL     OW37211   1.252   1.631   0.971 -0.0766 -0.1406 -0.4046
11845SOL    HW137212   1.227   1.641   0.879 -0.3537  1.7376 -0.1521
11845SOL    HW237213   1.186   1.681   1.019  1.2391  0.5995  0.6588
11846SOL     OW37214   7.751   7.746   3.471  0.6094  0.1414 -0.0832
11846SOL    HW137215   7.684   7.761   3.538 -0.9710 -1.2168 -1.3096
11846SOL    HW237216   7.827   7.794   3.502  0.1079 -0.9409  2.9821
11847SOL     OW37217   5.988   5.249   6.493  0.2331  0.8043 -0.0009
11847SOL    HW137218   6.025   5.199   6.566 -0.1385  0.2906 -0.1636
11847SOL    HW237219   6.020   5.204   6.415 -0.3633  0.6311 -0.1451
11848SOL     OW37220   5.336   8.468   7.905 -0.3091 -0.2516  0.5805
11848SOL    HW137221   5.269   8.416   7.951  0.7502 -0.5733  1.7737
11848SOL    HW237222   5.380   8.517   7.974 -1.3399  2.3458 -0.5237
11849SOL     OW37223   5.711   1.032   4.844  0.3590 -0.3711 -0.2925
11849SOL    HW137224   5.631   1.040   4.896 -0.0487 -0.6977 -0.8579
11849SOL    HW237225   5.687   1.069   4.758  2.0336  3.4525  0.7806
11850SOL     OW37226   1.262   8.328   6.465 -0.0167  0.4031 -0.0962
11850SOL    HW137227   1.218   8.258   6.513  1.5911 -0.2939  0.3659
11850SOL    HW237228   1.308   8.284   6.394 -0.1687  1.1550 -0.6771
11851SOL     OW37229   0.690   3.446   3.455 -0.3182 -0.3130  0.1635
11851SOL    HW137230   0.654   3.399   3.380 -0.2582 -1.5966  0.9328
11851SOL    HW237231   0.662   3.396   3.531  0.7994  0.1898  0.9227
11852SOL     OW37232   6.407   4.160   0.740  0.5300  0.5539 -0.9477
11852SOL    HW137233   6.398   4.065   0.737  0.7719  0.4883  0.4424
11852SOL    HW237234   6.318   4.193   0.734  0.3124  0.1995  0.3879
11853SOL     OW37235   7.238   5.865   1.728 -0.1787 -0.2641  0.0887
11853SOL    HW137236   7.163   5.876   1.786 -0.1102 -0.1039  0.1461
11853SOL    HW237237   7.202   5.823   1.649  0.0831 -2.4395  1.0812
11854SOL     OW37238   8.168   6.055   2.206 -0.0626 -0.4081 -0.8318
11854SOL    HW137239   8.198   5.972   2.242  0.4997 -0.2846 -1.0026
11854SOL    HW237240   8.234   6.077   2.140  1.0845  1.3219  0.8430
11855SOL     OW37241   8.154   8.695   9.023  0.4793  0.0068  0.4195
11855SOL    HW137242   8.205   8.766   8.984  0.8759  0.1334  1.1786
11855SOL    HW237243   8.220   8.631   9.051  0.0885 -1.1075 -1.1227
11856SOL     OW37244   0.252   2.267   0.621 -0.2761 -0.5166  0.3882
11856SOL    HW137245   0.310   2.288   0.547 -1.6796  2.1853  0.0019
11856SOL    HW237246   0.283   2.182   0.652  2.8797  0.1287 -0.8118
11857SOL     OW37247   2.648   4.899   6.268  0.0780  0.1869  0.2343
11857SOL    HW137248   2.718   4.866   6.211 -0.0984  0.1942  0.0146
11857SOL    HW237249   2.590   4.947   6.209  1.1058  2.1367  0.7557
11858SOL     OW37250   2.611   4.117   8.026 -0.2692 -0.7785 -0.4427
11858SOL    HW137251   2.587   4.045   7.968  0.8359 -0.0246 -1.8468
11858SOL    HW237252   2.534   4.174   8.026 -0.1106 -0.5591 -1.5223
11859SOL     OW37253   0.523   0.842   0.999  0.0041 -0.4643  0.3488
11859SOL    HW137254   0.530   0.846   1.095 -0.8026  0.8774  0.3739
11859SOL    HW237255   0.543   0.751   0.977 -0.0682 -0.8531  1.8216
11860SOL     OW37256   0.988   5.833   5.168 -0.6201  0.1306 -0.2687
11860SOL    HW137257   0.973   5.927   5.157  0.5428  0.0908 -2.5262
11860SOL    HW237258   1.010   5.802   5.080 -0.0272 -2.0763  0.6261
11861SOL     OW37259   5.855   7.466   2.079  0.3761  0.1747 -0.6820
11861SOL    HW137260   5.941   7.499   2.054  0.2596  1.9532  1.1634
11861SOL    HW237261   5.864   7.443   2.172 -1.1705  0.5251 -0.4368
11862SOL     OW37262   1.953   6.904   9.029  0.4813  0.1257  0.4618
11862SOL    HW137263   1.968   6.986   9.075 -1.0427  0.5453  0.2410
11862SOL    HW237264   1.896   6.854   9.087 -0.4136  0.1392 -0.3932
11863SOL     OW37265   3.593   7.462   1.732  0.3737 -0.5723  0.8077
11863SOL    HW137266   3.651   7.492   1.662  1.6858 -0.2510  2.0326
11863SOL    HW237267   3.505   7.488   1.702  0.8128 -1.1247 -1.0756
11864SOL     OW37268   3.445   3.571   7.687  0.0024  0.0849  0.3139
11864SOL    HW137269   3.417   3.604   7.773 -0.6983  0.6187 -0.1212
11864SOL    HW237270   3.458   3.650   7.634 -1.9066 -0.3435 -0.8046
11865SOL     OW37271   6.012   5.136   6.920 -0.2199  0.2792  0.1002
11865SOL    HW137272   6.105   5.157   6.930  0.1086 -1.6006  1.2810
11865SOL    HW237273   5.966   5.213   6.952  0.9470  0.0520  2.4169
11866SOL     OW37274   6.707   8.166   1.129 -0.4798 -0.4823  0.5146
11866SOL    HW137275   6.617   8.183   1.155 -0.9342  0.2974 -1.5106
11866SOL    HW237276   6.708   8.073   1.107 -1.3427 -0.0325 -1.5319
11867SOL     OW37277   3.920   9.170   5.307 -0.1621  0.3303  0.0361
11867SOL    HW137278   3.832   9.180   5.271 -1.1429 -3.2782  1.2767
11867SOL    HW237279   3.907   9.160   5.401  1.7961  1.9351  0.5164
11868SOL     OW37280   4.472   4.567   6.037  0.4592 -0.2447  0.2727
11868SOL    HW137281   4.542   4.560   5.972  0.5476  1.7802  0.1369
11868SOL    HW237282   4.392   4.549   5.987  0.6530 -0.0745 -0.1070
11869SOL     OW37283   3.046   4.698   5.175  0.3873  0.2370 -0.1279
11869SOL    HW137284   2.979   4.762   5.197 -0.6800 -0.2544 -1.8909
11869SOL    HW237285   3.041   4.690   5.080  2.9182  0.1575 -0.2821
11870SOL     OW37286   8.825   6.394   3.714 -0.5031 -0.5181  0.6541
11870SOL    HW137287   8.875   6.455   3.660 -1.3618 -1.1032 -0.8308
11870SOL    HW237288   8.882   6.375   3.788  1.0036 -0.2768 -0.4220
11871SOL     OW37289   1.889   2.902   5.597  0.0505 -0.3399  0.2706
11871SOL    HW137290   1.978   2.872   5.612  0.8923  1.9092 -0.0351
11871SOL    HW237291   1.899   2.990   5.561 -2.2608 -0.5871 -1.0771
11872SOL     OW37292   0.094   2.801   1.652  0.2221 -0.1970 -0.3682
11872SOL    HW137293   0.053   2.750   1.722  0.5137  0.0290 -0.0290
11872SOL    HW237294   0.188   2.787   1.665  0.2986  0.3129 -0.3539
11873SOL     OW37295   2.858   2.314   3.506 -0.3544  0.2548  0.0726
11873SOL    HW137296   2.800   2.384   3.535  0.7058  2.1090 -2.0686
11873SOL    HW237297   2.874   2.334   3.413  1.2400 -1.9466 -0.1581
11874SOL     OW37298   7.641   4.025   7.227 -0.0247  0.0430  0.3481
11874SOL    HW137299   7.551   4.057   7.238  0.0591  0.0919  0.9004
11874SOL    HW237300   7.636   3.932   7.249  0.3080  0.3218  1.6327
11875SOL     OW37301   0.093   8.828   4.912 -0.3131  0.3015  0.2933
11875SOL    HW137302   0.183   8.849   4.888 -0.1459  0.2417  0.8590
11875SOL    HW237303   0.039   8.885   4.856  0.0559 -0.0245 -0.4063
11876SOL     OW37304   0.678   8.124   6.823  0.4717  0.2216  0.1978
11876SOL    HW137305   0.714   8.103   6.736  1.4285 -0.2630  0.6976
11876SOL    HW237306   0.752   8.164   6.870 -0.0737  0.5933  0.7508
11877SOL     OW37307   8.509   2.154   7.170 -0.2665  0.0825 -0.3325
11877SOL    HW137308   8.494   2.122   7.259  0.0088  0.4036 -0.1674
11877SOL    HW237309   8.421   2.162   7.132 -0.3834 -0.0539 -0.0927
11878SOL     OW37310   4.158   4.735   4.545 -0.4051  0.1801 -0.0364
11878SOL    HW137311   4.233   4.769   4.496 -0.9055 -0.9024 -1.5828
11878SOL    HW237312   4.190   4.727   4.635  0.8926  1.0637 -0.3978
11879SOL     OW37313   5.275   5.243   1.872 -0.8304  0.5343 -0.7841
11879SOL    HW137314   5.197   5.291   1.901  0.0170  0.8531  1.0503
11879SOL    HW237315   5.344   5.310   1.869  1.2157 -1.0342  5.1509
11880SOL     OW37316   0.914   8.875   7.480 -0.4245 -0.1323  0.3864
11880SOL    HW137317   0.838   8.847   7.429 -0.8332 -0.5746  1.2182
11880SOL    HW237318   0.931   8.965   7.451  1.2796 -1.4041 -2.7516
11881SOL     OW37319   3.200   2.788   6.951  0.0869  0.0342  0.7808
11881SOL    HW137320   3.224   2.853   7.017 -0.1705  0.7372  0.1790
11881SOL    HW237321   3.190   2.837   6.870  0.9842 -0.9198  0.0826
11882SOL     OW37322   3.798   2.978   2.287  0.0186  0.1707 -0.1348
11882SOL    HW137323   3.785   2.948   2.197 -0.5652 -2.6667  0.8445
11882SOL    HW237324   3.854   2.911   2.327  1.2267  1.9816  1.3013
11883SOL     OW37325   7.290   0.881   4.374  0.5838  0.6357  0.3774
11883SOL    HW137326   7.234   0.923   4.439  0.5203  0.5404  0.3854
11883SOL    HW237327   7.250   0.902   4.290  0.6707  0.7664  0.3685
11884SOL     OW37328   1.295   5.760   3.796 -0.0664  0.1862  0.0473
11884SOL    HW137329   1.311   5.836   3.852  0.2819  0.0386  0.1472
11884SOL    HW237330   1.377   5.711   3.797 -0.8026 -1.0811  1.3537
11885SOL     OW37331   6.745   7.738   8.618 -0.0893 -0.2176 -0.3093
11885SOL    HW137332   6.722   7.772   8.704 -1.9971  1.1395 -1.3362
11885SOL    HW237333   6.680   7.670   8.600 -0.8179  0.7450 -1.4245
11886SOL     OW37334   6.343   0.282   0.670  0.2703 -0.5198  0.0709
11886SOL    HW137335   6.313   0.330   0.593  2.7378 -0.7508 -1.0877
11886SOL    HW237336   6.435   0.264   0.653  0.3898 -2.2517  2.2449
11887SOL     OW37337   8.118   5.808   6.226  0.3037 -0.1920 -0.2776
11887SOL    HW137338   8.111   5.716   6.252  1.0853 -0.1946 -0.0561
11887SOL    HW237339   8.213   5.824   6.221  0.2257  1.2642  2.0951
11888SOL     OW37340   4.742   6.130   2.799  0.9881 -0.0370  0.6586
11888SOL    HW137341   4.671   6.123   2.862 -0.2891 -1.4096 -0.8793
11888SOL    HW237342   4.822   6.130   2.852 -0.0665 -0.7591  2.2849
11889SOL     OW37343   4.891   2.360   8.165  0.4378 -0.3846  0.1130
11889SOL    HW137344   4.835   2.288   8.134  0.4373 -0.8569  1.1849
11889SOL    HW237345   4.888   2.425   8.095  0.3762 -1.3988 -0.8426
11890SOL     OW37346   7.686   8.416   5.975  1.0396  0.5432 -0.2709
11890SOL    HW137347   7.753   8.352   6.001 -0.2612 -0.4269  0.7798
11890SOL    HW237348   7.662   8.390   5.886 -0.6145 -1.4533  0.7102
11891SOL     OW37349   0.548   1.214   8.269  0.4962  0.1193  0.5701
11891SOL    HW137350   0.559   1.125   8.300 -0.9022 -0.3520 -0.2645
11891SOL    HW237351   0.637   1.244   8.248  0.8373 -1.5130 -0.3499
11892SOL     OW37352   8.526   3.843   2.053  0.2560  0.0188 -0.8218
11892SOL    HW137353   8.590   3.905   2.016  0.4350 -0.8351 -1.9573
11892SOL    HW237354   8.511   3.780   1.984 -1.9643  0.2947 -0.6335
11893SOL     OW37355   4.827   8.009   3.984  0.1221 -0.3221 -0.1601
11893SOL    HW137356   4.747   7.960   4.007  0.6545 -1.6271 -1.0304
11893SOL    HW237357   4.899   7.951   4.009  0.7731  0.0674 -1.1094
11894SOL     OW37358   0.515   6.668   5.682 -0.3529  0.2743  0.3445
11894SOL    HW137359   0.519   6.581   5.641  0.0659 -1.1372  3.2701
11894SOL    HW237360   0.604   6.702   5.675  0.3501 -1.0564  2.2693
11895SOL     OW37361   8.873   5.438   4.741  0.1493 -0.6940  0.1087
11895SOL    HW137362   8.826   5.478   4.815  0.6451 -1.9922  1.1565
11895SOL    HW237363   8.804   5.412   4.680 -0.2490  0.6176 -0.0083
11896SOL     OW37364   8.328   7.740   0.355 -0.0974  0.4697 -0.0705
11896SOL    HW137365   8.360   7.650   0.363  0.2401  0.4373 -1.6805
11896SOL    HW237366   8.249   7.742   0.410  1.9998  0.2758  3.0989
11897SOL     OW37367   3.833   8.280   0.251 -0.0138  0.3113  0.4338
11897SOL    HW137368   3.793   8.213   0.195 -1.5933  0.4228  1.3727
11897SOL    HW237369   3.779   8.358   0.237  0.1820  0.6198  1.3618
11898SOL     OW37370   9.084   4.333   1.449 -0.1463 -0.2149  0.3717
11898SOL    HW137371   9.028   4.328   1.371 -1.3654 -0.5751  1.2399
11898SOL    HW237372   9.043   4.400   1.504  0.7590  0.1109  0.6451
11899SOL     OW37373   7.165   7.048   5.095  0.2039 -0.2934 -0.0250
11899SOL    HW137374   7.183   7.141   5.103 -0.0714 -0.3784  1.9563
11899SOL    HW237375   7.193   7.011   5.179 -1.3974 -1.6819 -0.0708
11900SOL     OW37376   0.177   1.937   0.390  0.3367 -0.3387 -0.7034
11900SOL    HW137377   0.182   1.850   0.429 -0.2704  0.0000  0.1635
11900SOL    HW237378   0.093   1.937   0.343 -0.4909  0.3302  0.7247
11901SOL     OW37379   2.441   8.441   0.147 -0.1319  0.3720  0.0007
11901SOL    HW137380   2.419   8.453   0.055 -1.4574  0.6034  0.3334
11901SOL    HW237381   2.428   8.528   0.186  1.1893  0.4640  0.2552
11902SOL     OW37382   3.055   4.498   1.353 -0.7435 -0.3860  0.5590
11902SOL    HW137383   3.020   4.464   1.271 -0.9718 -0.9847  0.9087
11902SOL    HW237384   3.146   4.520   1.332 -0.4592 -1.6310  0.4508
11903SOL     OW37385   7.556   3.773   8.727  0.3983 -0.1592  0.3852
11903SOL    HW137386   7.628   3.723   8.687 -0.4499  1.0971 -2.9512
11903SOL    HW237387   7.498   3.707   8.764  0.3509 -1.5842 -2.0957
11904SOL     OW37388   7.651   3.776   6.834 -0.1255 -0.3244 -0.5011
11904SOL    HW137389   7.672   3.731   6.916 -0.8612 -0.3472 -0.3243
11904SOL    HW237390   7.682   3.866   6.848 -0.8369 -0.1647  0.0419
11905SOL     OW37391   5.125   7.019   5.511 -0.2357  0.2327 -0.5142
11905SOL    HW137392   5.066   6.944   5.500  2.9115 -2.2320 -1.3574
11905SOL    HW237393   5.142   7.049   5.421  0.7160  0.1146 -0.3853
11906SOL     OW37394   1.077   8.240   6.128  0.3013 -0.0913 -0.8905
11906SOL    HW137395   1.170   8.260   6.135  0.3212  0.0072 -1.4125
11906SOL    HW237396   1.036   8.298   6.192  0.6837 -0.7877 -0.0167
11907SOL     OW37397   4.455   6.913   1.383 -0.1038  0.0691  0.3627
11907SOL    HW137398   4.379   6.874   1.426 -0.5991 -0.3009 -0.8538
11907SOL    HW237399   4.432   6.917   1.290  1.7754 -1.0506 -0.1740
11908SOL     OW37400   3.354   7.833   4.426 -0.0627  0.2060 -0.0245
11908SOL    HW137401   3.266   7.836   4.464 -0.9096 -0.4914 -1.8996
11908SOL    HW237402   3.392   7.752   4.460 -0.5264 -0.0313 -0.0745
11909SOL     OW37403   3.253   4.057   2.077  0.1507 -0.0393 -1.0004
11909SOL    HW137404   3.226   3.969   2.101  1.0530  0.2474  1.1880
11909SOL    HW237405   3.210   4.114   2.142  1.1460  0.9479 -1.1941
11910SOL     OW37406   0.532   6.240   7.792  0.0797  0.2127 -0.2073
11910SOL    HW137407   0.466   6.196   7.845 -0.9199  1.8610 -0.0253
11910SOL    HW237408   0.515   6.211   7.703 -0.5096  0.1498 -0.0774
11911SOL     OW37409   5.694   8.986   3.630 -0.1791 -0.1719 -0.0321
11911SOL    HW137410   5.736   8.947   3.553 -1.0348  3.0500 -2.2637
11911SOL    HW237411   5.766   9.030   3.676  0.1420 -1.1224  0.3842
11912SOL     OW37412   0.162   3.831   4.465  0.5668  0.9579  0.2270
11912SOL    HW137413   0.115   3.772   4.525  0.5128  0.7621 -0.0058
11912SOL    HW237414   0.096   3.895   4.438  0.4830  0.8052  0.0623
11913SOL     OW37415   0.718   5.323   8.728  0.4917 -0.4526 -0.0469
11913SOL    HW137416   0.707   5.328   8.823 -0.3791 -0.6849 -0.1340
11913SOL    HW237417   0.702   5.413   8.698  2.0110 -0.0990  0.1445
11914SOL     OW37418   2.415   7.137   6.986  0.1485  0.2411  0.2688
11914SOL    HW137419   2.457   7.071   6.930  0.4153  0.1512  0.5692
11914SOL    HW237420   2.345   7.089   7.030  0.1365  0.2350  0.2428
11915SOL     OW37421   4.508   2.126   7.589 -0.2527  0.5010 -0.2477
11915SOL    HW137422   4.580   2.189   7.589  0.5058 -0.3456  0.2380
11915SOL    HW237423   4.495   2.104   7.681  0.7329 -1.4269 -0.5464
11916SOL     OW37424   6.682   4.150   7.226 -0.0588 -0.0510 -0.3800
11916SOL    HW137425   6.744   4.222   7.218  0.4753 -0.4074  0.4606
11916SOL    HW237426   6.679   4.130   7.320 -1.9720  0.4112 -0.3183
11917SOL     OW37427   3.256   6.366   9.009 -0.0104 -0.0110  0.1110
11917SOL    HW137428   3.204   6.290   8.984 -0.2153  0.4685 -0.9247
11917SOL    HW237429   3.203   6.411   9.075 -0.1521 -0.4379  0.2869
11918SOL     OW37430   3.292   5.993   8.322  0.1789  0.1679 -0.7835
11918SOL    HW137431   3.284   6.082   8.287 -0.9568  0.7620  0.9283
11918SOL    HW237432   3.280   5.936   8.246 -0.6749  1.4532 -1.6304
11919SOL     OW37433   5.794   4.811   0.568  0.1523  0.3202  0.2879
11919SOL    HW137434   5.810   4.894   0.523  0.9305 -0.0231 -0.0685
11919SOL    HW237435   5.829   4.825   0.656 -1.7217  1.1269  0.9323
11920SOL     OW37436   7.207   8.177   1.350 -0.6984  0.5981 -0.1674
11920SOL    HW137437   7.119   8.184   1.314 -0.4608  3.3159 -0.3102
11920SOL    HW237438   7.212   8.247   1.416  1.8004  1.4367 -1.1708
11921SOL     OW37439   4.120   0.578   1.696 -0.8128 -0.0526  0.2683
11921SOL    HW137440   4.102   0.620   1.779 -0.0665 -1.0508  0.9446
11921SOL    HW237441   4.051   0.512   1.687 -1.6430  0.9053 -0.5171
11922SOL     OW37442   0.039   4.352   8.001 -0.0976  0.1350 -0.5845
11922SOL    HW137443  -0.054   4.354   7.981 -0.7425 -1.3865  2.0203
11922SOL    HW237444   0.067   4.263   7.978  0.3028  0.0342  0.2668
11923SOL     OW37445   2.750   6.006   8.192  0.1819 -0.6506  0.2300
11923SOL    HW137446   2.726   5.926   8.145  1.5411 -1.2987  0.6255
11923SOL    HW237447   2.785   6.065   8.126  0.9418 -1.0979  0.2326
11924SOL     OW37448   6.043   2.616   0.067 -0.1893  0.6449 -0.2345
11924SOL    HW137449   5.958   2.658   0.055 -0.2774  0.8102  0.8547
11924SOL    HW237450   6.105   2.689   0.076 -0.2959  0.5720  1.3331
11925SOL     OW37451   7.470   7.807   9.290  0.5910  0.3042  0.0311
11925SOL    HW137452   7.537   7.738   9.289  2.0448  1.6520 -2.1051
11925SOL    HW237453   7.401   7.774   9.233 -0.5201 -1.0320  2.1238
11926SOL     OW37454   1.578   1.588   0.151 -0.0558 -0.4478 -0.2947
11926SOL    HW137455   1.502   1.560   0.101 -1.8203  1.5801  1.1588
11926SOL    HW237456   1.599   1.674   0.117 -0.7599  0.5977  1.8238
11927SOL     OW37457   4.423   0.303   3.090 -0.1707 -0.8062 -0.7011
11927SOL    HW137458   4.375   0.381   3.061 -0.6795 -0.6843  0.4338
11927SOL    HW237459   4.424   0.245   3.014 -2.4571 -0.9671 -0.6390
11928SOL     OW37460   5.179   2.732   8.025 -0.5361  0.0742 -0.2219
11928SOL    HW137461   5.198   2.746   7.932  1.4163  0.3774  0.1995
11928SOL    HW237462   5.220   2.648   8.045  1.8880  1.5002  1.0957
11929SOL     OW37463   6.950   1.314   3.662  0.1056  0.1317 -0.2996
11929SOL    HW137464   7.036   1.313   3.619 -0.1380 -0.9168 -0.7975
11929SOL    HW237465   6.951   1.236   3.718  0.1475  1.1012  1.0744
11930SOL     OW37466   2.583   0.333   2.522 -0.6263  0.1882  0.3481
11930SOL    HW137467   2.634   0.413   2.506  1.2355 -0.6719  1.8686
11930SOL    HW237468   2.578   0.327   2.617 -2.2466 -0.5907  0.2118
11931SOL     OW37469   5.480   6.748   8.472 -0.3674 -0.3486  0.1194
11931SOL    HW137470   5.483   6.771   8.565 -0.4835  1.2944 -0.2666
11931SOL    HW237471   5.391   6.771   8.445  0.5346  1.8361 -1.0488
11932SOL     OW37472   3.052   8.807   1.660  0.4864  0.3603  0.3003
11932SOL    HW137473   2.979   8.860   1.690 -0.2001  0.6138 -1.7350
11932SOL    HW237474   3.128   8.865   1.668  0.1866  0.6956  0.7522
11933SOL     OW37475   3.131   0.157   3.213 -0.7315 -0.1321 -0.2052
11933SOL    HW137476   3.210   0.211   3.209  0.2343 -1.3500  1.6657
11933SOL    HW237477   3.083   0.190   3.289 -2.8846  1.6734 -2.2581
11934SOL     OW37478   6.930   2.366   6.891 -0.0912 -0.3163 -0.8232
11934SOL    HW137479   6.872   2.297   6.925 -0.1086  0.3404  0.4919
11934SOL    HW237480   6.885   2.398   6.813 -1.7004  0.4436  0.3982
11935SOL     OW37481   4.455   7.417   6.490  0.2662 -0.6737  0.0436
11935SOL    HW137482   4.448   7.492   6.431 -0.2808 -1.5284 -1.0056
11935SOL    HW237483   4.371   7.414   6.536  0.1257 -0.8922 -0.2252
11936SOL     OW37484   8.556   2.925   3.931  0.4590  0.8225  0.1015
11936SOL    HW137485   8.579   2.941   4.022 -1.3182  1.7204  0.4014
11936SOL    HW237486   8.489   2.858   3.934 -2.1889  3.3537 -0.2777
11937SOL     OW37487   4.600   9.025   6.877 -0.1382  0.2206  0.1062
11937SOL    HW137488   4.509   9.054   6.885 -0.0719  0.0940  1.4205
11937SOL    HW237489   4.597   8.932   6.898  0.5892  0.6462  2.1717
11938SOL     OW37490   0.811   9.043   5.975  0.1814 -0.5722  0.7402
11938SOL    HW137491   0.755   9.121   5.971 -0.1971 -0.8468  0.5562
11938SOL    HW237492   0.749   8.970   5.975  0.3848 -0.8371  4.1391
11939SOL     OW37493   5.899   3.802   3.951 -0.4094 -0.7256  0.4998
11939SOL    HW137494   5.820   3.790   4.003 -0.4629 -0.0339  0.5925
11939SOL    HW237495   5.970   3.805   4.015 -0.3588 -0.9068  0.4519
11940SOL     OW37496   8.047   0.280   6.657 -0.3334 -0.2339 -0.3151
11940SOL    HW137497   8.020   0.249   6.743  0.6461 -0.5972 -0.1310
11940SOL    HW237498   8.119   0.222   6.633 -0.2765  0.1865 -1.1612
11941SOL     OW37499   1.744   4.460   8.613  0.2025 -0.0779  0.5936
11941SOL    HW137500   1.801   4.475   8.538 -3.3056 -0.8791 -2.3943
11941SOL    HW237501   1.789   4.394   8.666  1.5624 -1.4329 -2.1919
11942SOL     OW37502   6.015   0.205   8.632  0.1650 -0.3360 -0.1418
11942SOL    HW137503   6.017   0.268   8.704  0.5532 -0.5241  0.0122
11942SOL    HW237504   5.981   0.125   8.671 -0.4188 -0.2009 -0.3609
11943SOL     OW37505   8.473   1.170   4.427 -0.0576  0.2136  0.0476
11943SOL    HW137506   8.517   1.254   4.437 -1.2171  0.7662  0.6072
11943SOL    HW237507   8.418   1.180   4.348 -1.8695  0.7556  1.3363
11944SOL     OW37508   7.281   1.457   5.689  0.0447  0.2817 -0.0585
11944SOL    HW137509   7.283   1.547   5.723  0.8175  0.0170  0.6094
11944SOL    HW237510   7.258   1.467   5.596 -0.2338  1.1399  0.0972
11945SOL     OW37511   7.485   0.395   3.358 -0.7246 -0.5441 -0.7386
11945SOL    HW137512   7.520   0.309   3.334  0.0412 -0.7719  1.1177
11945SOL    HW237513   7.562   0.452   3.360 -1.2091  0.1543 -1.7953
11946SOL     OW37514   0.336   7.585   6.427  0.1472  0.3554 -0.0498
11946SOL    HW137515   0.380   7.543   6.353  1.6702  0.0673  0.9896
11946SOL    HW237516   0.380   7.669   6.436  0.5158  0.0526  1.0239
11947SOL     OW37517   0.554   8.950   0.534 -0.2131  0.2426  0.4037
11947SOL    HW137518   0.605   8.967   0.613 -1.4835 -0.7337  1.4627
11947SOL    HW237519   0.474   9.001   0.546  0.2711  1.3469 -0.9940
11948SOL     OW37520   7.743   6.239   2.722 -0.0547 -0.6511  0.1653
11948SOL    HW137521   7.748   6.315   2.664  0.2018 -1.0642 -0.3552
11948SOL    HW237522   7.754   6.164   2.664 -0.3415 -1.0889  0.6757
11949SOL     OW37523   4.499   6.124   5.140 -0.4255  0.5421 -0.1641
11949SOL    HW137524   4.442   6.188   5.096 -0.7306 -0.2236 -0.8860
11949SOL    HW237525   4.496   6.046   5.085  0.5167  0.1368  0.3355
11950SOL     OW37526   1.223   5.694   0.035  0.1501  0.5014  0.0126
11950SOL    HW137527   1.214   5.669   0.127 -1.6054  0.4284 -0.1492
11950SOL    HW237528   1.240   5.789   0.037  1.1680  0.3129  0.4391
11951SOL     OW37529   4.385   1.864   5.046  0.3026 -0.1163 -0.4500
11951SOL    HW137530   4.412   1.911   5.124  0.6277  0.0152 -0.6385
11951SOL    HW237531   4.322   1.799   5.077  0.7169 -0.3191 -0.0265
11952SOL     OW37532   5.176   6.618   1.328 -0.2006 -0.4998  0.0815
11952SOL    HW137533   5.088   6.609   1.291 -0.2497  0.8393 -0.1465
11952SOL    HW237534   5.214   6.692   1.281  0.7441 -0.5479  0.7638
11953SOL     OW37535   8.761   0.457   3.837  0.7188  0.1279 -0.2797
11953SOL    HW137536   8.794   0.383   3.786  2.3608 -0.0299  0.9536
11953SOL    HW237537   8.709   0.417   3.907 -2.4637  0.3929 -2.4207
11954SOL     OW37538   0.534   8.196   6.363  0.0876  0.7694 -0.1626
11954SOL    HW137539   0.540   8.282   6.405  2.7215  0.4063  0.3129
11954SOL    HW237540   0.605   8.196   6.298 -2.0482  0.2066 -2.5814
11955SOL     OW37541   5.189   9.270   0.805 -0.2906  0.0825  0.0573
11955SOL    HW137542   5.156   9.348   0.762 -2.9613 -2.1198 -2.1041
11955SOL    HW237543   5.275   9.254   0.766 -0.4929  0.9488 -0.7360
11956SOL     OW37544   1.984   3.627   8.646  0.1131  0.2372 -0.0489
11956SOL    HW137545   1.994   3.532   8.648 -0.9527  0.1137 -0.4579
11956SOL    HW237546   1.937   3.648   8.727 -1.2856  0.2115 -0.8386
11957SOL     OW37547   2.150   4.504   7.244  0.3388  0.4443  0.0800
11957SOL    HW137548   2.103   4.587   7.237  0.0137  0.1832 -0.9377
11957SOL    HW237549   2.192   4.508   7.330 -0.6125  1.1690  0.5280
11958SOL     OW37550   1.399   4.078   5.018 -0.5987 -0.5809 -0.0692
11958SOL    HW137551   1.305   4.088   5.034 -0.5417  0.4139 -0.2974
11958SOL    HW237552   1.415   4.129   4.939  0.8277  2.6631  2.1789
11959SOL     OW37553   3.528   5.612   0.214 -0.6963  0.5920  0.0113
11959SOL    HW137554   3.570   5.685   0.259  0.7266 -0.2491  0.0905
11959SOL    HW237555   3.439   5.643   0.194 -0.5674  1.8101  1.2958
11960SOL     OW37556   2.396   8.581   8.146  0.3189 -0.0562  0.1670
11960SOL    HW137557   2.304   8.608   8.157  0.5688  0.7786  0.1981
11960SOL    HW237558   2.429   8.574   8.236  0.0314 -1.2752  0.1958
11961SOL     OW37559   5.674   4.658   2.292 -0.0261  0.2926  0.5325
11961SOL    HW137560   5.737   4.709   2.343 -1.0447  2.0203  0.0883
11961SOL    HW237561   5.727   4.589   2.252  1.2115  0.4244  1.9027
11962SOL     OW37562   1.230   7.726   7.391 -0.3671 -0.0657  0.3466
11962SOL    HW137563   1.141   7.756   7.371 -0.1507  0.9359  0.8569
11962SOL    HW237564   1.260   7.685   7.310 -1.1179  0.0207  0.0201
11963SOL     OW37565   9.208   1.255   4.742  0.3573 -0.4001 -0.5129
11963SOL    HW137566   9.261   1.181   4.770  0.9359  0.1921 -0.0026
11963SOL    HW237567   9.119   1.220   4.734  0.5539 -1.0519  0.1053
11964SOL     OW37568   0.622   8.797   3.254  0.4516 -0.7053  0.4533
11964SOL    HW137569   0.678   8.875   3.257 -1.1536  0.4350  2.2637
11964SOL    HW237570   0.619   8.767   3.345 -1.1090 -1.2909  0.2092
11965SOL     OW37571   5.604   1.174   6.493  0.1476 -0.4039 -0.1906
11965SOL    HW137572   5.588   1.229   6.571  3.8859 -0.2643  0.5862
11965SOL    HW237573   5.571   1.226   6.420 -1.5120  0.3969  1.1056
11966SOL     OW37574   7.525   8.263   2.044  0.3517  0.0189 -0.1507
11966SOL    HW137575   7.472   8.342   2.032  0.5699  0.1674 -0.1389
11966SOL    HW237576   7.462   8.191   2.034  0.0745  0.2009  0.2556
11967SOL     OW37577   8.738   8.976   1.488 -0.2941 -0.1132  0.1833
11967SOL    HW137578   8.743   8.888   1.450 -1.6039  0.1575 -0.6385
11967SOL    HW237579   8.755   8.962   1.581 -2.5847 -1.5395  0.4201
11968SOL     OW37580   1.361   0.760   4.312  0.5097  0.2835  0.6590
11968SOL    HW137581   1.442   0.728   4.274  0.6710  0.6895  0.6650
11968SOL    HW237582   1.308   0.788   4.237  0.4648  0.2319  0.6711
11969SOL     OW37583   1.993   6.598   9.285 -0.3161 -0.2540  0.1114
11969SOL    HW137584   2.069   6.608   9.227  2.7560  1.2525  4.1092
11969SOL    HW237585   1.939   6.674   9.266  0.8287  0.4008 -0.5936
11970SOL     OW37586   4.535   1.410   8.389 -0.4545 -0.2830 -0.2815
11970SOL    HW137587   4.487   1.478   8.438  0.8702  0.0114  0.6347
11970SOL    HW237588   4.578   1.358   8.457  0.0155 -0.9180 -1.0647
11971SOL     OW37589   4.227   6.228   3.264 -0.8162 -0.0960 -0.1794
11971SOL    HW137590   4.210   6.209   3.172 -1.0921  1.0560 -0.3755
11971SOL    HW237591   4.188   6.155   3.312 -0.5514 -0.7727 -0.9788
11972SOL     OW37592   5.724   4.908   4.184  0.1412 -0.6148  0.5033
11972SOL    HW137593   5.806   4.959   4.183 -1.0328  1.3364 -0.1647
11972SOL    HW237594   5.735   4.846   4.256  1.7850  0.3258  1.0961
11973SOL     OW37595   0.310   2.911   7.833 -0.7915  0.6312  0.8054
11973SOL    HW137596   0.387   2.865   7.867 -1.4981  0.1020  1.7283
11973SOL    HW237597   0.246   2.906   7.904 -1.6588  1.1047  0.0701
11974SOL     OW37598   0.419   8.559   4.886 -0.0966  0.4442 -0.1375
11974SOL    HW137599   0.449   8.518   4.967  0.4559  0.0672 -0.5290
11974SOL    HW237600   0.334   8.518   4.869  0.2850 -0.2743 -0.3322
11975SOL     OW37601   4.908   8.751   5.804  0.0237  0.2469 -0.3642
11975SOL    HW137602   4.833   8.698   5.777  0.0776 -0.2030  0.3492
11975SOL    HW237603   4.947   8.702   5.876  0.1795  1.1726  0.1879
11976SOL     OW37604   6.881   7.705   3.908  0.2885 -0.6265  0.5078
11976SOL    HW137605   6.929   7.744   3.836 -0.2356 -0.1217  0.4286
11976SOL    HW237606   6.789   7.715   3.884  0.0827  0.2788  1.6142
11977SOL     OW37607   0.129   7.271   1.425  0.1842  0.4576  0.7938
11977SOL    HW137608   0.075   7.275   1.503 -1.4626 -1.0572 -0.2391
11977SOL    HW237609   0.120   7.181   1.393 -0.3889  1.4183 -1.9567
11978SOL     OW37610   8.968   6.091   1.657 -0.4259  0.1665 -0.5563
11978SOL    HW137611   9.042   6.093   1.596 -0.2693 -0.9387 -0.4247
11978SOL    HW237612   8.909   6.159   1.626  0.1989  0.3986 -1.2462
11979SOL     OW37613   0.177   2.835   0.990 -0.4970  0.0618  0.7109
11979SOL    HW137614   0.095   2.786   0.976 -0.3926  0.2204 -0.4658
11979SOL    HW237615   0.189   2.833   1.085 -2.1127  0.4368  0.9434
11980SOL     OW37616   5.782   0.613   0.875  0.4446  0.3429  0.1265
11980SOL    HW137617   5.757   0.546   0.939 -0.4290  0.4768 -0.0756
11980SOL    HW237618   5.832   0.677   0.926  1.1851 -0.3903  0.3452
11981SOL     OW37619   5.356   0.172   7.499  0.0707  0.0475  0.1059
11981SOL    HW137620   5.400   0.201   7.419  0.8181 -0.4242  0.3425
11981SOL    HW237621   5.279   0.124   7.469  0.8105 -0.8691 -0.3486
11982SOL     OW37622   3.940   4.056   3.491 -0.0002  0.7802 -0.1160
11982SOL    HW137623   3.978   4.027   3.573 -0.8327  0.1559  0.0525
11982SOL    HW237624   3.848   4.030   3.496 -0.8841  3.7313  0.1964
11983SOL     OW37625   3.022   7.964   3.134  0.5627  0.1472  0.2337
11983SOL    HW137626   3.009   8.057   3.149 -1.2722 -0.0961  0.2383
11983SOL    HW237627   3.034   7.956   3.039 -0.6644  0.2459  0.0627
11984SOL     OW37628   2.414   5.680   8.165 -0.1947 -0.4742 -0.0694
11984SOL    HW137629   2.409   5.768   8.128 -1.3064 -0.0292  1.0788
11984SOL    HW237630   2.325   5.646   8.156 -0.0940 -0.9538  0.7335
11985SOL     OW37631   6.539   3.090   0.552  0.3815  0.6808 -0.2372
11985SOL    HW137632   6.546   3.016   0.493  0.4843  1.2303 -0.9238
11985SOL    HW237633   6.538   3.052   0.640  1.5059 -0.0570 -0.5451
11986SOL     OW37634   1.764   6.388   5.403  0.0454  0.2227  0.3867
11986SOL    HW137635   1.759   6.321   5.334 -0.7076 -0.4867  1.1233
11986SOL    HW237636   1.821   6.349   5.469 -2.2366 -0.7003  1.8879
11987SOL     OW37637   7.437   5.253   0.355 -0.0931  0.1340  0.3171
11987SOL    HW137638   7.478   5.197   0.421 -1.3847 -0.8579  0.3047
11987SOL    HW237639   7.451   5.342   0.387  2.5159 -0.1462  0.0305
11988SOL     OW37640   5.267   3.391   8.666  0.1062 -0.5028 -0.1185
11988SOL    HW137641   5.174   3.404   8.680 -0.0081 -1.4434  0.0123
11988SOL    HW237642   5.281   3.298   8.680  0.9676 -0.4714 -0.6947
11989SOL     OW37643   7.887   4.265   8.582  0.0162 -0.0349  0.6501
11989SOL    HW137644   7.827   4.330   8.546 -0.5966 -1.5068 -1.0866
11989SOL    HW237645   7.966   4.314   8.604 -0.6769  1.3950 -0.0081
11990SOL     OW37646   7.456   3.077   5.579 -0.0882  0.0130 -0.4406
11990SOL    HW137647   7.479   2.984   5.570  0.8427  0.1689  0.2231
11990SOL    HW237648   7.361   3.077   5.591  0.2431 -1.0955  2.6237
11991SOL     OW37649   4.992   3.491   7.199 -0.1544 -0.4242  0.4281
11991SOL    HW137650   5.063   3.467   7.257 -0.4288  0.2153  1.0298
11991SOL    HW237651   4.953   3.407   7.173 -0.5891 -0.6855  1.8651
11992SOL     OW37652   8.336   0.635   2.820  0.1098  0.6736 -0.5187
11992SOL    HW137653   8.266   0.697   2.836  0.0877  0.0433  2.0436
11992SOL    HW237654   8.293   0.560   2.778 -0.6280  0.5793  0.4053
11993SOL     OW37655   1.719   6.907   3.534 -0.7340  0.3875 -0.5978
11993SOL    HW137656   1.766   6.965   3.593 -0.2376  0.1656 -0.7784
11993SOL    HW237657   1.779   6.892   3.461 -1.2778  0.5343 -1.0887
11994SOL     OW37658   3.107   0.869   7.902 -0.2244  0.5007 -0.2121
11994SOL    HW137659   3.073   0.785   7.873 -0.4220 -0.2004  1.9448
11994SOL    HW237660   3.150   0.850   7.985  0.2861  2.4249 -0.0053
11995SOL     OW37661   9.030   8.394   1.416 -0.2038  0.2204  0.0913
11995SOL    HW137662   9.094   8.444   1.467 -0.4707 -1.0717  1.7689
11995SOL    HW237663   9.027   8.438   1.331  3.5050 -0.1350 -0.3339
11996SOL     OW37664   1.598   8.913   7.085  0.1980  0.0437 -0.4891
11996SOL    HW137665   1.688   8.935   7.060  0.0036  0.7342 -0.6091
11996SOL    HW237666   1.594   8.818   7.083  1.5151 -0.0836  1.5668
11997SOL     OW37667   8.917   6.390   7.634 -0.0492  0.0918  0.2200
11997SOL    HW137668   8.912   6.481   7.603  1.0063 -0.3177 -1.1942
11997SOL    HW237669   8.883   6.338   7.561  1.4362 -0.8089  0.1541
11998SOL     OW37670   7.323   5.659   4.123 -0.0861 -0.0736 -0.0240
11998SOL    HW137671   7.418   5.653   4.116  0.0268  1.3293  0.2242
11998SOL    HW237672   7.297   5.712   4.048 -0.6835 -0.4948 -0.1189
11999SOL     OW37673   0.777   0.591   6.766  0.5162 -0.2548 -0.7061
11999SOL    HW137674   0.734   0.672   6.737  0.9971  0.2704  0.0308
11999SOL    HW237675   0.779   0.598   6.861 -0.4510 -1.6614 -0.5676
12000SOL     OW37676   2.623   0.240   9.211  0.2428 -0.2745  0.1679
12000SOL    HW137677   2.623   0.263   9.118  1.9795 -1.0595 -0.0662
12000SOL    HW237678   2.590   0.150   9.214 -0.4291 -0.0234  0.3852
12001SOL     OW37679   0.336   6.437   7.692 -0.5735 -0.0001  0.1461
12001SOL    HW137680   0.333   6.493   7.615 -0.1955 -1.5965 -1.0537
12001SOL    HW237681   0.390   6.362   7.666  0.8271  0.1627  2.4530
12002SOL     OW37682   2.034   9.120   3.726 -0.3770 -0.4898  0.0101
12002SOL    HW137683   2.017   9.177   3.651 -0.0417 -1.5530 -0.8887
12002SOL    HW237684   2.013   9.032   3.694  1.6739 -1.1974  0.5187
12003SOL     OW37685   3.404   9.020   3.075 -0.0846  0.0989  0.3848
12003SOL    HW137686   3.313   9.048   3.065 -0.6648 -1.4320  1.2690
12003SOL    HW237687   3.398   8.930   3.109  1.7333 -0.5126 -0.8203
12004SOL     OW37688   0.983   6.400   2.995 -0.1871  0.0975 -0.3746
12004SOL    HW137689   1.006   6.358   2.913  3.6847  1.9045 -0.3217
12004SOL    HW237690   0.992   6.331   3.061 -0.4954 -0.6321 -1.0837
12005SOL     OW37691   3.262   8.088   7.073  0.4231  0.1647  0.4188
12005SOL    HW137692   3.184   8.099   7.018  1.2618 -1.1425 -1.0852
12005SOL    HW237693   3.256   7.998   7.105  2.0324 -0.4324 -0.8875
12006SOL     OW37694   2.986   4.281   2.003 -0.5536  0.2266 -0.2182
12006SOL    HW137695   2.966   4.297   2.095 -1.7777  2.5128 -0.8443
12006SOL    HW237696   2.903   4.253   1.964  0.0654 -1.2118 -0.5533
12007SOL     OW37697   4.380   6.798   2.952 -0.2042  0.5507  0.2369
12007SOL    HW137698   4.319   6.730   2.925 -1.4819  2.0627 -0.7776
12007SOL    HW237699   4.439   6.755   3.014  0.0162 -1.8783 -1.5997
12008SOL     OW37700   8.485   4.609   6.976  0.2683 -0.6745  0.0025
12008SOL    HW137701   8.536   4.651   7.045  0.2799  0.1465 -0.4965
12008SOL    HW237702   8.414   4.670   6.958  0.4189 -0.7576 -0.8929
12009SOL     OW37703   1.470   0.387   4.208 -0.3655  0.4374  0.4209
12009SOL    HW137704   1.528   0.323   4.168  0.5642  0.8189  1.1411
12009SOL    HW237705   1.389   0.339   4.225  0.2468 -0.4855  0.7554
12010SOL     OW37706   7.380   3.543   0.057 -0.0168 -0.3349  0.2706
12010SOL    HW137707   7.316   3.476   0.081  0.1197 -1.2820 -1.9291
12010SOL    HW237708   7.428   3.506  -0.016  2.0933  0.9629  0.9486
12011SOL     OW37709   3.140   6.974   8.643 -0.2930 -0.2280  0.0752
12011SOL    HW137710   3.089   6.923   8.706  0.4139  0.4620  1.2309
12011SOL    HW237711   3.170   7.050   8.693  2.0763 -0.7593 -0.4873
12012SOL     OW37712   8.033   2.502   0.663 -0.4812 -0.1675  0.3468
12012SOL    HW137713   7.971   2.500   0.735 -0.0996  0.8041  0.7028
12012SOL    HW237714   7.987   2.548   0.593 -1.4255 -2.4386 -0.5910
12013SOL     OW37715   7.970   4.425   5.109  0.5493  0.1113  0.3507
12013SOL    HW137716   8.020   4.344   5.116  1.1672  0.5586  1.2165
12013SOL    HW237717   7.936   4.425   5.019  0.1161 -1.3457  0.5112
12014SOL     OW37718   8.526   7.132   6.048  0.4067 -0.2451 -0.4261
12014SOL    HW137719   8.462   7.099   6.111  0.1984 -0.3538 -0.6931
12014SOL    HW237720   8.611   7.114   6.088  0.3207 -1.8946 -0.9648
12015SOL     OW37721   6.877   5.920   1.233  0.6138 -0.2853  0.1939
12015SOL    HW137722   6.899   5.931   1.325 -0.4367  2.6792  0.1305
12015SOL    HW237723   6.802   5.977   1.219  0.1920 -1.3871 -2.3036
12016SOL     OW37724   3.891   8.334   2.212 -0.4743  0.2836 -0.3238
12016SOL    HW137725   3.877   8.372   2.126 -0.1702  1.3073  0.0667
12016SOL    HW237726   3.815   8.362   2.263 -0.7395 -0.4608 -0.3136
12017SOL     OW37727   5.863   3.262   4.991  0.3353  0.0988  0.2238
12017SOL    HW137728   5.785   3.316   4.983  0.5570  0.2047 -1.2460
12017SOL    HW237729   5.930   3.309   4.941  1.2193 -0.2307  1.0836
12018SOL     OW37730   6.586   0.285   9.010 -0.0866  0.3330 -0.0447
12018SOL    HW137731   6.622   0.204   8.973  0.7636  1.0169 -0.7527
12018SOL    HW237732   6.531   0.257   9.082  1.1568 -0.8084  0.4703
12019SOL     OW37733   3.491   7.463   8.387 -0.1610 -0.1692  0.3118
12019SOL    HW137734   3.580   7.462   8.423  0.0555  0.6168 -0.1857
12019SOL    HW237735   3.460   7.373   8.397  0.3664 -0.2532  1.2864
12020SOL     OW37736   4.075   5.466   0.253  0.1840  0.0001  0.6328
12020SOL    HW137737   4.057   5.559   0.271  0.5737 -0.0123  1.0787
12020SOL    HW237738   3.992   5.422   0.274 -0.1148  0.2887  0.0786
12021SOL     OW37739   0.755   1.699   1.947  0.8165 -0.1007 -0.5152
12021SOL    HW137740   0.677   1.655   1.913 -0.3234  0.6554  1.1177
12021SOL    HW237741   0.799   1.632   1.999  0.3010  0.0203  0.0708
12022SOL     OW37742   0.125   4.426   2.899 -0.2902 -0.2034 -1.0524
12022SOL    HW137743   0.209   4.432   2.944 -0.3773  2.2346 -1.1289
12022SOL    HW237744   0.101   4.333   2.904  1.8723 -0.7404 -0.0907
12023SOL     OW37745   2.900   1.016   7.742 -0.1655  0.1514 -0.3239
12023SOL    HW137746   2.852   1.096   7.722 -0.1939  0.0641 -0.6176
12023SOL    HW237747   2.902   0.968   7.658 -0.0224 -0.0840 -0.1873
12024SOL     OW37748   0.022   3.713   6.284  0.0925 -0.3371  0.2323
12024SOL    HW137749   0.007   3.684   6.374 -0.1401  0.9809  0.6346
12024SOL    HW237750   0.026   3.633   6.233 -0.5093 -1.0655  1.3096
12025SOL     OW37751   1.297   2.794   7.074  0.3122  0.6166 -0.2488
12025SOL    HW137752   1.306   2.763   6.983 -0.9195  0.3858 -0.2979
12025SOL    HW237753   1.326   2.885   7.071  2.2541  0.0179 -0.4614
12026SOL     OW37754   5.730   3.529   8.776  0.1078 -0.1389  0.1045
12026SOL    HW137755   5.752   3.621   8.760 -0.6850 -0.0105 -0.2819
12026SOL    HW237756   5.635   3.525   8.764  0.1860 -1.0814 -0.2339
12027SOL     OW37757   7.632   9.200   9.257  0.4573 -0.4794 -0.2692
12027SOL    HW137758   7.621   9.175   9.166  0.7281  0.4627 -0.5663
12027SOL    HW237759   7.716   9.246   9.259 -0.7520  1.7448 -0.0298
12028SOL     OW37760   2.767   0.705   3.118  0.3649 -0.2026 -0.2018
12028SOL    HW137761   2.771   0.646   3.193 -2.0439  1.3120  1.1509
12028SOL    HW237762   2.698   0.669   3.063  0.9576 -0.3344 -0.8713
12029SOL     OW37763   2.879   5.853   0.491  0.0479 -0.6252  0.2126
12029SOL    HW137764   2.815   5.896   0.435  0.8588  0.9815  0.4888
12029SOL    HW237765   2.902   5.773   0.444  0.5870  0.6017 -1.6681
12030SOL     OW37766   1.208   2.521   4.337  0.1297 -0.5860  0.1882
12030SOL    HW137767   1.265   2.450   4.369  0.2998 -0.6703 -0.2998
12030SOL    HW237768   1.196   2.577   4.413  1.4892 -0.1559  0.1086
12031SOL     OW37769   1.345   6.481   4.628 -0.0050 -0.0112 -0.0842
12031SOL    HW137770   1.412   6.445   4.687  0.1450 -1.1243 -0.9218
12031SOL    HW237771   1.377   6.568   4.606  0.5502 -0.0569  0.5267
12032SOL     OW37772   5.413   2.828   5.900 -0.4248 -0.0434  0.0983
12032SOL    HW137773   5.320   2.842   5.918 -0.8228 -0.0124 -1.8763
12032SOL    HW237774   5.455   2.909   5.929 -1.1022  0.2431  0.2931
12033SOL     OW37775   8.194   1.549   8.264  0.4905  0.0536 -0.0674
12033SOL    HW137776   8.123   1.560   8.200  0.4845 -0.2993 -0.1232
12033SOL    HW237777   8.250   1.625   8.252 -0.4278  0.8664  0.6797
12034SOL     OW37778   7.985   0.777   0.849  0.1297 -0.0101  0.3943
12034SOL    HW137779   7.897   0.806   0.875  0.0989 -0.0104  0.2935
12034SOL    HW237780   8.037   0.783   0.929  0.9015  3.2653 -0.2920
12035SOL     OW37781   6.782   4.937   1.822 -0.3054 -0.2364 -0.3524
12035SOL    HW137782   6.832   4.996   1.765  1.8848  0.1199  1.8844
12035SOL    HW237783   6.724   4.890   1.762  0.6726  1.4118 -2.6617
12036SOL     OW37784   3.530   5.235   0.669  0.7360  0.1417  0.0978
12036SOL    HW137785   3.600   5.196   0.721  0.7004 -0.0751 -0.0172
12036SOL    HW237786   3.489   5.161   0.624  1.9277  0.5222 -1.6693
12037SOL     OW37787   8.496   1.333   3.787 -0.0126 -0.1517  0.1311
12037SOL    HW137788   8.549   1.269   3.741  0.1394  0.7932 -1.0211
12037SOL    HW237789   8.453   1.383   3.718  0.0845  1.1671  1.0060
12038SOL     OW37790   7.326   4.642   8.533 -0.0858  0.0387 -0.2945
12038SOL    HW137791   7.293   4.692   8.607  0.7427 -0.2415  0.2712
12038SOL    HW237792   7.248   4.605   8.493 -0.6006  0.7785  0.0074
12039SOL     OW37793   5.566   2.606   6.753  0.6765  0.2104 -0.4968
12039SOL    HW137794   5.528   2.661   6.684 -1.6723 -0.3726  0.3142
12039SOL    HW237795   5.547   2.516   6.726  2.1268 -0.1349 -0.4330
12040SOL     OW37796   2.754   8.133   0.367  0.4315 -0.2348 -0.3042
12040SOL    HW137797   2.741   8.113   0.274  1.4545 -0.5918 -0.3792
12040SOL    HW237798   2.849   8.135   0.378  0.3530 -2.5827  1.2521
12041SOL     OW37799   3.902   4.887   8.210  0.1457  0.5466  0.0641
12041SOL    HW137800   3.980   4.935   8.184 -0.1069  0.3961 -0.9984
12041SOL    HW237801   3.906   4.884   8.305  0.5032  2.0817  0.1024
12042SOL     OW37802   2.382   1.755   0.734  0.0019  0.4041 -0.3765
12042SOL    HW137803   2.454   1.751   0.672  1.4082  0.9633  1.2014
12042SOL    HW237804   2.366   1.848   0.748 -1.7158  0.3017 -1.4765
12043SOL     OW37805   6.893   8.797   1.734  0.4365  0.4268 -0.0813
12043SOL    HW137806   6.919   8.715   1.693  1.1088  0.3903  0.3964
12043SOL    HW237807   6.919   8.865   1.671  1.7348  0.3902  0.3831
12044SOL     OW37808   5.200   6.428   2.156 -0.0029 -0.2945 -0.8138
12044SOL    HW137809   5.141   6.498   2.130  0.1309 -0.7342 -2.3448
12044SOL    HW237810   5.176   6.409   2.247 -0.8870  0.8613 -0.7993
12045SOL     OW37811   8.943   0.544   8.302 -0.0245 -0.0429  0.0382
12045SOL    HW137812   9.034   0.534   8.272  0.6474  2.2485  1.2362
12045SOL    HW237813   8.902   0.598   8.235 -0.3525 -0.5965 -0.2080
12046SOL     OW37814   5.995   3.417   7.549  0.1531  0.0322  0.1815
12046SOL    HW137815   6.078   3.439   7.590 -0.0450  2.1660 -0.4683
12046SOL    HW237816   6.015   3.412   7.456  0.0244 -1.8780  0.2470
12047SOL     OW37817   1.164   9.084   0.478  0.1446 -0.3735  0.5117
12047SOL    HW137818   1.144   9.056   0.568 -0.0067 -0.6888  0.3837
12047SOL    HW237819   1.153   9.004   0.426 -1.6585  0.2376 -0.0700
12048SOL     OW37820   7.379   3.326   8.331 -0.1507 -0.0905  0.7596
12048SOL    HW137821   7.445   3.395   8.318  2.2941 -2.3341  0.9424
12048SOL    HW237822   7.317   3.364   8.393  1.5072  1.7191  1.3507
12049SOL     OW37823   0.504   0.502   8.721  0.4467  0.2876 -0.1214
12049SOL    HW137824   0.438   0.550   8.771  0.2083 -0.5557  0.3776
12049SOL    HW237825   0.584   0.511   8.773  0.6343  0.9507 -0.5130
12050SOL     OW37826   2.901   7.244   2.396 -0.1297  0.1458 -0.0736
12050SOL    HW137827   2.943   7.262   2.480  0.0397  0.4869 -0.2326
12050SOL    HW237828   2.973   7.230   2.335 -0.2434  0.5403 -0.3032
12051SOL     OW37829   8.433   6.811   6.182 -0.0453  0.0076 -0.5751
12051SOL    HW137830   8.405   6.902   6.193 -0.2427  0.0193 -1.1617
12051SOL    HW237831   8.365   6.772   6.126 -0.0887 -0.5602 -0.1292
12052SOL     OW37832   7.247   0.908   8.404 -0.1846  1.0557  0.5943
12052SOL    HW137833   7.335   0.884   8.375 -2.0422 -2.3516 -2.7089
12052SOL    HW237834   7.217   0.832   8.454 -1.8987  1.3437  0.0410
12053SOL     OW37835   1.960   8.441   6.179 -0.1617 -0.1995 -0.5411
12053SOL    HW137836   1.873   8.461   6.144  0.1148 -0.3916 -1.3437
12053SOL    HW237837   2.020   8.461   6.108  0.8348  3.6018  1.2616
12054SOL     OW37838   4.993   0.598   4.600  0.2155 -0.0670 -0.3855
12054SOL    HW137839   5.040   0.519   4.575  0.8889  0.2440 -0.1040
12054SOL    HW237840   5.060   0.666   4.604 -0.3778  0.5388 -0.7258
12055SOL     OW37841   7.704   0.867   1.923 -0.3022  0.4030 -0.3483
12055SOL    HW137842   7.662   0.905   1.999 -1.9156 -0.9904 -0.5129
12055SOL    HW237843   7.632   0.844   1.864  0.7265 -1.1145 -1.0670
12056SOL     OW37844   1.717   1.722   3.992  0.3730  0.2073 -0.5445
12056SOL    HW137845   1.695   1.735   4.085 -2.6214  1.6438 -1.4098
12056SOL    HW237846   1.699   1.629   3.977 -0.2230  0.2128  0.0665
12057SOL     OW37847   2.060   7.177   1.015  0.4457 -0.2616  0.3218
12057SOL    HW137848   2.040   7.255   0.963 -0.6232 -1.4789 -1.1784
12057SOL    HW237849   2.145   7.147   0.982  0.9684  0.3932  1.0639
12058SOL     OW37850   4.523   6.092   2.996  0.1128 -0.0987  0.3577
12058SOL    HW137851   4.515   6.123   3.086 -0.5332 -1.4583  0.7712
12058SOL    HW237852   4.475   6.010   2.994  0.9195 -0.5574 -0.9939
12059SOL     OW37853   4.690   6.649   3.564  0.2199  0.4147 -0.9172
12059SOL    HW137854   4.629   6.642   3.637  0.5898  0.7175 -0.5770
12059SOL    HW237855   4.729   6.562   3.556  0.2336  0.4012 -0.7070
12060SOL     OW37856   0.574   8.569   7.256 -0.0272  0.2653  0.2578
12060SOL    HW137857   0.643   8.503   7.258  0.2069  0.5414  1.4079
12060SOL    HW237858   0.509   8.537   7.319 -0.2133  0.8084  0.3383
12061SOL     OW37859   4.209   7.497   6.206  0.2490  0.0820  0.0640
12061SOL    HW137860   4.205   7.506   6.111  1.0846 -0.3055 -0.0114
12061SOL    HW237861   4.273   7.562   6.234  1.3137 -0.9898  0.1774
12062SOL     OW37862   0.369   8.432   2.892 -0.0533  0.4486 -0.1013
12062SOL    HW137863   0.401   8.520   2.876 -0.8045  0.5896 -0.8556
12062SOL    HW237864   0.402   8.380   2.818 -1.3610  0.5508 -0.7728
12063SOL     OW37865   0.104   7.316   1.901  0.1111  0.2977  0.4361
12063SOL    HW137866   0.195   7.323   1.873 -0.1435  1.8843 -0.0589
12063SOL    HW237867   0.054   7.304   1.820 -0.0437 -1.5250  0.7884
12064SOL     OW37868   7.657   0.964   4.149  0.5922  0.0917 -0.4032
12064SOL    HW137869   7.602   1.042   4.160 -1.7650 -1.6623  0.8038
12064SOL    HW237870   7.641   0.936   4.059  1.5471  1.0403 -0.8858
12065SOL     OW37871   2.675   1.045   6.432  0.3422 -0.1058 -0.2943
12065SOL    HW137872   2.729   1.074   6.358 -0.5534 -0.3792 -1.0688
12065SOL    HW237873   2.734   0.991   6.485  0.9088 -0.1759 -0.9918
12066SOL     OW37874   2.654   7.574   2.703  0.1388  0.4267 -0.5071
12066SOL    HW137875   2.599   7.653   2.700 -2.3936 -1.2861 -0.9290
12066SOL    HW237876   2.724   7.592   2.639 -2.0044  1.2349 -2.7283
12067SOL     OW37877   2.322   5.372   8.032  0.4158  0.1045 -0.3572
12067SOL    HW137878   2.248   5.425   8.062  0.3062  0.1380 -0.6776
12067SOL    HW237879   2.376   5.359   8.109  2.3733  3.7980 -1.0083
12068SOL     OW37880   5.603   0.509   8.830 -0.3026 -0.5316  0.0746
12068SOL    HW137881   5.667   0.445   8.864 -1.5683 -1.1752  1.3102
12068SOL    HW237882   5.590   0.484   8.739  2.6699  0.8181 -0.7965
12069SOL     OW37883   8.005   7.180   2.218 -0.0213 -0.0507  0.0273
12069SOL    HW137884   8.015   7.275   2.211 -0.0981  0.0526  1.1597
12069SOL    HW237885   8.041   7.158   2.304  0.1565 -1.0724 -0.2977
12070SOL     OW37886   9.086   0.644   2.866 -0.1304  0.0807 -0.1140
12070SOL    HW137887   9.002   0.652   2.821 -0.2597  0.0891  0.1307
12070SOL    HW237888   9.119   0.559   2.837  0.3945  0.6614 -1.2525
12071SOL     OW37889   0.192   4.366   8.928 -0.2336  0.4977 -0.2798
12071SOL    HW137890   0.281   4.353   8.897  0.7256  0.5060  2.3628
12071SOL    HW237891   0.147   4.284   8.906  0.5976  0.2361 -1.0455
12072SOL     OW37892   8.620   0.054   5.256 -1.1710  0.2847  0.1400
12072SOL    HW137893   8.689   0.004   5.300 -0.3294  0.4129 -1.0032
12072SOL    HW237894   8.547  -0.008   5.249 -0.9022 -0.0973  0.6660
12073SOL     OW37895   5.184   5.780   4.641 -0.0331 -0.2718 -0.0602
12073SOL    HW137896   5.124   5.854   4.654  1.5228  1.1817 -0.9461
12073SOL    HW237897   5.186   5.735   4.725  0.8930  2.1490  1.2443
12074SOL     OW37898   2.488   7.031   8.948 -0.2065  0.4899 -0.0692
12074SOL    HW137899   2.446   7.072   8.872 -0.9883  2.3036  1.3170
12074SOL    HW237900   2.416   6.994   8.998  0.3147 -0.7727 -0.2395
12075SOL     OW37901   8.092   2.750   8.982  0.9577  0.3677 -0.3470
12075SOL    HW137902   7.999   2.748   9.002  1.1320 -2.5166  0.3482
12075SOL    HW237903   8.096   2.755   8.886  0.1247  0.7495 -0.3700
12076SOL     OW37904   2.587   0.381   8.554  0.3671 -0.2227  0.1359
12076SOL    HW137905   2.658   0.317   8.557  3.1653  2.5858 -1.9514
12076SOL    HW237906   2.547   0.367   8.468  0.2711  0.0692  0.1318
12077SOL     OW37907   6.488   1.275   6.691 -0.3740 -0.2357 -0.2852
12077SOL    HW137908   6.531   1.190   6.700 -0.3085 -0.5658 -3.2654
12077SOL    HW237909   6.397   1.259   6.717  0.0531 -0.7741  0.9035
12078SOL     OW37910   4.413   4.516   6.659  0.0035  0.7480  0.0668
12078SOL    HW137911   4.503   4.548   6.663 -0.5136  2.0515  1.7449
12078SOL    HW237912   4.376   4.558   6.582  0.2969  1.6766  0.4217
12079SOL     OW37913   8.838   4.426   0.438 -0.4300  0.1520 -0.6732
12079SOL    HW137914   8.880   4.503   0.400 -0.0889 -0.2052 -1.0211
12079SOL    HW237915   8.792   4.385   0.364 -0.6784  0.0646 -0.4719
12080SOL     OW37916   2.040   1.511   1.150  0.4968 -0.2306  0.0600
12080SOL    HW137917   1.958   1.541   1.190  0.1665 -1.3165  0.2015
12080SOL    HW237918   2.106   1.525   1.218  0.7918  2.4758 -0.7279
12081SOL     OW37919   6.186   5.599   3.258 -0.3330 -0.3281  0.2355
12081SOL    HW137920   6.095   5.573   3.241  0.1100 -0.8259 -1.4076
12081SOL    HW237921   6.199   5.581   3.351 -1.2505 -2.2898  0.0016
12082SOL     OW37922   2.461   0.182   4.490 -0.2750  0.1224 -0.2602
12082SOL    HW137923   2.501   0.139   4.414 -0.1963 -1.7664  0.8253
12082SOL    HW237924   2.529   0.179   4.558  0.2652  3.2928 -0.5845
12083SOL     OW37925   2.529   2.233   3.523  0.1249 -0.4530  0.0742
12083SOL    HW137926   2.464   2.164   3.513 -1.2948  0.9508 -0.7231
12083SOL    HW237927   2.539   2.269   3.435  0.1404  0.9475  0.6365
12084SOL     OW37928   0.442   6.523   0.904 -0.2136 -0.5487  0.3220
12084SOL    HW137929   0.414   6.464   0.834 -1.2377  1.1127 -0.6981
12084SOL    HW237930   0.531   6.548   0.880  0.1019 -1.4137  0.5823
12085SOL     OW37931   0.154   4.420   6.649 -0.2037 -0.4162  0.1290
12085SOL    HW137932   0.115   4.408   6.562 -2.2259  1.1448  0.7869
12085SOL    HW237933   0.234   4.471   6.632 -0.8495  0.3285 -0.7765
12086SOL     OW37934   3.094   1.223   7.668  0.4392 -0.0363  0.0754
12086SOL    HW137935   3.076   1.311   7.699  0.7392  0.2758 -0.6312
12086SOL    HW237936   3.124   1.234   7.578 -0.1252 -0.9074 -0.2324
12087SOL     OW37937   5.505   4.185   4.596  0.4844 -0.4925  0.6122
12087SOL    HW137938   5.571   4.215   4.659  0.2392  0.8574  0.2492
12087SOL    HW237939   5.546   4.200   4.511  0.2109 -0.8606  0.4191
12088SOL     OW37940   7.387   0.894   5.296 -0.4042  0.0629 -0.0746
12088SOL    HW137941   7.433   0.974   5.271  1.1215 -0.7047  0.2454
12088SOL    HW237942   7.301   0.925   5.327  0.5718  1.6748  1.1130
12089SOL     OW37943   7.689   5.129   5.430 -0.2046  0.4159  0.7857
12089SOL    HW137944   7.665   5.038   5.417 -2.7334  1.3290 -1.3848
12089SOL    HW237945   7.634   5.159   5.502  0.6743  0.2535  1.5451
12090SOL     OW37946   2.537   3.623   6.392 -0.3586 -0.2294 -0.5043
12090SOL    HW137947   2.560   3.641   6.301  0.5320 -0.9517 -0.4332
12090SOL    HW237948   2.482   3.545   6.388  0.3739 -0.7569 -0.3589
12091SOL     OW37949   1.820   4.320   4.377 -0.2538  0.2522 -0.2181
12091SOL    HW137950   1.763   4.390   4.343  2.1166  0.9593 -2.9246
12091SOL    HW237951   1.809   4.248   4.315 -0.8298 -0.9147  1.2072
12092SOL     OW37952   5.616   8.955   8.383 -0.3567  0.4349  0.1881
12092SOL    HW137953   5.571   8.977   8.465 -2.9990  3.0321 -1.8429
12092SOL    HW237954   5.682   9.024   8.373 -1.6322  1.5093 -1.0027
12093SOL     OW37955   4.208   2.956   7.910 -0.0719 -0.2912 -0.0129
12093SOL    HW137956   4.275   3.025   7.909 -1.6976  1.3511 -1.7593
12093SOL    HW237957   4.175   2.956   8.000  1.3034 -0.1356  0.5007
12094SOL     OW37958   8.690   6.474   5.613  0.1654  0.2982 -0.4858
12094SOL    HW137959   8.708   6.456   5.521 -1.1029  0.9963 -0.8801
12094SOL    HW237960   8.690   6.388   5.655 -0.7888 -0.1641 -1.4155
12095SOL     OW37961   2.256   4.124   4.839  0.1505 -0.0147 -0.3143
12095SOL    HW137962   2.187   4.171   4.791 -0.4923 -0.9514 -0.3187
12095SOL    HW237963   2.209   4.072   4.904  1.0324  1.4296  1.5121
12096SOL     OW37964   8.502   2.628   9.224  0.1687 -0.1177 -0.2922
12096SOL    HW137965   8.472   2.655   9.137 -0.6382  0.6071  0.2012
12096SOL    HW237966   8.473   2.537   9.232 -1.4216  0.3977 -0.0507
12097SOL     OW37967   4.573   4.833   7.388  0.2130 -0.0405 -0.2749
12097SOL    HW137968   4.551   4.918   7.427  1.4916  0.4549 -0.6079
12097SOL    HW237969   4.542   4.841   7.298 -2.1272 -0.9370  0.4306
12098SOL     OW37970   8.240   5.091   8.828  0.5195 -0.2388 -0.0890
12098SOL    HW137971   8.242   5.001   8.861 -0.3838 -0.5285 -0.8045
12098SOL    HW237972   8.148   5.116   8.831  1.0003  1.3664  1.9323
12099SOL     OW37973   6.950   5.056   5.122  0.1383 -0.1228 -0.2386
12099SOL    HW137974   6.953   5.005   5.041  2.7695  0.6933 -0.7078
12099SOL    HW237975   6.953   4.990   5.192 -0.3720 -0.7576 -0.8162
12100SOL     OW37976   7.028   7.180   7.881  0.7606  0.1872  0.2108
12100SOL    HW137977   6.988   7.129   7.811  1.5170  0.2033 -0.2476
12100SOL    HW237978   6.970   7.255   7.893  0.1502 -0.2903  0.2275
12101SOL     OW37979   0.983   2.082   3.827  0.1173  0.0954  0.1802
12101SOL    HW137980   1.023   2.160   3.790 -0.1605 -0.5337 -1.4844
12101SOL    HW237981   1.057   2.027   3.854  0.3905 -0.7753 -2.2769
12102SOL     OW37982   0.734   5.603   7.956 -0.1396 -0.4942 -0.4514
12102SOL    HW137983   0.702   5.542   8.023  1.2992 -0.1192  0.6043
12102SOL    HW237984   0.728   5.554   7.874 -2.9481 -0.5888 -0.2304
12103SOL     OW37985   3.175   2.052   1.961  0.0890 -0.0947 -0.6261
12103SOL    HW137986   3.123   2.003   2.026 -0.8601  0.8011 -0.6854
12103SOL    HW237987   3.265   2.046   1.993 -0.1643 -0.9275 -0.0363
12104SOL     OW37988   3.854   8.066   7.439  0.4215  0.2917 -0.2563
12104SOL    HW137989   3.911   7.995   7.468  1.1086  0.4895 -1.0881
12104SOL    HW237990   3.856   8.062   7.344 -0.3679  0.7737 -0.3011
12105SOL     OW37991   6.704   5.090   5.998 -0.0885 -0.6040 -0.0973
12105SOL    HW137992   6.671   5.125   6.081 -1.8745 -1.1839 -0.5351
12105SOL    HW237993   6.629   5.095   5.939  1.7437  1.7908 -2.3244
12106SOL     OW37994   3.216   1.993   3.642  0.1419  0.3241 -0.3019
12106SOL    HW137995   3.255   1.997   3.729  1.4785  0.1684 -0.8858
12106SOL    HW237996   3.145   2.056   3.645  1.2788  1.5982  0.3647
12107SOL     OW37997   5.700   1.003   8.417  0.5763 -0.1768  0.1263
12107SOL    HW137998   5.760   1.003   8.343 -0.0703  2.2012 -0.4323
12107SOL    HW237999   5.669   1.094   8.424 -2.0067 -1.0742  1.1679
12108SOL     OW38000   6.960   3.089   0.842 -0.0994  0.0029  0.3116
12108SOL    HW138001   6.904   3.074   0.919  1.3224 -0.1119  1.3372
12108SOL    HW238002   7.028   3.023   0.849 -0.1433 -0.2027 -1.2370
12109SOL     OW38003   5.272   3.872   1.454  0.3206 -0.1784 -0.4820
12109SOL    HW138004   5.239   3.945   1.507 -3.2123 -2.0203 -0.0160
12109SOL    HW238005   5.288   3.911   1.368 -0.3626  1.3963  0.0786
12110SOL     OW38006   8.859   8.040   1.510  0.6073  0.0979  0.1130
12110SOL    HW138007   8.795   7.993   1.565 -0.4262  0.5926 -0.6534
12110SOL    HW238008   8.919   7.971   1.481 -0.6651 -0.7186 -0.6741
12111SOL     OW38009   2.873   6.079   4.190 -0.1808 -0.1339 -0.2533
12111SOL    HW138010   2.839   6.042   4.272 -1.4027  1.5005  0.0127
12111SOL    HW238011   2.813   6.046   4.123  0.3125 -0.7829 -0.3755
12112SOL     OW38012   3.118   0.555   3.910 -0.2561 -0.0264 -0.2075
12112SOL    HW138013   3.195   0.576   3.856  0.2347 -0.1103  0.4508
12112SOL    HW238014   3.044   0.562   3.850  0.2191  0.5374 -0.7315
12113SOL     OW38015   2.222   1.482   3.146 -0.4853 -0.1185 -0.3256
12113SOL    HW138016   2.298   1.529   3.181 -1.4370  1.0656  0.1981
12113SOL    HW238017   2.260   1.414   3.089  0.9414  0.7679 -0.4713
12114SOL     OW38018   7.974   5.368   2.145  0.1276  0.1090  0.5222
12114SOL    HW138019   7.939   5.293   2.192 -0.3037  0.9838  1.6029
12114SOL    HW238020   7.959   5.347   2.052  2.1126 -2.1831  0.6552
12115SOL     OW38021   2.290   4.886   0.935  0.1888  0.0412  0.8330
12115SOL    HW138022   2.204   4.912   0.902  1.1770  0.7694 -1.1826
12115SOL    HW238023   2.314   4.955   0.997  0.2414  0.9142 -0.1554
12116SOL     OW38024   7.885   3.251   8.575  0.0291  0.3625  0.5424
12116SOL    HW138025   7.886   3.184   8.643 -0.2283 -0.0177  0.1724
12116SOL    HW238026   7.938   3.215   8.504  2.6569  1.9235  1.6288
12117SOL     OW38027   4.296   6.812   6.983 -0.1325  0.7115 -0.2266
12117SOL    HW138028   4.258   6.767   7.059  0.3838  0.0831 -0.3399
12117SOL    HW238029   4.220   6.849   6.937 -0.6177 -0.4833 -0.4171
12118SOL     OW38030   7.326   4.685   5.953 -0.3169 -0.3686 -0.0624
12118SOL    HW138031   7.359   4.692   6.043  0.0465  0.8674 -0.2801
12118SOL    HW238032   7.242   4.731   5.955 -0.8832 -1.3949 -0.0801
12119SOL     OW38033   7.459   5.691   2.907  0.3626 -0.4752 -0.3964
12119SOL    HW138034   7.439   5.618   2.849 -1.4197 -0.3896  0.0781
12119SOL    HW238035   7.485   5.650   2.989 -0.0761 -0.5823 -0.3105
12120SOL     OW38036   3.192   4.918   2.043 -0.1147 -0.3156  0.8159
12120SOL    HW138037   3.128   4.986   2.060 -0.3994 -0.6413  1.0643
12120SOL    HW238038   3.256   4.926   2.114  0.1564  0.0545  0.5286
12121SOL     OW38039   5.799   4.361   0.720 -0.4802 -0.3475 -0.4094
12121SOL    HW138040   5.784   4.444   0.675 -0.9187 -0.8292 -1.1683
12121SOL    HW238041   5.855   4.312   0.660  0.7758 -0.1370  0.5805
12122SOL     OW38042   1.483   0.743   7.958 -0.7108  0.4568  0.7020
12122SOL    HW138043   1.524   0.748   8.044 -0.3077  3.2029  0.3811
12122SOL    HW238044   1.553   0.765   7.896 -1.0435 -1.2974 -0.3256
12123SOL     OW38045   8.405   1.062   1.951 -0.0743  0.9875 -0.2118
12123SOL    HW138046   8.449   1.074   1.866 -0.7635  0.3873 -0.6574
12123SOL    HW238047   8.453   1.120   2.011  0.8235  0.9417 -0.8664
12124SOL     OW38048   5.484   2.486   1.997 -0.1259  0.5593 -0.6136
12124SOL    HW138049   5.440   2.571   1.996  1.1994  1.2725 -0.4309
12124SOL    HW238050   5.438   2.436   2.064  0.5517  1.9617  0.9275
12125SOL     OW38051   8.935   1.011   3.970  0.5889 -0.1150 -0.0001
12125SOL    HW138052   9.011   1.014   4.028  0.3514 -1.0088  0.3562
12125SOL    HW238053   8.958   1.070   3.898  1.5091 -0.1783  0.2387
12126SOL     OW38054   4.369   5.793   3.317 -0.1438 -0.1299 -0.1184
12126SOL    HW138055   4.310   5.722   3.341  0.4699 -0.7152 -0.3056
12126SOL    HW238056   4.327   5.835   3.242  0.2263 -1.2861 -0.9985
12127SOL     OW38057   0.271   1.454   3.540 -0.4299  0.7844  0.0745
12127SOL    HW138058   0.230   1.493   3.617 -0.0755  0.8643  0.2227
12127SOL    HW238059   0.223   1.490   3.466 -0.8226  0.6471  0.2633
12128SOL     OW38060   7.436   2.592   0.130  0.5101 -0.2642 -0.2415
12128SOL    HW138061   7.355   2.567   0.174  0.8129 -1.1127 -0.1548
12128SOL    HW238062   7.433   2.547   0.046  0.7903 -0.1168 -0.3332
12129SOL     OW38063   3.253   2.859   1.811 -0.0531  0.5711  0.5563
12129SOL    HW138064   3.176   2.916   1.801 -0.8552 -0.2599  1.8111
12129SOL    HW238065   3.281   2.874   1.902  0.0474 -0.6331  0.7264
12130SOL     OW38066   4.466   8.016   1.016  0.2380  0.1727 -0.2483
12130SOL    HW138067   4.461   8.109   0.994  0.8587  0.3208  0.2046
12130SOL    HW238068   4.525   8.013   1.092 -0.0989 -0.5484 -0.0159
12131SOL     OW38069   6.035   7.802   3.844  0.1049  0.3488  0.4458
12131SOL    HW138070   5.941   7.805   3.827 -0.1772  0.7468  2.0510
12131SOL    HW238071   6.073   7.766   3.763 -1.2276  1.9296 -0.9168
12132SOL     OW38072   7.894   7.973   3.003  0.1487 -0.0869 -0.0855
12132SOL    HW138073   7.960   7.966   3.072 -0.4184  1.0725  0.5816
12132SOL    HW238074   7.810   7.972   3.049 -0.2131  1.4162 -0.6747
12133SOL     OW38075   0.964   6.108   1.639 -0.0511  0.2819 -0.5672
12133SOL    HW138076   0.927   6.144   1.558  0.2035  1.8691 -0.0024
12133SOL    HW238077   1.002   6.024   1.613 -0.8324  0.3182 -1.8943
12134SOL     OW38078   4.641   5.951   4.120  0.1853 -0.0511 -0.5189
12134SOL    HW138079   4.657   5.861   4.092 -1.2465 -0.3072 -0.5633
12134SOL    HW238080   4.578   5.943   4.192 -0.3390  0.9285 -0.8547
12135SOL     OW38081   4.966   2.207   8.464  0.7746 -0.2252  0.0788
12135SOL    HW138082   5.030   2.260   8.415  3.1253 -1.9241  1.2441
12135SOL    HW238083   4.911   2.272   8.508  1.9887  1.2765 -0.5515
12136SOL     OW38084   1.151   4.843   3.150  0.1944 -0.1073  0.2894
12136SOL    HW138085   1.072   4.836   3.204  0.1978  1.9571  0.6241
12136SOL    HW238086   1.120   4.832   3.060 -0.2234 -0.9083  0.5299
12137SOL     OW38087   7.019   8.352   2.938 -0.0068  0.2731  0.1792
12137SOL    HW138088   7.103   8.328   2.898  0.3254 -0.0397  1.0583
12137SOL    HW238089   7.030   8.443   2.966  0.2296  0.0605  0.7855
12138SOL     OW38090   4.956   1.461   6.937 -0.0460 -0.4480 -0.3809
12138SOL    HW138091   5.004   1.428   7.013  1.7330 -1.6691 -1.9972
12138SOL    HW238092   5.000   1.543   6.914 -2.0793  1.1819  1.3030
12139SOL     OW38093   9.120   1.579   1.350 -0.2962 -0.3831 -0.0034
12139SOL    HW138094   9.026   1.563   1.356  0.0876 -2.3968  1.2022
12139SOL    HW238095   9.132   1.666   1.387 -1.5889 -0.4795  0.6845
12140SOL     OW38096   3.469   4.631   6.677  0.0402 -0.2389  0.1226
12140SOL    HW138097   3.442   4.540   6.685 -1.6848  0.4987  3.7580
12140SOL    HW238098   3.390   4.676   6.645  0.8221  0.0316 -1.4661
12141SOL     OW38099   4.041   6.829   6.585  0.0770 -0.0026 -0.3345
12141SOL    HW138100   4.075   6.918   6.594  0.1294  0.2278 -2.5258
12141SOL    HW238101   3.946   6.841   6.576 -0.2291 -0.3859  2.0620
12142SOL     OW38102   4.636   8.852   9.105 -0.6539 -0.5581  0.0395
12142SOL    HW138103   4.726   8.882   9.094  0.3202 -2.9973  1.0808
12142SOL    HW238104   4.583   8.930   9.091  1.5670  0.7377 -1.4237
12143SOL     OW38105   2.052   8.624   6.984 -0.6386  0.7346  0.0101
12143SOL    HW138106   2.114   8.565   7.027 -1.1440 -1.8545 -2.6528
12143SOL    HW238107   2.104   8.667   6.916 -1.2313  0.3411 -0.6857
12144SOL     OW38108   8.122   1.118   7.442  0.0000  0.2542  0.0681
12144SOL    HW138109   8.159   1.206   7.446 -0.9227  0.7160 -1.3122
12144SOL    HW238110   8.190   1.065   7.401  0.0322  0.6089 -0.3381
12145SOL     OW38111   3.027   4.109   0.540  0.0142  0.0445 -1.2610
12145SOL    HW138112   2.978   4.135   0.462  0.3390 -0.3728 -1.6064
12145SOL    HW238113   3.034   4.013   0.533 -0.2760 -0.0366 -0.5330
12146SOL     OW38114   5.527   4.127   6.411  0.1886  0.8276 -0.3144
12146SOL    HW138115   5.450   4.173   6.379  0.5212  1.6537  0.0656
12146SOL    HW238116   5.600   4.185   6.391  0.6504  0.3120 -0.1475
12147SOL     OW38117   5.234   2.962   6.325 -0.0444  0.3541  0.0191
12147SOL    HW138118   5.262   2.877   6.290 -1.7889 -1.0259  1.9193
12147SOL    HW238119   5.141   2.951   6.345 -1.3630  3.9297 -3.3617
12148SOL     OW38120   0.687   4.086   1.354 -0.0647  0.0342  0.0393
12148SOL    HW138121   0.757   4.101   1.291 -1.6437 -0.2400 -1.8167
12148SOL    HW238122   0.709   4.003   1.396  1.3873  0.5933  0.4090
12149SOL     OW38123   6.133   3.072   4.841 -0.4452  0.2448 -0.4339
12149SOL    HW138124   6.112   3.043   4.753  0.0677 -0.3648 -0.3534
12149SOL    HW238125   6.133   3.168   4.836  1.3667  0.2039 -1.5067
12150SOL     OW38126   0.025   2.150   8.441  0.1751  0.2763  0.2875
12150SOL    HW138127   0.068   2.126   8.523  0.5867  0.5006  0.1402
12150SOL    HW238128  -0.067   2.132   8.456  0.4571 -1.3261  0.2248
12151SOL     OW38129   5.017   5.203   5.922 -0.9425 -0.3470  0.0959
12151SOL    HW138130   5.097   5.246   5.893 -0.5750 -0.2522  1.2640
12151SOL    HW238131   4.996   5.243   6.006 -2.9487  0.5721 -0.8095
12152SOL     OW38132   6.867   6.531   1.830 -0.0265 -0.1962 -0.4191
12152SOL    HW138133   6.855   6.464   1.897  1.9386 -0.0832  0.0724
12152SOL    HW238134   6.894   6.609   1.878  2.4412 -0.4041 -1.3835
12153SOL     OW38135   2.599   6.697   0.022  0.4074  0.4271 -0.0993
12153SOL    HW138136   2.657   6.622   0.016  1.7722  1.4617 -0.1622
12153SOL    HW238137   2.514   6.665  -0.007  1.0364 -1.0119 -0.3682
12154SOL     OW38138   4.870   5.209   2.753 -0.1505  0.3251 -0.3081
12154SOL    HW138139   4.819   5.281   2.715  0.6951  0.6349 -0.8636
12154SOL    HW238140   4.837   5.131   2.710 -0.5935  0.4546 -0.2067
12155SOL     OW38141   5.881   1.373   6.449 -0.0174  0.2802 -0.4512
12155SOL    HW138142   5.834   1.416   6.377 -0.5328  2.1863  0.9982
12155SOL    HW238143   5.830   1.393   6.527  2.3178  1.0484  0.9188
12156SOL     OW38144   4.132   7.104   4.937 -0.0050  0.2873  0.1460
12156SOL    HW138145   4.212   7.080   4.983 -0.3168 -1.2707 -0.0827
12156SOL    HW238146   4.061   7.076   4.995 -0.3904  0.7439 -0.0979
12157SOL     OW38147   7.290   7.930   6.332 -0.4885  0.1606 -0.3314
12157SOL    HW138148   7.222   7.889   6.385 -2.0503 -0.7233 -2.9313
12157SOL    HW238149   7.248   8.007   6.294 -0.1986 -0.5618 -2.2043
12158SOL     OW38150   8.180   3.400   0.088 -0.8895  0.0741  0.2180
12158SOL    HW138151   8.244   3.333   0.064 -0.2953  0.6218  0.2350
12158SOL    HW238152   8.178   3.399   0.184 -0.8633  0.0933  0.2188
12159SOL     OW38153   1.699   8.839   6.670  0.3088 -1.0394  0.7280
12159SOL    HW138154   1.681   8.771   6.604 -0.9056 -0.6531  0.6427
12159SOL    HW238155   1.788   8.820   6.701  0.9770 -1.1287 -1.1535
12160SOL     OW38156   0.431   0.290   2.586  0.0566 -0.0728  0.3836
12160SOL    HW138157   0.399   0.360   2.644  0.3991  0.2767  0.1463
12160SOL    HW238158   0.417   0.324   2.498  3.0790  0.9833  0.2673
12161SOL     OW38159   0.461   9.247   6.321  0.4283  0.2889 -0.2563
12161SOL    HW138160   0.556   9.258   6.329  0.2847  0.7299  0.9731
12161SOL    HW238161   0.424   9.316   6.375 -0.5951 -0.1250 -0.4135
12162SOL     OW38162   2.849   6.456   7.639  0.3817 -0.1263 -0.9932
12162SOL    HW138163   2.897   6.535   7.614  0.2923 -0.3164 -1.7663
12162SOL    HW238164   2.771   6.489   7.684  0.4476  0.2201 -1.1297
12163SOL     OW38165   0.053   0.556   5.148  0.7119 -0.4501  0.2499
12163SOL    HW138166  -0.040   0.559   5.171  0.8485  2.3539  0.6044
12163SOL    HW238167   0.098   0.590   5.225  1.9099 -0.0884 -0.5980
12164SOL     OW38168   6.971   2.917   4.033  0.1128 -0.2210  0.1615
12164SOL    HW138169   7.048   2.915   4.089 -0.8170  1.0084  1.5430
12164SOL    HW238170   7.000   2.881   3.950  2.4186  1.1149  0.3648
12165SOL     OW38171   0.736   2.701   4.489  0.0970  0.2796 -0.3771
12165SOL    HW138172   0.697   2.688   4.402  0.7759 -1.9693 -0.3662
12165SOL    HW238173   0.830   2.703   4.473  0.1854  1.1095  0.1800
12166SOL     OW38174   0.568   6.415   3.613  0.0685 -0.5887  0.2777
12166SOL    HW138175   0.500   6.356   3.644 -0.7612  0.4876  0.5305
12166SOL    HW238176   0.523   6.497   3.595  0.8479 -0.6256 -2.0682
12167SOL     OW38177   5.436   4.678   0.001 -0.4282  0.2026 -0.3074
12167SOL    HW138178   5.470   4.734  -0.069  1.9267  1.1751  1.5886
12167SOL    HW238179   5.429   4.735   0.077 -0.6006 -1.4453  0.9443
12168SOL     OW38180   8.780   1.913   5.222 -0.1543 -0.8117 -0.2881
12168SOL    HW138181   8.799   1.820   5.231 -0.4680 -0.9233 -0.7805
12168SOL    HW238182   8.684   1.918   5.216 -0.2383 -0.3330  1.2130
12169SOL     OW38183   7.153   5.465   5.642  0.6230  0.5841 -0.2998
12169SOL    HW138184   7.205   5.441   5.566  0.8622  0.1156  0.0080
12169SOL    HW238185   7.215   5.504   5.703  1.2749 -2.8354  1.3783
12170SOL     OW38186   1.807   4.189   0.340  0.2967  0.4301  0.4266
12170SOL    HW138187   1.751   4.262   0.367 -1.6289 -0.5215 -0.9299
12170SOL    HW238188   1.878   4.189   0.405 -0.7262  2.2675  1.6006
12171SOL     OW38189   7.289   4.691   2.766  0.1697  0.1104  0.0244
12171SOL    HW138190   7.316   4.735   2.685  0.2379 -2.5435 -1.4785
12171SOL    HW238191   7.278   4.599   2.740 -1.3655 -0.5102  2.6940
12172SOL     OW38192   8.196   2.745   4.548 -0.1170 -0.6108 -0.0044
12172SOL    HW138193   8.265   2.708   4.602  1.0795  0.3214 -0.8776
12172SOL    HW238194   8.188   2.836   4.575 -0.3184 -0.4492 -0.5814
12173SOL     OW38195   8.996   4.014   6.624  0.1906 -0.0239  0.4554
12173SOL    HW138196   8.938   3.996   6.698  0.5603  0.0851  0.7730
12173SOL    HW238197   8.967   3.954   6.556 -0.9119  0.6741  0.2883
12174SOL     OW38198   2.358   8.668   2.460  0.9719 -0.1596 -0.1237
12174SOL    HW138199   2.317   8.593   2.504 -0.2327  1.6112  1.9149
12174SOL    HW238200   2.286   8.707   2.410  1.5616 -0.2656 -1.0571
12175SOL     OW38201   6.854   8.052   2.416 -0.1613  0.6482 -0.1753
12175SOL    HW138202   6.765   8.054   2.452  0.5539 -0.3060  1.7288
12175SOL    HW238203   6.909   8.086   2.487  1.0453  0.8960 -1.2095
12176SOL     OW38204   8.692   6.674   4.628 -0.2726 -0.6189  0.1974
12176SOL    HW138205   8.655   6.756   4.662  0.3344 -0.7198  1.1137
12176SOL    HW238206   8.717   6.695   4.538 -1.2708 -0.1506  0.0310
12177SOL     OW38207   0.486   6.659   8.316  0.3431 -0.4610 -0.3957
12177SOL    HW138208   0.575   6.642   8.345  1.6178  2.3287 -2.3587
12177SOL    HW238209   0.458   6.734   8.369 -0.7333 -1.1671  0.0363
12178SOL     OW38210   7.865   2.538   2.361  0.6388  0.1004 -0.6149
12178SOL    HW138211   7.893   2.497   2.443  1.0935 -0.2261 -0.9320
12178SOL    HW238212   7.777   2.570   2.379  0.5819 -0.3312 -0.1227
12179SOL     OW38213   6.226   8.667   2.454  0.7746  0.0809 -0.0488
12179SOL    HW138214   6.204   8.582   2.493  1.5605  0.4769  1.2868
12179SOL    HW238215   6.317   8.657   2.425  0.2040 -0.2079 -1.8040
12180SOL     OW38216   4.272   0.806   2.753  0.0049  0.3263  0.2551
12180SOL    HW138217   4.355   0.849   2.736  0.4529 -0.9979 -0.9500
12180SOL    HW238218   4.207   0.864   2.714  0.5548  0.2608 -0.7753
12181SOL     OW38219   9.020   6.873   7.608 -0.4324 -0.4311 -0.1501
12181SOL    HW138220   9.038   6.965   7.588 -0.1484  0.1364  2.5204
12181SOL    HW238221   9.099   6.827   7.582  0.3759  0.4345  0.7243
12182SOL     OW38222   1.867   8.787   7.280 -0.6449  0.2145  0.1318
12182SOL    HW138223   1.862   8.767   7.187 -3.5932  0.5752  0.1618
12182SOL    HW238224   1.789   8.748   7.318  2.0484 -2.6687  3.0646
12183SOL     OW38225   5.713   6.210   0.472 -0.5444 -0.2189 -0.6885
12183SOL    HW138226   5.680   6.129   0.512  1.5733 -0.9814 -0.4056
12183SOL    HW238227   5.735   6.266   0.546  4.3986 -2.0444 -0.6232
12184SOL     OW38228   1.042   2.493   7.259  0.1019  0.2781  0.6636
12184SOL    HW138229   0.992   2.530   7.186 -2.0671  0.1400  2.0405
12184SOL    HW238230   1.088   2.568   7.297 -0.2471  0.6643  0.3253
12185SOL     OW38231   4.968   1.988   8.267 -0.2084 -0.2892 -0.0241
12185SOL    HW138232   4.952   2.061   8.327 -2.0471 -0.4312 -0.3115
12185SOL    HW238233   4.945   1.910   8.317 -2.0208 -0.3893 -0.9661
12186SOL     OW38234   6.654   1.834   7.211  0.1354  0.3249  0.8347
12186SOL    HW138235   6.618   1.751   7.242  0.4179  0.6018  1.9064
12186SOL    HW238236   6.640   1.832   7.116 -0.3660 -0.6980  0.9250
12187SOL     OW38237   3.000   6.041   1.818  0.1554  0.4498 -0.2468
12187SOL    HW138238   2.994   6.009   1.728 -1.6321  2.3169 -0.8582
12187SOL    HW238239   2.909   6.049   1.846  0.6663  1.0326  1.2939
12188SOL     OW38240   1.687   7.354   0.796  0.3747  0.9160 -0.2712
12188SOL    HW138241   1.607   7.381   0.752  0.6174  0.5350 -0.9667
12188SOL    HW238242   1.693   7.259   0.780  0.6527  0.8370  0.2812
12189SOL     OW38243   3.875   6.241   5.621 -0.4771  0.3116  0.4993
12189SOL    HW138244   3.823   6.309   5.664 -0.3395  1.0811 -0.5213
12189SOL    HW238245   3.829   6.224   5.539  0.1970  0.1124  0.1557
12190SOL     OW38246   3.862   0.324   8.968  0.2130  0.1218 -0.0116
12190SOL    HW138247   3.787   0.276   9.003 -0.9093  2.6488  1.1517
12190SOL    HW238248   3.938   0.273   8.995 -1.0250 -2.4060 -1.0723
12191SOL     OW38249   9.223   3.772   0.663  0.2312 -0.3691  0.5818
12191SOL    HW138250   9.309   3.741   0.690  0.3460  0.2191  0.8976
12191SOL    HW238251   9.164   3.700   0.686  0.3710 -0.0192  2.1047
12192SOL     OW38252   9.111   3.322   1.279  0.1353 -0.2467 -0.2092
12192SOL    HW138253   9.108   3.336   1.184 -1.2800 -1.0828 -0.3064
12192SOL    HW238254   9.162   3.241   1.289  0.4530 -0.0517 -0.2412
12193SOL     OW38255   3.835   3.524   1.948  0.1571 -0.5298  0.0632
12193SOL    HW138256   3.918   3.496   1.984 -0.8067 -1.4171  1.6321
12193SOL    HW238257   3.778   3.448   1.956 -1.3858  0.6757  0.8714
12194SOL     OW38258   4.486   8.397   4.576  0.4317 -0.3454  0.4521
12194SOL    HW138259   4.403   8.391   4.528 -0.3948  1.2507  1.6299
12194SOL    HW238260   4.541   8.329   4.537 -1.3892 -1.3608 -0.4313
12195SOL     OW38261   7.049   7.876   4.407 -0.0192 -0.2179 -0.1596
12195SOL    HW138262   7.007   7.849   4.325 -0.2875 -0.0598 -0.0735
12195SOL    HW238263   7.132   7.828   4.408 -0.3273 -0.7564 -0.1904
12196SOL     OW38264   9.016   5.989   2.808  0.3147 -0.5671  0.3679
12196SOL    HW138265   9.037   5.983   2.715  0.9551  0.3814  0.4413
12196SOL    HW238266   8.939   6.046   2.811  1.1716  0.6034  0.5174
12197SOL     OW38267   5.977   3.280   1.081  0.6902  0.8116  0.4775
12197SOL    HW138268   5.885   3.302   1.097  0.4302 -0.9567  1.4771
12197SOL    HW238269   6.026   3.342   1.135  0.0466  0.8899  0.9765
12198SOL     OW38270   8.882   7.811   6.939  0.2630  0.1290 -0.2680
12198SOL    HW138271   8.817   7.760   6.891  0.6102 -0.7012  0.1306
12198SOL    HW238272   8.959   7.810   6.882  0.3648 -0.0440 -0.1287
12199SOL     OW38273   3.029   4.062   0.807  0.6658 -0.0624  0.2325
12199SOL    HW138274   3.048   4.069   0.714  1.7239  1.3431  0.5381
12199SOL    HW238275   2.944   4.105   0.818  1.0933  0.8279  0.0887
12200SOL     OW38276   4.012   2.707   6.816  0.1063  0.4386 -0.0657
12200SOL    HW138277   4.092   2.677   6.859  1.2535  0.1916 -2.3260
12200SOL    HW238278   4.015   2.802   6.821 -0.3658  0.4014  1.3987
12201SOL     OW38279   8.628   5.062   5.806 -0.0340 -0.3343  0.9849
12201SOL    HW138280   8.713   5.103   5.801 -0.8066  1.0519 -2.1531
12201SOL    HW238281   8.571   5.128   5.846 -0.1108 -0.4054  0.9936
12202SOL     OW38282   4.986   1.410   1.897  0.4290 -0.1327  0.3403
12202SOL    HW138283   4.986   1.378   1.987 -0.1227 -0.8385  0.0907
12202SOL    HW238284   5.044   1.350   1.850 -1.6230 -1.5756 -0.4041
12203SOL     OW38285   6.109   2.313   1.387  0.7658 -0.6320 -0.0435
12203SOL    HW138286   6.119   2.247   1.456 -0.1153 -0.3286  0.3730
12203SOL    HW238287   6.026   2.356   1.406  0.4001 -0.6905 -1.4105
12204SOL     OW38288   4.767   2.337   8.971  0.4607 -0.6174  0.5173
12204SOL    HW138289   4.678   2.371   8.982 -0.1553 -1.7888 -0.6548
12204SOL    HW238290   4.814   2.367   9.049 -0.5070  1.4128  0.3388
12205SOL     OW38291   5.994   6.396   0.942 -0.3497  0.0410  0.2908
12205SOL    HW138292   6.074   6.425   0.986 -0.5730 -1.5737  1.7926
12205SOL    HW238293   6.025   6.355   0.861  0.0822  2.7290 -0.9467
12206SOL     OW38294   0.238   7.324   8.267  0.1174  0.4147 -0.0316
12206SOL    HW138295   0.183   7.284   8.335 -0.9850  0.3602 -0.9480
12206SOL    HW238296   0.233   7.263   8.194 -0.1040  1.3300 -0.7863
12207SOL     OW38297   3.894   6.682   1.753 -0.1142  0.1762 -0.0671
12207SOL    HW138298   3.874   6.759   1.806  0.5533 -0.9737  1.8846
12207SOL    HW238299   3.814   6.667   1.702 -1.2165  0.5647  1.5032
12208SOL     OW38300   6.020   6.079   1.791  0.1981  0.2822  0.3453
12208SOL    HW138301   6.043   6.105   1.702  0.1442 -1.0340 -0.0723
12208SOL    HW238302   5.978   5.993   1.780 -0.3703  0.3951  1.5761
12209SOL     OW38303   3.010   5.507   6.649  0.3306  0.3433 -0.4966
12209SOL    HW138304   2.966   5.585   6.681 -0.8333  0.2443 -1.7784
12209SOL    HW238305   2.996   5.441   6.716 -1.3006  0.3876 -0.7753
12210SOL     OW38306   0.964   0.750   3.531  0.4310  0.2720 -0.1012
12210SOL    HW138307   0.902   0.730   3.460  2.0260 -1.5212 -1.0200
12210SOL    HW238308   0.958   0.675   3.590  1.8450 -0.0077 -0.2968
12211SOL     OW38309   3.760   5.516   7.035 -0.0879 -0.5867 -0.5917
12211SOL    HW138310   3.732   5.594   6.988  0.4535 -1.4778 -2.4384
12211SOL    HW238311   3.803   5.549   7.113 -0.1620  0.9466 -1.1869
12212SOL     OW38312   5.239   3.491   0.726  0.1498 -0.1856 -0.7457
12212SOL    HW138313   5.182   3.422   0.760  0.5622 -0.5861 -0.8624
12212SOL    HW238314   5.281   3.528   0.803 -0.5753  0.3956 -0.6159
12213SOL     OW38315   7.004   0.568   8.389 -0.6459 -0.1028 -0.6089
12213SOL    HW138316   7.038   0.609   8.469  1.9968 -1.2973 -1.0650
12213SOL    HW238317   7.081   0.529   8.348 -2.0278  0.1895 -3.5880
12214SOL     OW38318   3.421   4.098   5.807  0.7050 -0.0437  0.0971
12214SOL    HW138319   3.458   4.079   5.721 -0.0803 -2.3095  0.1967
12214SOL    HW238320   3.354   4.164   5.791 -0.9056 -1.9593 -1.4399
12215SOL     OW38321   5.651   3.478   6.750  0.2238 -0.1256  0.3942
12215SOL    HW138322   5.652   3.553   6.809  0.7863 -0.9320  1.4368
12215SOL    HW238323   5.693   3.408   6.800  1.6917 -0.5443 -1.3488
12216SOL     OW38324   7.980   4.584   9.086  0.1751 -0.2929 -0.4317
12216SOL    HW138325   7.927   4.663   9.096  2.0416  1.1429 -1.5694
12216SOL    HW238326   7.955   4.529   9.160 -1.7498  0.9957 -0.0766
12217SOL     OW38327   8.332   3.168   3.473 -0.0748 -1.0502 -0.0077
12217SOL    HW138328   8.353   3.137   3.561 -0.5661  0.7049  0.7515
12217SOL    HW238329   8.405   3.224   3.449 -1.1330  0.5265  0.3439
12218SOL     OW38330   4.287   8.615   3.641 -0.3423 -0.4363 -0.5920
12218SOL    HW138331   4.308   8.686   3.581  0.8362 -0.5543 -0.3310
12218SOL    HW238332   4.198   8.634   3.671 -0.0594  0.8925 -0.5803
12219SOL     OW38333   2.604   2.427   2.039 -0.4538  0.4484  0.3377
12219SOL    HW138334   2.651   2.345   2.053 -1.4259 -0.3187 -0.8112
12219SOL    HW238335   2.525   2.419   2.093 -0.7239  0.4767 -0.0530
12220SOL     OW38336   8.406   4.782   2.841  0.6096  0.7253 -0.1640
12220SOL    HW138337   8.450   4.855   2.886  0.6625 -0.3433  1.5888
12220SOL    HW238338   8.478   4.724   2.815  0.3375 -0.9454  2.5646
12221SOL     OW38339   1.822   5.520   2.302 -0.5958 -0.1151  0.3004
12221SOL    HW138340   1.911   5.524   2.268 -0.3683 -0.7542  0.8072
12221SOL    HW238341   1.796   5.429   2.289 -1.4902  0.2716 -0.6441
12222SOL     OW38342   9.292   1.015   7.295  0.6555  0.3317  0.3684
12222SOL    HW138343   9.383   1.040   7.278  0.9188  0.2954  1.7207
12222SOL    HW238344   9.297   0.951   7.366 -0.4353  0.4043  0.5232
12223SOL     OW38345   1.339   2.525   1.570  0.7147  0.0347 -0.3053
12223SOL    HW138346   1.307   2.452   1.623  1.2083 -0.5500 -0.8224
12223SOL    HW238347   1.417   2.556   1.616  1.7639 -1.1615 -1.2713
12224SOL     OW38348   8.781   8.510   1.725  0.0426 -0.0009  0.3452
12224SOL    HW138349   8.788   8.425   1.683 -0.1523 -0.6495  1.6255
12224SOL    HW238350   8.811   8.572   1.658  3.6664 -1.3606  0.6282
12225SOL     OW38351   8.240   2.667   2.125 -0.4700 -0.4259 -0.2987
12225SOL    HW138352   8.165   2.608   2.134 -0.2002 -1.1274 -2.4540
12225SOL    HW238353   8.241   2.691   2.033  2.4124 -1.0211 -0.4664
12226SOL     OW38354   0.829   1.277   8.222  0.1771  0.5510 -0.1769
12226SOL    HW138355   0.924   1.266   8.224  0.0724 -0.1560  0.9060
12226SOL    HW238356   0.815   1.343   8.154  1.4201  0.4866 -0.5173
12227SOL     OW38357   0.399   0.076   1.615 -0.0018  0.0759  0.1386
12227SOL    HW138358   0.447   0.087   1.697 -2.1605  1.0455  1.2902
12227SOL    HW238359   0.316   0.036   1.640 -0.3201 -0.4827 -1.6926
12228SOL     OW38360   3.924   2.856   5.907  0.2009  0.1775  0.7862
12228SOL    HW138361   3.844   2.876   5.858  0.4269 -1.2331 -0.1785
12228SOL    HW238362   3.893   2.802   5.980  0.1378  0.5659  1.0513
12229SOL     OW38363   6.268   8.557   2.787  0.3276  0.5856 -0.5727
12229SOL    HW138364   6.204   8.491   2.812  0.2297  0.3396 -1.4658
12229SOL    HW238365   6.221   8.615   2.727  1.1900 -0.1374 -1.9762
12230SOL     OW38366   8.897   5.100   7.423  0.2337 -0.3350 -0.1827
12230SOL    HW138367   8.961   5.047   7.375  0.4544 -0.9021  0.7159
12230SOL    HW238368   8.949   5.169   7.464  0.5601 -1.8082  1.9839
12231SOL     OW38369   8.505   0.421   2.533 -0.2479  0.1736  0.0158
12231SOL    HW138370   8.479   0.458   2.449  0.6069 -0.1889 -0.4231
12231SOL    HW238371   8.531   0.497   2.586 -0.1110  0.3474 -0.2992
12232SOL     OW38372   1.433   9.179   9.258 -0.1074  0.0823 -0.0540
12232SOL    HW138373   1.465   9.202   9.170  0.3964  1.3636  0.4562
12232SOL    HW238374   1.501   9.210   9.317 -0.9949  0.2718  0.8766
12233SOL     OW38375   2.901   3.939   2.893 -0.1211 -0.3001 -0.0373
12233SOL    HW138376   2.913   3.867   2.955 -0.0494 -0.8083 -0.6322
12233SOL    HW238377   2.976   3.932   2.834 -0.6387 -0.3507 -0.6992
12234SOL     OW38378   3.210   1.957   0.247  0.1777 -0.2221  0.5350
12234SOL    HW138379   3.118   1.972   0.228  0.6943  1.5526 -0.6707
12234SOL    HW238380   3.221   1.988   0.337 -0.3848 -0.3457  0.6476
12235SOL     OW38381   0.099   5.827   1.045  0.5320 -0.2464  0.8008
12235SOL    HW138382   0.079   5.743   1.005  0.6827  0.5972 -1.1316
12235SOL    HW238383   0.195   5.830   1.047  0.5625  0.6383 -0.8854
12236SOL     OW38384   4.482   0.838   6.923  0.0704  0.1506 -0.3756
12236SOL    HW138385   4.516   0.891   6.851  0.0128  0.3522 -0.2530
12236SOL    HW238386   4.508   0.885   7.002 -1.4276  0.8688 -0.2987
12237SOL     OW38387   6.467   8.029   0.787 -0.0569 -0.6796  0.3224
12237SOL    HW138388   6.523   8.004   0.861  1.8636 -1.6931 -1.4168
12237SOL    HW238389   6.446   7.946   0.744 -0.5963 -0.0465 -0.6491
12238SOL     OW38390   0.411   8.271   3.620  0.0799  0.2711  0.6321
12238SOL    HW138391   0.403   8.211   3.546 -1.1744 -0.2667  1.1755
12238SOL    HW238392   0.504   8.293   3.625  0.5829 -1.7855  0.5392
12239SOL     OW38393   6.235   7.448   8.718 -0.8579  0.2532  0.2857
12239SOL    HW138394   6.197   7.450   8.630 -1.7342  0.2898  0.6614
12239SOL    HW238395   6.167   7.408   8.772  0.4332 -1.6211  0.5741
12240SOL     OW38396   1.429   5.920   7.369  0.2489  0.2031  0.1021
12240SOL    HW138397   1.447   6.013   7.380 -2.2992  0.7793 -0.2507
12240SOL    HW238398   1.441   5.904   7.275 -0.2718  0.4204 -0.0061
12241SOL     OW38399   4.368   6.736   4.300  0.3247 -0.6771  0.2560
12241SOL    HW138400   4.398   6.823   4.273 -0.0620 -0.9650 -1.1670
12241SOL    HW238401   4.319   6.751   4.381  2.8601  0.0036  1.7161
12242SOL     OW38402   8.816   1.941   6.059 -0.8644 -0.5925  0.5234
12242SOL    HW138403   8.722   1.926   6.051 -0.8952 -1.2708  1.9718
12242SOL    HW238404   8.823   2.030   6.094 -1.0590 -1.3207  2.4746
12243SOL     OW38405   8.441   8.996   5.414 -0.1232 -0.6794 -0.1531
12243SOL    HW138406   8.520   8.987   5.361 -0.5391 -1.1181 -0.7040
12243SOL    HW238407   8.389   8.919   5.393 -1.0165 -0.0355 -0.3310
12244SOL     OW38408   4.606   0.076   4.137 -0.2282 -0.2542  0.3136
12244SOL    HW138409   4.541   0.117   4.194 -0.6266 -1.1403  0.5097
12244SOL    HW238410   4.661   0.025   4.196  0.6196  0.4563  0.1386
12245SOL     OW38411   0.035   1.604   5.236 -0.0037  0.2056 -0.3800
12245SOL    HW138412  -0.045   1.640   5.276  1.2006  0.8590  1.4996
12245SOL    HW238413   0.106   1.653   5.277  1.4699 -1.7110 -0.5998
12246SOL     OW38414   8.945   9.206   9.057 -0.5611  0.0711  0.2396
12246SOL    HW138415   8.879   9.251   9.111 -1.7809 -1.1735 -0.1890
12246SOL    HW238416   9.001   9.160   9.120 -1.4301 -0.6372  0.5000
12247SOL     OW38417   8.698   2.507   3.480  1.0044  0.2680  0.1918
12247SOL    HW138418   8.746   2.426   3.492  1.4238  0.5691  0.5211
12247SOL    HW238419   8.607   2.484   3.501  1.5688  0.5706  3.0308
12248SOL     OW38420   8.893   1.589   1.865 -0.1334 -0.8786  0.0309
12248SOL    HW138421   8.899   1.632   1.950  4.1566  1.9547 -1.5837
12248SOL    HW238422   8.950   1.513   1.872  1.3243  0.1295 -0.7111
12249SOL     OW38423   3.955   2.320   7.296 -0.8542 -0.6007  0.3812
12249SOL    HW138424   3.864   2.350   7.289 -0.7292  0.6887  3.4271
12249SOL    HW238425   3.966   2.301   7.389  2.0462 -0.6556  0.0524
12250SOL     OW38426   5.066   1.439   2.371  0.2711 -0.0433  0.4094
12250SOL    HW138427   5.142   1.437   2.430  1.6828  2.3956 -1.2131
12250SOL    HW238428   5.104   1.427   2.284 -0.8038  3.6565 -0.6833
12251SOL     OW38429   4.736   2.778   5.384 -0.4256 -0.0879 -0.2643
12251SOL    HW138430   4.669   2.711   5.402  0.3380 -1.2666 -1.6616
12251SOL    HW238431   4.687   2.854   5.354 -1.2001 -0.5873 -0.2712
12252SOL     OW38432   6.349   0.109   2.799  0.4088  0.2413  0.6225
12252SOL    HW138433   6.262   0.081   2.773  0.6425 -1.1910  1.3225
12252SOL    HW238434   6.364   0.191   2.751 -0.8902 -0.0573 -0.3061
12253SOL     OW38435   4.944   3.637   2.219  0.3607 -0.3582  0.1929
12253SOL    HW138436   4.940   3.547   2.251 -1.2530 -0.9527 -1.6076
12253SOL    HW238437   4.929   3.691   2.297  0.1928 -1.6804  1.0830
12254SOL     OW38438   3.817   8.500   0.959  0.2499  0.2675 -0.4369
12254SOL    HW138439   3.835   8.594   0.952  1.0145  0.1789  0.2592
12254SOL    HW238440   3.742   8.486   0.901 -0.3659  1.4387  0.0596
12255SOL     OW38441   7.984   5.648   2.179  0.3018  0.0600  0.4203
12255SOL    HW138442   8.003   5.555   2.165  1.2805 -0.0102  2.1116
12255SOL    HW238443   7.923   5.671   2.108  0.1366 -1.8318 -0.0763
12256SOL     OW38444   8.339   1.383   3.257 -0.4810  0.1599 -0.2422
12256SOL    HW138445   8.417   1.358   3.207  0.2624 -1.4013  1.6172
12256SOL    HW238446   8.278   1.310   3.244 -1.0314  0.6545 -0.4431
12257SOL     OW38447   1.440   6.351   2.429  0.3379 -0.3977 -0.0877
12257SOL    HW138448   1.418   6.436   2.390 -2.4849 -0.5067  1.1232
12257SOL    HW238449   1.414   6.287   2.363 -1.0001 -0.4310  0.4465
12258SOL     OW38450   2.226   1.226   1.135 -0.3207  0.1655 -0.4388
12258SOL    HW138451   2.274   1.234   1.053  0.3361 -1.5215 -0.2367
12258SOL    HW238452   2.280   1.271   1.200 -1.2027  2.1469 -1.0605
12259SOL     OW38453   1.134   2.441   5.580  0.2972  0.0974  0.5200
12259SOL    HW138454   1.138   2.350   5.607  1.9407  0.6646  2.3187
12259SOL    HW238455   1.185   2.488   5.646  2.2383  1.9012 -2.1594
12260SOL     OW38456   4.604   2.365   4.175 -0.7671 -0.1257  0.3824
12260SOL    HW138457   4.612   2.438   4.237  1.1906 -1.1127  1.3351
12260SOL    HW238458   4.639   2.399   4.093 -1.5857  0.5748  0.3114
12261SOL     OW38459   2.400   5.054   5.134 -0.5853  0.3622 -0.1106
12261SOL    HW138460   2.355   5.040   5.051  3.1745  0.9689 -2.3808
12261SOL    HW238461   2.388   5.147   5.154 -1.9448  0.0979  0.3290
12262SOL     OW38462   5.525   5.577   6.107  0.3519  0.2103  0.1928
12262SOL    HW138463   5.536   5.587   6.012 -1.0119  0.7894  0.0880
12262SOL    HW238464   5.493   5.488   6.118  0.5678  0.1231  0.1174
12263SOL     OW38465   0.840   1.735   5.905 -0.4046 -0.2185  0.8562
12263SOL    HW138466   0.828   1.711   5.813 -1.3081  1.7699  0.4196
12263SOL    HW238467   0.898   1.668   5.940 -0.8437 -1.5630 -0.9139
12264SOL     OW38468   4.164   5.290   1.865  0.4216  0.2876 -0.5606
12264SOL    HW138469   4.176   5.230   1.792  0.4036 -0.8018  0.3185
12264SOL    HW238470   4.179   5.237   1.943  2.5691  1.9417  0.1889
12265SOL     OW38471   4.957   3.144   0.415 -0.0915 -0.4331 -0.3131
12265SOL    HW138472   4.933   3.235   0.432  0.5374 -0.2239 -0.5502
12265SOL    HW238473   4.896   3.093   0.468  0.1539  0.1461  0.5287
12266SOL     OW38474   5.916   1.298   8.143 -0.4844  0.2044  0.7011
12266SOL    HW138475   6.008   1.289   8.166 -0.1567 -1.1580 -1.0428
12266SOL    HW238476   5.916   1.358   8.068 -0.9475 -0.4065  0.2139
12267SOL     OW38477   5.125   6.495   8.906 -0.2364  0.1404 -0.1082
12267SOL    HW138478   5.070   6.436   8.854  0.0824  1.3077 -1.8286
12267SOL    HW238479   5.202   6.442   8.929 -0.3338 -0.3798 -0.9312
12268SOL     OW38480   9.148   4.503   1.721 -0.4831  0.3192 -0.3080
12268SOL    HW138481   9.235   4.479   1.692  0.9185  1.2010  2.8891
12268SOL    HW238482   9.106   4.542   1.644  2.5309  1.3943 -1.4526
12269SOL     OW38483   8.810   1.784   4.889  0.3920 -0.2110 -0.2350
12269SOL    HW138484   8.861   1.740   4.957  0.9870 -1.0322 -1.1967
12269SOL    HW238485   8.733   1.818   4.935 -0.8841 -3.5991  0.2912
12270SOL     OW38486   4.084   0.102   0.606  0.4010  0.0885  0.1039
12270SOL    HW138487   4.140   0.030   0.635 -0.1437 -0.1818  0.5081
12270SOL    HW238488   4.130   0.181   0.635  0.9966 -0.0952 -0.3334
12271SOL     OW38489   5.934   7.664   0.317  0.0061 -0.5212  0.3928
12271SOL    HW138490   5.912   7.593   0.257 -1.9342  1.9130 -1.8892
12271SOL    HW238491   5.850   7.702   0.341  1.0983  2.4479 -0.2446
12272SOL     OW38492   5.454   0.972   5.751 -0.2700  0.3649  0.3337
12272SOL    HW138493   5.423   1.050   5.705  0.8300  1.6750  1.7837
12272SOL    HW238494   5.549   0.980   5.751 -0.2127 -0.0351  2.0555
12273SOL     OW38495   6.357   6.915   4.895  0.4357 -0.1918 -0.0242
12273SOL    HW138496   6.279   6.860   4.886  1.0663 -0.9866 -0.8637
12273SOL    HW238497   6.333   6.998   4.854 -0.0555 -0.3524 -0.0630
12274SOL     OW38498   3.890   0.197   2.713 -0.3411 -0.6874  0.0192
12274SOL    HW138499   3.817   0.149   2.751  0.2066 -2.6924 -1.3862
12274SOL    HW238500   3.874   0.288   2.737 -1.8539 -1.4574  2.0031
12275SOL     OW38501   4.496   1.621   5.860  0.6332 -0.2392  0.0041
12275SOL    HW138502   4.455   1.548   5.906  0.8287  0.9126  2.0903
12275SOL    HW238503   4.454   1.699   5.896  2.3842  0.8030 -0.1495
12276SOL     OW38504   6.398   3.613   0.731 -0.3093  0.1898 -0.0538
12276SOL    HW138505   6.488   3.586   0.746  0.0600  2.4358  2.1764
12276SOL    HW238506   6.388   3.610   0.636  2.3691  0.5993 -0.4020
12277SOL     OW38507   8.725   5.746   4.778 -0.1705 -0.3986  0.0568
12277SOL    HW138508   8.744   5.686   4.850  0.6237 -2.0568 -1.5030
12277SOL    HW238509   8.810   5.762   4.737 -0.4075  1.6550  0.3235
12278SOL     OW38510   6.407   1.444   3.536 -0.1060 -0.0924 -0.2023
12278SOL    HW138511   6.400   1.472   3.627 -0.8474  0.7071 -0.4915
12278SOL    HW238512   6.493   1.403   3.530  0.4677  0.9521  0.5707
12279SOL     OW38513   5.199   0.385   9.182 -0.3152 -0.4908  0.0136
12279SOL    HW138514   5.112   0.360   9.151 -0.0487  0.4775 -1.5737
12279SOL    HW238515   5.252   0.390   9.102  1.1153 -0.7426  0.9295
12280SOL     OW38516   4.021   3.792   2.854  0.1122  0.2378  0.0572
12280SOL    HW138517   3.940   3.802   2.805 -0.0983 -0.8119  0.1697
12280SOL    HW238518   4.089   3.829   2.798 -0.2827  0.0515 -0.5388
12281SOL     OW38519   6.256   2.848   7.695  0.2675 -0.8488  0.1158
12281SOL    HW138520   6.254   2.834   7.790  0.5387  0.1431  0.2741
12281SOL    HW238521   6.260   2.943   7.685 -0.3689 -0.9211 -0.9038
12282SOL     OW38522   1.577   6.117   8.690  0.0376  0.4929  0.1381
12282SOL    HW138523   1.664   6.145   8.660  0.1913  1.0561  1.0933
12282SOL    HW238524   1.544   6.191   8.741 -0.6022 -0.1033  0.5946
12283SOL     OW38525   7.278   8.505   8.393  0.0878  0.0614 -0.1249
12283SOL    HW138526   7.298   8.598   8.380  0.0020  0.1173  0.1299
12283SOL    HW238527   7.335   8.478   8.465 -0.5587  0.1530  0.4298
12284SOL     OW38528   1.590   2.061   6.120  0.1002  0.7215  0.8558
12284SOL    HW138529   1.506   2.052   6.075  0.4115 -0.1197  0.4371
12284SOL    HW238530   1.645   2.110   6.059  1.3247 -2.5767 -0.8023
12285SOL     OW38531   8.617   5.204   6.078  0.0134  0.4218 -0.0610
12285SOL    HW138532   8.521   5.207   6.072 -0.0181  1.6379  0.9026
12285SOL    HW238533   8.639   5.111   6.064 -1.2940  0.1460 -0.3459
12286SOL     OW38534   5.845   5.122   5.705  0.2048 -0.0103 -0.2109
12286SOL    HW138535   5.804   5.190   5.758 -1.0663 -2.5690  2.2076
12286SOL    HW238536   5.773   5.066   5.677  1.6374 -2.9791  1.7725
12287SOL     OW38537   6.377   5.844   7.309 -0.5074 -0.1351 -0.0494
12287SOL    HW138538   6.312   5.814   7.373  1.9220 -2.9779  1.1868
12287SOL    HW238539   6.423   5.916   7.354 -1.3374  0.4477 -0.1130
12288SOL     OW38540   7.971   4.428   1.066 -0.4140 -0.5256 -0.1592
12288SOL    HW138541   7.969   4.461   1.156  0.1491 -1.2140  0.1086
12288SOL    HW238542   8.052   4.464   1.029 -0.3023 -0.8046 -0.1800
12289SOL     OW38543   1.605   6.449   7.532  0.2222  0.4731  0.0615
12289SOL    HW138544   1.654   6.463   7.613 -0.1057  1.8050  0.0486
12289SOL    HW238545   1.671   6.425   7.467  0.4072 -1.2169  0.8656
12290SOL     OW38546   1.653   2.819   7.043 -0.3311 -0.1941  0.4776
12290SOL    HW138547   1.691   2.770   7.116 -0.4561  0.3766  0.9322
12290SOL    HW238548   1.688   2.908   7.054 -0.1623 -0.1589 -0.2937
12291SOL     OW38549   5.887   3.462   8.512 -0.3218  0.0063  0.5765
12291SOL    HW138550   5.941   3.495   8.440 -0.3653 -0.3223  0.3922
12291SOL    HW238551   5.871   3.538   8.567 -2.2233  0.7759 -0.9712
12292SOL     OW38552   0.300   8.322   5.616  0.3496  0.0517 -0.1367
12292SOL    HW138553   0.228   8.270   5.581  0.2188  1.3494 -1.8769
12292SOL    HW238554   0.366   8.257   5.641 -1.6099 -1.1836  1.9908
12293SOL     OW38555   8.160   6.700   4.553 -0.3366 -0.1439  0.3819
12293SOL    HW138556   8.091   6.634   4.556 -1.3066  0.8393  0.0663
12293SOL    HW238557   8.241   6.650   4.547 -1.2144 -1.3209 -2.9256
12294SOL     OW38558   6.765   1.030   2.607  0.2242 -0.5281  0.1241
12294SOL    HW138559   6.766   0.950   2.553  0.8916  0.2297 -1.0098
12294SOL    HW238560   6.700   1.086   2.566 -1.4281 -1.1211  1.8922
12295SOL     OW38561   3.521   7.568   7.160  0.2243 -0.6999  0.4906
12295SOL    HW138562   3.567   7.538   7.239  0.5317 -0.8561  0.2557
12295SOL    HW238563   3.436   7.524   7.164  0.1090 -0.4373  0.9115
12296SOL     OW38564   7.901   6.317   5.784 -0.3005  0.1766  0.1482
12296SOL    HW138565   7.938   6.254   5.846 -0.5071 -0.2929 -0.2089
12296SOL    HW238566   7.938   6.292   5.700 -2.9033 -1.4921 -0.5465
12297SOL     OW38567   1.096   1.071   6.415 -0.1035 -0.2712  0.2900
12297SOL    HW138568   1.082   1.001   6.479  0.4003 -1.1433 -0.5324
12297SOL    HW238569   1.171   1.120   6.448  2.2022 -2.6447 -1.1963
12298SOL     OW38570   2.401   0.292   1.146 -0.2931 -0.1706  0.6384
12298SOL    HW138571   2.420   0.328   1.233  1.8613  0.3373 -0.0209
12298SOL    HW238572   2.388   0.369   1.090  0.2099 -0.4700  0.1055
12299SOL     OW38573   1.912   5.478   7.968 -0.5425 -0.0567 -0.0088
12299SOL    HW138574   1.888   5.538   8.039  0.2389 -0.0951  0.2841
12299SOL    HW238575   1.906   5.532   7.889 -0.1724  0.3173  0.2159
12300SOL     OW38576   0.134   0.056   4.203 -0.0404 -0.3706 -0.4690
12300SOL    HW138577   0.132  -0.033   4.240 -1.1559  0.1589  0.7771
12300SOL    HW238578   0.042   0.080   4.194  0.2538  0.4387 -1.3973
12301SOL     OW38579   8.989   3.611   9.144  0.0804  0.0433  0.1122
12301SOL    HW138580   8.907   3.659   9.156  0.3287  0.5008 -0.0187
12301SOL    HW238581   8.993   3.590   9.051 -1.4327 -2.7774  0.6138
12302SOL     OW38582   3.527   6.341   8.910  0.2670 -0.1957 -0.1737
12302SOL    HW138583   3.437   6.352   8.939  0.1299 -1.3090 -0.1834
12302SOL    HW238584   3.547   6.249   8.926  0.6781 -0.4874 -2.2161
12303SOL     OW38585   9.123   1.670   0.327  0.3726 -0.3722  0.2637
12303SOL    HW138586   9.149   1.737   0.264 -1.6532 -0.3596 -0.6193
12303SOL    HW238587   9.076   1.719   0.395  0.5778 -0.6672  0.6194
12304SOL     OW38588   7.498   8.774   5.028 -0.4787 -0.3348 -0.3159
12304SOL    HW138589   7.585   8.755   4.992 -0.7051  0.8367 -1.5317
12304SOL    HW238590   7.507   8.861   5.067 -0.5507 -1.1162  1.5015
12305SOL     OW38591   7.156   9.123   5.090  0.2619 -0.5031 -0.2872
12305SOL    HW138592   7.061   9.118   5.085  0.3513 -3.7371  0.0081
12305SOL    HW238593   7.174   9.200   5.144 -2.1853 -0.2807  0.2347
12306SOL     OW38594   4.416   5.276   5.218 -0.1541  0.8239 -0.2202
12306SOL    HW138595   4.426   5.289   5.312 -0.1930 -0.3369 -0.0498
12306SOL    HW238596   4.501   5.302   5.181  0.6192 -0.8334  0.3622
12307SOL     OW38597   4.020   5.514   8.334  0.0041  0.4849 -0.6548
12307SOL    HW138598   4.021   5.599   8.378 -0.9744 -0.3404  1.0016
12307SOL    HW238599   4.003   5.451   8.404  4.2382 -1.4785 -1.1948
12308SOL     OW38600   1.190   7.502   3.793 -0.2657 -0.4087 -0.7031
12308SOL    HW138601   1.161   7.413   3.813 -1.0327  0.3204  1.6011
12308SOL    HW238602   1.109   7.553   3.789  0.0078 -0.1086 -3.8921
12309SOL     OW38603   5.629   6.740   4.070  0.4460  0.2977 -0.2708
12309SOL    HW138604   5.695   6.804   4.043  1.1321 -0.3823 -0.2315
12309SOL    HW238605   5.577   6.725   3.992  0.3734  0.7798 -0.3214
12310SOL     OW38606   7.288   7.278   3.951  0.0225 -0.0932  0.0820
12310SOL    HW138607   7.310   7.337   4.023 -0.3773 -0.3467  0.4142
12310SOL    HW238608   7.257   7.336   3.881  2.3500  0.3310 -0.6418
12311SOL     OW38609   0.962   3.415   7.105 -0.2749  0.1978  0.1962
12311SOL    HW138610   1.033   3.471   7.136 -0.2960  0.0203  0.5654
12311SOL    HW238611   0.999   3.328   7.103 -0.1487  0.2674 -0.6781
12312SOL     OW38612   0.463   7.498   6.176 -0.2397  0.1095 -0.0574
12312SOL    HW138613   0.540   7.547   6.204 -0.5232 -0.2154  1.3816
12312SOL    HW238614   0.493   7.443   6.104  0.3502  1.5450 -0.9104
12313SOL     OW38615   6.468   3.394   7.025  0.5117  0.0544  0.6843
12313SOL    HW138616   6.485   3.307   7.061  2.0294 -0.1159 -0.4083
12313SOL    HW238617   6.549   3.442   7.039  1.0739  0.0427 -2.3325
12314SOL     OW38618   5.551   4.291   0.822 -0.4882 -0.1702 -0.4050
12314SOL    HW138619   5.640   4.322   0.802 -0.1215 -1.1645 -0.3804
12314SOL    HW238620   5.499   4.316   0.746  0.5052 -2.3489 -1.8593
12315SOL     OW38621   2.984   4.448   0.474  0.2011 -0.1852  0.7344
12315SOL    HW138622   2.892   4.436   0.496 -0.3213  1.2801 -0.5834
12315SOL    HW238623   3.026   4.469   0.557 -0.9854  0.9599  1.0667
12316SOL     OW38624   3.595   1.254   7.685  0.2694  0.0903  0.1446
12316SOL    HW138625   3.526   1.290   7.741  1.9784 -0.3311  2.6351
12316SOL    HW238626   3.614   1.169   7.723  1.1132 -0.4433 -1.4381
12317SOL     OW38627   5.194   3.996   2.736 -0.4090 -0.2617  0.3405
12317SOL    HW138628   5.206   3.939   2.660  0.1578  0.8568 -0.4241
12317SOL    HW238629   5.231   4.080   2.709  0.3683 -0.0277  2.0834
12318SOL     OW38630   8.720   7.027   6.213 -0.1333  0.4787 -0.4024
12318SOL    HW138631   8.813   7.034   6.238  0.0339 -1.3782 -0.4532
12318SOL    HW238632   8.686   6.958   6.269 -1.2120  0.3373 -1.2337
12319SOL     OW38633   2.369   4.760   2.666  0.2626 -0.0424 -0.1806
12319SOL    HW138634   2.334   4.721   2.585  0.3461  0.3865 -0.4209
12319SOL    HW238635   2.344   4.852   2.661  0.8572  0.1255 -0.0324
12320SOL     OW38636   6.372   5.941   1.890 -0.1704  1.0293  0.1372
12320SOL    HW138637   6.325   5.970   1.812  0.1784  0.9736 -0.0913
12320SOL    HW238638   6.436   5.878   1.858 -0.8307  0.1162  0.6219
12321SOL     OW38639   2.732   9.238   5.296  0.2464 -0.2275  0.3141
12321SOL    HW138640   2.669   9.203   5.234  1.5576 -0.9930 -0.6066
12321SOL    HW238641   2.691   9.319   5.328 -0.9596 -0.4359 -0.6545
12322SOL     OW38642   6.510   2.368   2.910  0.9685 -0.0860  0.3310
12322SOL    HW138643   6.510   2.391   2.817 -1.7675  1.7437  0.7250
12322SOL    HW238644   6.543   2.445   2.955  0.3717 -0.2283  1.0266
12323SOL     OW38645   8.868   2.770   6.498 -0.8962  0.1258 -0.4281
12323SOL    HW138646   8.800   2.763   6.431 -1.4099  1.0196 -0.0018
12323SOL    HW238647   8.821   2.794   6.578 -0.2833 -0.8507  0.2443
12324SOL     OW38648   2.684   4.029   1.072 -0.4206 -0.4482 -0.2847
12324SOL    HW138649   2.605   3.982   1.044 -0.1316 -0.9477 -0.2823
12324SOL    HW238650   2.747   3.959   1.089  0.5413  0.0133 -1.8800
12325SOL     OW38651   1.895   1.219   4.465  0.3189  0.1336  0.3695
12325SOL    HW138652   1.954   1.266   4.523  2.7954 -1.5143 -0.7077
12325SOL    HW238653   1.929   1.235   4.377 -0.7772 -0.9353 -0.2726
12326SOL     OW38654   2.174   2.130   8.682 -0.0564 -0.0330 -0.4291
12326SOL    HW138655   2.095   2.118   8.629  0.4901 -0.3554 -1.1758
12326SOL    HW238656   2.151   2.201   8.742 -0.7265  0.2603 -1.0136
12327SOL     OW38657   8.504   2.985   4.198 -0.1669  0.2987  0.4722
12327SOL    HW138658   8.430   2.925   4.210  0.1021  0.1253  1.2967
12327SOL    HW238659   8.468   3.071   4.217 -0.5812  0.4143 -0.8286
12328SOL     OW38660   1.013   5.321   6.086 -0.6574  0.3738 -0.2395
12328SOL    HW138661   0.949   5.265   6.130 -0.9088 -0.3664 -1.5458
12328SOL    HW238662   1.069   5.354   6.157 -0.1704 -1.9658  0.4835
12329SOL     OW38663   1.263   2.674   8.909  0.3903 -0.1141 -0.1778
12329SOL    HW138664   1.174   2.664   8.875  1.0176  1.1767 -2.2438
12329SOL    HW238665   1.251   2.716   8.995 -0.9671  0.6734 -0.7350
12330SOL     OW38666   6.130   6.048   2.028 -0.6830  0.4556  0.7666
12330SOL    HW138667   6.085   6.071   1.947 -1.2593 -1.4767  0.5172
12330SOL    HW238668   6.222   6.069   2.011 -0.7815 -0.0356 -0.4398
12331SOL     OW38669   1.860   6.487   4.685  0.5699 -0.3121 -0.2474
12331SOL    HW138670   1.853   6.491   4.780  1.4609  0.8230 -0.2222
12331SOL    HW238671   1.815   6.565   4.654  0.4591 -0.5713 -0.7482
12332SOL     OW38672   0.143   8.252   0.969 -0.2478  0.2214 -0.0567
12332SOL    HW138673   0.235   8.227   0.956 -0.6876 -1.1266 -0.7278
12332SOL    HW238674   0.096   8.201   0.903 -1.6353 -0.2098  1.2485
12333SOL     OW38675   2.097   0.647   7.144 -0.2297 -0.0102 -0.1760
12333SOL    HW138676   2.129   0.700   7.071 -0.4712  2.1206  1.2043
12333SOL    HW238677   2.003   0.667   7.149 -0.3868 -0.8009  0.1961
12334SOL     OW38678   5.428   4.460   8.585 -0.4617  0.3860 -0.1679
12334SOL    HW138679   5.425   4.388   8.648 -0.2154  0.7378  0.2506
12334SOL    HW238680   5.351   4.513   8.606  0.1012  0.9806  0.4165
12335SOL     OW38681   3.293   3.575   1.092 -0.5476  0.1099  0.8844
12335SOL    HW138682   3.287   3.655   1.144 -0.8020 -0.4213  1.6784
12335SOL    HW238683   3.361   3.523   1.136  1.5267  1.0220 -1.1679
12336SOL     OW38684   2.670   7.126   4.886  0.0059  0.1044  0.2438
12336SOL    HW138685   2.681   7.096   4.976 -0.6764 -0.9694 -0.0194
12336SOL    HW238686   2.622   7.209   4.895  0.7439  0.4750  0.9023
12337SOL     OW38687   1.801   7.902   5.116  0.5317  0.2568 -0.4599
12337SOL    HW138688   1.851   7.931   5.039  0.8549 -1.1803 -0.7988
12337SOL    HW238689   1.845   7.822   5.144 -1.2550 -0.7409 -0.4320
12338SOL     OW38690   4.232   3.988   6.489 -0.7030 -0.4791  0.3292
12338SOL    HW138691   4.241   4.070   6.539  1.0017 -0.2807 -0.2895
12338SOL    HW238692   4.201   3.925   6.554  0.9827 -0.0902  1.5480
12339SOL     OW38693   1.636   3.405   5.751 -0.0607 -0.3840 -0.6166
12339SOL    HW138694   1.710   3.399   5.690  0.8608 -0.6378  0.5056
12339SOL    HW238695   1.672   3.450   5.827 -1.3679  0.4653 -0.4961
12340SOL     OW38696   0.341   2.934   3.310  0.1966  0.2235 -0.0344
12340SOL    HW138697   0.358   2.868   3.243 -2.2813 -0.3408 -0.1786
12340SOL    HW238698   0.249   2.920   3.334  0.9396  0.6059  3.2680
12341SOL     OW38699   6.534   4.147   3.630  0.2878  0.1238  0.0109
12341SOL    HW138700   6.520   4.053   3.622  1.3312 -0.0197 -0.1740
12341SOL    HW238701   6.446   4.184   3.631 -0.1012 -0.7539 -1.1004
12342SOL     OW38702   6.465   0.557   3.531 -0.6424 -0.4201 -0.0407
12342SOL    HW138703   6.396   0.530   3.470  0.5277 -0.4094 -1.4130
12342SOL    HW238704   6.480   0.649   3.510 -1.0177 -0.0955  1.0717
12343SOL     OW38705   1.525   6.300   4.480  0.2633 -0.2803  0.3852
12343SOL    HW138706   1.582   6.361   4.434 -0.7964  0.4583  0.0362
12343SOL    HW238707   1.504   6.345   4.562  0.3488 -0.6386  0.6022
12344SOL     OW38708   4.617   8.975   4.442  0.0761 -0.5583  0.5128
12344SOL    HW138709   4.609   9.063   4.477 -1.7964 -0.5747  0.1409
12344SOL    HW238710   4.671   8.929   4.506  0.2013  0.5681  1.2282
12345SOL     OW38711   3.882   5.291   1.947 -0.4114  0.5723  0.2479
12345SOL    HW138712   3.869   5.360   1.883  1.7517  0.8540  0.0939
12345SOL    HW238713   3.977   5.279   1.951 -0.7912 -3.3316 -0.7245
12346SOL     OW38714   7.292   6.104   4.602  0.8964 -0.1773 -0.5318
12346SOL    HW138715   7.371   6.051   4.611  1.1879  0.5272  1.2827
12346SOL    HW238716   7.308   6.181   4.656 -1.6086 -0.6851  1.0231
12347SOL     OW38717   2.600   5.188   1.057 -1.1189  0.6915  0.4610
12347SOL    HW138718   2.672   5.138   1.096 -0.6137  0.7650 -0.3614
12347SOL    HW238719   2.521   5.139   1.081 -0.6536 -0.3352 -0.0635
12348SOL     OW38720   5.832   5.674   6.391  0.4266  0.2406 -0.3559
12348SOL    HW138721   5.837   5.581   6.367  0.4283  0.2445 -0.3701
12348SOL    HW238722   5.859   5.676   6.483  2.2915  0.4636 -0.8709
12349SOL     OW38723   2.010   5.876   7.869  0.2628  0.4857 -0.0692
12349SOL    HW138724   1.922   5.913   7.858 -0.3168 -0.7902  0.1944
12349SOL    HW238725   2.026   5.882   7.963  0.0690 -0.1237  0.0085
12350SOL     OW38726   2.073   6.265   3.055 -0.2072  0.4465  0.3145
12350SOL    HW138727   2.062   6.227   3.142  1.0331 -0.0222  0.2735
12350SOL    HW238728   2.053   6.193   2.995 -0.7988  0.6969  0.2029
12351SOL     OW38729   8.732   5.830   4.053  0.5083 -0.1719  0.1184
12351SOL    HW138730   8.674   5.903   4.076  1.0148  0.6720 -1.2576
12351SOL    HW238731   8.673   5.756   4.038 -0.0550  0.1416  0.7406
12352SOL     OW38732   2.165   3.551   5.619  0.1555 -0.5331  0.1340
12352SOL    HW138733   2.076   3.518   5.612  0.1662 -0.8701  1.5172
12352SOL    HW238734   2.209   3.518   5.541 -0.9624 -0.2222 -0.6428
12353SOL     OW38735   5.916   8.737   5.680  0.0989 -0.4874 -0.2490
12353SOL    HW138736   5.904   8.661   5.737  0.0956 -0.2810  0.0273
12353SOL    HW238737   5.991   8.715   5.625  2.7399  0.9781  2.6374
12354SOL     OW38738   3.514   2.145   0.573  0.0811 -0.2981 -0.0259
12354SOL    HW138739   3.482   2.233   0.556 -0.4922 -0.6209 -0.6784
12354SOL    HW238740   3.608   2.149   0.558 -0.0222  0.0786 -0.5712
12355SOL     OW38741   4.305   8.338   7.874 -0.1037  0.3739  0.4658
12355SOL    HW138742   4.244   8.295   7.933 -0.7179 -3.9496 -3.0693
12355SOL    HW238743   4.392   8.319   7.910 -0.4918 -1.7741  0.3372
12356SOL     OW38744   6.665   0.210   1.435 -0.3661 -0.3901  0.1713
12356SOL    HW138745   6.724   0.263   1.382  3.4481 -2.5918  2.0059
12356SOL    HW238746   6.661   0.254   1.520 -1.2090 -0.3993  0.1492
12357SOL     OW38747   6.979   7.051   6.667  0.0447 -0.2837 -0.0880
12357SOL    HW138748   6.940   7.021   6.585  0.2957 -0.2634 -0.2158
12357SOL    HW238749   6.908   7.045   6.731 -0.4412  0.6857 -0.5337
12358SOL     OW38750   1.789   7.229   8.989 -0.3030  0.6272 -0.3383
12358SOL    HW138751   1.847   7.295   8.951 -0.0788 -0.4797 -2.0015
12358SOL    HW238752   1.842   7.186   9.056  0.0673  1.1071 -0.3238
12359SOL     OW38753   3.179   0.026   4.023 -0.4556 -0.4229 -0.3162
12359SOL    HW138754   3.258   0.074   3.998 -0.1825 -0.1942  0.9607
12359SOL    HW238755   3.108   0.075   3.982 -0.0558  0.2475 -0.2173
12360SOL     OW38756   2.296   4.763   7.117  0.0045  0.3414 -0.9249
12360SOL    HW138757   2.326   4.776   7.207  2.1398 -1.4691 -1.3218
12360SOL    HW238758   2.367   4.797   7.063 -0.9037  0.6690 -1.9321
12361SOL     OW38759   6.520   9.145   5.142 -0.3124 -0.0165  0.1509
12361SOL    HW138760   6.549   9.236   5.137 -2.9363  0.9404  1.6680
12361SOL    HW238761   6.580   9.104   5.205 -0.6410  1.2765  1.3235
12362SOL     OW38762   4.013   9.013   0.704  0.1530  0.4355  0.2226
12362SOL    HW138763   4.069   9.082   0.670 -1.6693  2.0079  0.3412
12362SOL    HW238764   3.932   9.020   0.654 -0.3362 -1.1345  0.7570
12363SOL     OW38765   3.012   3.223   5.836 -0.0240  0.0175  0.6453
12363SOL    HW138766   2.951   3.295   5.847 -2.4834 -1.8354 -0.6175
12363SOL    HW238767   3.099   3.264   5.838 -1.3518  2.8762  0.7153
12364SOL     OW38768   6.282   7.041   6.080  0.0069 -0.1256  0.6795
12364SOL    HW138769   6.204   7.065   6.030 -0.9586 -0.6253  1.9194
12364SOL    HW238770   6.316   7.124   6.113 -0.6668 -0.0181  1.1085
12365SOL     OW38771   5.203   5.181   2.712 -0.3264 -0.0170 -0.3031
12365SOL    HW138772   5.174   5.143   2.795 -0.3358 -0.8596 -0.6856
12365SOL    HW238773   5.296   5.200   2.726 -0.5522  0.7290  0.2148
12366SOL     OW38774   1.318   1.029   1.777 -0.4485 -0.0400  0.4074
12366SOL    HW138775   1.289   0.938   1.787 -1.7906  0.6632  3.6632
12366SOL    HW238776   1.247   1.080   1.816  1.9406  2.1686  1.9488
12367SOL     OW38777   4.834   8.117   4.486  0.4332 -0.4117  0.2493
12367SOL    HW138778   4.853   8.208   4.463 -0.3715 -0.2765  0.1263
12367SOL    HW238779   4.847   8.113   4.581  0.5827 -0.2002  0.2392
12368SOL     OW38780   2.582   0.864   8.620  1.2168  0.6978  0.2833
12368SOL    HW138781   2.627   0.949   8.627  2.3005  0.1666 -0.1282
12368SOL    HW238782   2.597   0.822   8.704 -0.6765  1.5497  1.0879
12369SOL     OW38783   4.087   7.813   2.141 -0.3845 -0.2273 -0.4845
12369SOL    HW138784   4.126   7.900   2.150  1.3206 -0.8758 -1.1683
12369SOL    HW238785   4.130   7.760   2.208 -1.9586 -0.3785  0.4246
12370SOL     OW38786   3.750   2.237   0.058 -0.2514  1.1163 -0.0099
12370SOL    HW138787   3.663   2.272   0.040 -1.6613 -2.6581 -1.0864
12370SOL    HW238788   3.788   2.222  -0.029  0.2567 -0.1206  0.4229
12371SOL     OW38789   7.192   5.259   2.233  0.3421  0.0579 -0.1320
12371SOL    HW138790   7.110   5.210   2.233  0.7279 -0.5923 -0.7344
12371SOL    HW238791   7.260   5.192   2.240  0.7768  0.6678  1.8545
12372SOL     OW38792   0.175   8.418   7.553  0.4832  0.0941 -0.0135
12372SOL    HW138793   0.107   8.438   7.489  0.2718 -0.3124  0.0809
12372SOL    HW238794   0.183   8.323   7.550 -1.6083 -0.2355  2.6517
12373SOL     OW38795   3.052   8.603   8.954 -0.1119 -0.0971  0.1796
12373SOL    HW138796   2.970   8.618   8.908 -0.1597 -0.2864  0.2014
12373SOL    HW238797   3.106   8.679   8.932 -0.4131  0.1937  0.4410
12374SOL     OW38798   7.086   1.470   4.834 -0.2901 -0.0416 -0.1270
12374SOL    HW138799   7.175   1.447   4.808 -0.2730  0.2814 -0.3600
12374SOL    HW238800   7.096   1.509   4.921 -0.2990 -0.7388  0.1945
12375SOL     OW38801   0.007   3.512   2.628 -0.6781  0.3890  0.1768
12375SOL    HW138802   0.023   3.568   2.552  0.9087 -0.8695 -0.4410
12375SOL    HW238803   0.037   3.563   2.702  0.6604  0.4303 -0.3766
12376SOL     OW38804   1.418   1.532   6.270 -0.0288  0.5919 -0.0851
12376SOL    HW138805   1.368   1.451   6.279  0.0903  0.3579 -1.5459
12376SOL    HW238806   1.355   1.597   6.241  0.1603  0.7028 -0.2485
12377SOL     OW38807   2.116   3.699   3.923 -0.2377  0.1073 -0.1805
12377SOL    HW138808   2.127   3.771   3.985 -0.7423  1.3252 -1.4709
12377SOL    HW238809   2.204   3.675   3.896 -0.0733  0.3046  0.1878
12378SOL     OW38810   4.958   3.920   8.248  0.1690  0.0697 -0.1455
12378SOL    HW138811   4.990   3.884   8.165 -0.8611  0.1305 -0.5710
12378SOL    HW238812   5.029   3.977   8.277  1.3073 -1.3318 -0.0723
12379SOL     OW38813   7.284   9.222   0.098 -0.2945 -0.2168 -0.0601
12379SOL    HW138814   7.189   9.224   0.105 -0.2726  1.3282  0.1072
12379SOL    HW238815   7.308   9.313   0.079  1.2221 -0.3722  0.9987
12380SOL     OW38816   1.149   8.423   8.842 -0.3780 -0.0690 -0.7231
12380SOL    HW138817   1.120   8.377   8.921  2.2077 -0.5208  0.0014
12380SOL    HW238818   1.129   8.515   8.859  1.5986  0.0400  1.1554
12381SOL     OW38819   1.755   6.645   5.457  0.3855 -0.4075 -0.1797
12381SOL    HW138820   1.761   6.550   5.443  1.0757 -0.2736 -0.8642
12381SOL    HW238821   1.725   6.679   5.373 -2.1258 -0.2355  0.7720
12382SOL     OW38822   2.387   4.488   1.266  0.1305 -0.0376 -0.1347
12382SOL    HW138823   2.319   4.541   1.307 -0.2412 -2.2735  2.2105
12382SOL    HW238824   2.468   4.516   1.308 -0.0020 -0.9691  0.7463
12383SOL     OW38825   8.770   4.706   1.596  0.1703 -0.3015 -0.0637
12383SOL    HW138826   8.769   4.723   1.691 -0.8337 -0.9296  0.0400
12383SOL    HW238827   8.722   4.779   1.559  0.8933  0.1511 -0.1375
12384SOL     OW38828   2.546   5.599   5.006 -0.6478  0.0610  0.0685
12384SOL    HW138829   2.491   5.665   5.048  0.1589 -0.7168  2.4439
12384SOL    HW238830   2.629   5.644   4.991 -0.0247 -0.4258  1.8873
12385SOL     OW38831   6.754   5.609   2.967 -0.6371 -0.5167 -0.1254
12385SOL    HW138832   6.760   5.525   2.921 -0.5727 -0.1316 -0.8222
12385SOL    HW238833   6.839   5.620   3.009 -0.8873 -1.1341  0.5486
12386SOL     OW38834   1.179   0.349   0.403  0.4235  0.4613  0.0695
12386SOL    HW138835   1.247   0.298   0.447  0.7995  0.3604 -0.6211
12386SOL    HW238836   1.133   0.393   0.474 -0.1897 -1.1740  0.7213
12387SOL     OW38837   7.677   6.244   2.981  0.1446  0.1415  0.0558
12387SOL    HW138838   7.720   6.240   2.896  0.0551  1.1068 -0.0430
12387SOL    HW238839   7.657   6.153   3.003  0.9881 -0.1868 -0.5314
12388SOL     OW38840   2.040   8.404   8.007 -0.0227 -0.6309 -0.0199
12388SOL    HW138841   2.010   8.313   8.010 -0.0167 -0.6690 -0.9893
12388SOL    HW238842   2.035   8.428   7.914 -0.0007  0.3514  0.2305
12389SOL     OW38843   3.296   0.817   7.270  0.4892  0.4162  0.0992
12389SOL    HW138844   3.264   0.789   7.184 -1.8149  3.3211 -0.0854
12389SOL    HW238845   3.364   0.881   7.251  0.1016  0.9293  0.3995
12390SOL     OW38846   0.496   3.937   2.961  0.3146 -0.0376  0.0561
12390SOL    HW138847   0.522   4.017   3.007  0.8553  1.0908 -2.1568
12390SOL    HW238848   0.460   3.881   3.029 -0.6712  2.3359  1.5566
12391SOL     OW38849   1.061   7.336   8.552 -0.5317  0.0116  0.3464
12391SOL    HW138850   1.015   7.292   8.623 -0.0819  0.6442  1.0407
12391SOL    HW238851   0.995   7.393   8.512  0.4994  3.8811  3.7981
12392SOL     OW38852   7.572   3.579   6.473 -0.3066 -0.1461  0.3123
12392SOL    HW138853   7.583   3.560   6.566 -1.5706 -1.7911  0.1605
12392SOL    HW238854   7.561   3.492   6.432 -0.1287  0.5720 -1.3182
12393SOL     OW38855   7.807   6.439   6.028 -0.1550 -0.0563  0.2210
12393SOL    HW138856   7.724   6.446   5.982 -0.3274  1.8388  0.8068
12393SOL    HW238857   7.859   6.380   5.973 -1.0084  0.6936 -1.4376
12394SOL     OW38858   4.249   5.042   3.317  0.3891  0.1430 -0.0880
12394SOL    HW138859   4.313   4.995   3.264  0.3290  0.1204 -0.1399
12394SOL    HW238860   4.167   5.036   3.268  0.3404  0.1477 -0.0079
12395SOL     OW38861   6.463   0.453   0.483 -0.1252  0.1897  0.1796
12395SOL    HW138862   6.434   0.495   0.402 -1.3083 -0.7228  0.1078
12395SOL    HW238863   6.558   0.465   0.485 -0.2653  1.4395 -0.6368
12396SOL     OW38864   0.398   9.096   8.835  0.0901  0.0049 -0.3955
12396SOL    HW138865   0.369   9.032   8.770 -0.2370 -0.7155  0.4523
12396SOL    HW238866   0.320   9.112   8.888  0.4172  0.4270 -0.0522
12397SOL     OW38867   5.132   0.988   8.557 -0.3606  0.2433 -0.0016
12397SOL    HW138868   5.176   1.056   8.506 -2.4256  0.4037 -1.6248
12397SOL    HW238869   5.098   1.035   8.634  2.1026  0.1400  1.2075
12398SOL     OW38870   5.784   0.552   6.227 -0.4799  0.0233  0.5457
12398SOL    HW138871   5.734   0.506   6.160  3.0383 -0.8883 -1.6149
12398SOL    HW238872   5.801   0.486   6.294 -0.2499 -0.3081  0.1655
12399SOL     OW38873   8.442   3.506   1.721 -0.4445 -0.2594  0.3041
12399SOL    HW138874   8.504   3.511   1.648 -2.1222  0.6732 -1.0930
12399SOL    HW238875   8.358   3.487   1.680 -1.3289 -0.2326  2.0509
12400SOL     OW38876   3.887   3.983   1.711 -0.2524  0.0405  0.6780
12400SOL    HW138877   3.915   3.892   1.722 -0.7859 -0.0649  1.2006
12400SOL    HW238878   3.959   4.025   1.664 -0.0022 -0.6498  0.4339
12401SOL     OW38879   6.624   5.900   6.366 -0.4639 -0.1836 -0.5827
12401SOL    HW138880   6.663   5.970   6.315 -0.7269  1.0500  0.8579
12401SOL    HW238881   6.535   5.892   6.331  0.0467 -0.8550 -1.7617
12402SOL     OW38882   7.646   7.576   1.376  0.5471 -0.0950 -0.2883
12402SOL    HW138883   7.703   7.642   1.414  0.2548 -0.2261  0.3809
12402SOL    HW238884   7.557   7.611   1.388  0.2804 -1.4137  1.6468
12403SOL     OW38885   5.564   5.533   0.630 -0.2425 -0.1897 -0.1196
12403SOL    HW138886   5.553   5.535   0.535  0.0400  0.1590 -0.1483
12403SOL    HW238887   5.568   5.625   0.655 -0.0793 -0.2847  0.2008
12404SOL     OW38888   7.002   0.554   4.885  0.2814  0.2415  0.0365
12404SOL    HW138889   7.076   0.611   4.862 -0.1739  0.7656 -0.1396
12404SOL    HW238890   7.035   0.465   4.871  0.5670  0.5045 -0.9814
12405SOL     OW38891   4.965   0.331   9.097 -0.1115  0.4678  0.5695
12405SOL    HW138892   4.980   0.249   9.050 -1.0357  0.3736  0.4323
12405SOL    HW238893   4.874   0.325   9.126 -0.3114  1.6363  0.1882
12406SOL     OW38894   3.905   0.509   1.419  0.4020 -0.2565 -0.1226
12406SOL    HW138895   3.943   0.574   1.361  1.4366 -2.1653 -1.6694
12406SOL    HW238896   3.813   0.502   1.392  0.3869  0.3023 -0.2023
12407SOL     OW38897   6.345   2.723   2.559  0.1560  0.2619  0.3883
12407SOL    HW138898   6.415   2.661   2.540  0.3201  0.4220  0.4730
12407SOL    HW238899   6.271   2.693   2.505  1.0738  1.6233 -1.6840
12408SOL     OW38900   4.681   6.353   6.006  0.2621  1.0850 -0.5489
12408SOL    HW138901   4.740   6.349   5.930  0.4049 -0.1251 -0.3940
12408SOL    HW238902   4.593   6.350   5.968  0.2957  2.4561 -0.7584
12409SOL     OW38903   1.166   2.043   2.968 -0.0188  0.2296  0.1960
12409SOL    HW138904   1.132   2.077   2.886  0.2903 -0.5409 -0.2496
12409SOL    HW238905   1.089   2.033   3.024 -0.0953  1.8876  0.4282
12410SOL     OW38906   8.357   1.095   4.646 -0.2080  0.6769  0.3667
12410SOL    HW138907   8.267   1.069   4.628  0.6158 -0.7215 -1.8150
12410SOL    HW238908   8.395   1.116   4.560  1.1473  2.6311  1.3796
12411SOL     OW38909   7.685   4.470   8.616  0.0029  0.3565  0.2932
12411SOL    HW138910   7.597   4.433   8.609 -0.8326  2.2550  0.6680
12411SOL    HW238911   7.695   4.489   8.709  0.7067  0.4413  0.2015
12412SOL     OW38912   3.858   8.250   5.672  0.4989 -0.1505 -0.3170
12412SOL    HW138913   3.777   8.297   5.650 -0.6573 -1.9777 -0.0664
12412SOL    HW238914   3.915   8.317   5.711 -1.4363  0.8811  0.8316
12413SOL     OW38915   3.876   4.987   0.893 -0.0143  0.4347 -0.5937
12413SOL    HW138916   3.795   4.953   0.855  0.0559  0.1861 -0.5236
12413SOL    HW238917   3.849   5.020   0.979  0.3027 -1.4246  0.2539
12414SOL     OW38918   8.064   4.423   7.530 -0.6939  0.1163  0.6220
12414SOL    HW138919   8.030   4.397   7.444 -0.9934 -0.1772  0.8248
12414SOL    HW238920   8.100   4.510   7.517 -2.1249  0.7169  0.5462
12415SOL     OW38921   0.304   7.158   5.161 -0.4906 -0.0283  0.7479
12415SOL    HW138922   0.333   7.068   5.176 -2.6514 -1.2534 -2.0145
12415SOL    HW238923   0.208   7.153   5.162 -0.6521  1.7780 -1.9175
12416SOL     OW38924   3.946   6.633   7.486 -0.2234  0.0443 -0.1552
12416SOL    HW138925   3.914   6.567   7.547  0.0619  0.7579  0.7778
12416SOL    HW238926   4.034   6.653   7.517  0.4718 -0.6219 -1.6526
12417SOL     OW38927   3.861   3.410   7.636 -0.4832  0.0608 -0.2904
12417SOL    HW138928   3.804   3.385   7.710  0.1221 -1.1825 -0.2347
12417SOL    HW238929   3.800   3.439   7.568 -1.0264  1.7144  0.8617
12418SOL     OW38930   6.974   4.536   3.426 -0.7143 -0.2650 -0.2571
12418SOL    HW138931   6.935   4.623   3.414 -0.7928 -0.4650 -1.5132
12418SOL    HW238932   7.051   4.536   3.370  1.9027  0.5767  3.2039
12419SOL     OW38933   9.256   1.929   6.674 -1.2095  0.2574  0.0742
12419SOL    HW138934   9.278   1.867   6.743  0.0074  0.1171 -0.4305
12419SOL    HW238935   9.165   1.954   6.692 -1.4478 -1.0576  0.7330
12420SOL     OW38936   7.418   2.986   6.074  0.1654 -0.1119 -0.3949
12420SOL    HW138937   7.462   2.996   6.158  0.2815  0.8529 -0.5607
12420SOL    HW238938   7.484   2.948   6.016  0.3626  0.0750 -0.2900
12421SOL     OW38939   5.854   7.585   2.875 -0.0697 -0.1261  0.3823
12421SOL    HW138940   5.785   7.639   2.836  0.8134  0.4509 -0.4054
12421SOL    HW238941   5.901   7.644   2.933  0.4084 -0.2475  0.1233
12422SOL     OW38942   0.751   3.133   4.106  0.0862 -1.0447  0.5435
12422SOL    HW138943   0.736   3.157   4.198 -0.6118  0.2746  0.1005
12422SOL    HW238944   0.840   3.098   4.104  0.9997  1.1745  1.2971
12423SOL     OW38945   7.904   3.364   5.567  0.3571  0.3074 -0.6009
12423SOL    HW138946   7.818   3.326   5.548  1.7900 -3.9085  0.9474
12423SOL    HW238947   7.915   3.353   5.661  3.0055 -0.1285 -0.9290
12424SOL     OW38948   8.386   2.066   2.444  0.2846 -0.0158  0.4924
12424SOL    HW138949   8.364   2.050   2.352 -0.9635  0.5992  0.6754
12424SOL    HW238950   8.305   2.099   2.483  0.5624 -1.0970  2.0271
12425SOL     OW38951   2.928   2.128   1.537 -0.2006  0.3913 -0.2451
12425SOL    HW138952   3.004   2.094   1.584  0.4817  2.1633 -0.0120
12425SOL    HW238953   2.966   2.175   1.462 -1.1377  0.0728 -0.9186
12426SOL     OW38954   2.173   8.117   4.795  0.2760  0.2480 -0.0401
12426SOL    HW138955   2.113   8.077   4.732 -1.6634  0.7628  1.4433
12426SOL    HW238956   2.180   8.053   4.865  1.7532  0.0519 -0.3470
12427SOL     OW38957   2.816   8.812   3.098 -0.3738  0.1051  0.6649
12427SOL    HW138958   2.892   8.800   3.155 -0.5684 -0.4993  0.8016
12427SOL    HW238959   2.802   8.907   3.096 -0.0851  0.1628  1.2576
12428SOL     OW38960   4.348   3.263   4.156  0.2120 -0.1362  0.9406
12428SOL    HW138961   4.354   3.221   4.070  2.3163  0.0462  0.9744
12428SOL    HW238962   4.336   3.356   4.137 -0.4505 -0.2388  0.8507
12429SOL     OW38963   7.366   0.030   4.412 -0.8544  0.2573 -0.2583
12429SOL    HW138964   7.299  -0.026   4.372 -0.9486 -0.3859  0.7779
12429SOL    HW238965   7.358   0.114   4.366 -2.3993  0.1984 -0.1111
12430SOL     OW38966   5.342   3.574   3.219  0.0322 -0.5374 -0.0083
12430SOL    HW138967   5.399   3.552   3.145  1.0837 -2.6591  1.3948
12430SOL    HW238968   5.383   3.533   3.295 -1.2463  1.2619  1.7234
12431SOL     OW38969   8.077   1.842   3.756 -0.2270 -0.9082 -0.8973
12431SOL    HW138970   8.042   1.923   3.720 -1.6834 -0.6841  0.9491
12431SOL    HW238971   8.000   1.790   3.778  0.6348 -1.3800  1.0856
12432SOL     OW38972   4.468   7.414   6.985 -0.1728 -0.2797 -0.2744
12432SOL    HW138973   4.431   7.352   6.921 -1.2745  0.8207 -0.7249
12432SOL    HW238974   4.559   7.423   6.960 -0.6615  0.3319 -1.8474
12433SOL     OW38975   6.631   6.605   2.649 -0.6732  0.0306  0.1069
12433SOL    HW138976   6.567   6.612   2.579 -0.6078  1.4269  0.1657
12433SOL    HW238977   6.581   6.622   2.729 -0.0577  2.2767  0.0602
12434SOL     OW38978   5.210   6.505   3.024 -0.0532  0.4842 -0.4000
12434SOL    HW138979   5.173   6.487   3.111  0.1491  1.2796 -0.1397
12434SOL    HW238980   5.134   6.506   2.966 -0.3708  1.3695  0.0098
12435SOL     OW38981   0.571   9.032   9.031 -0.3855  0.4772  0.1589
12435SOL    HW138982   0.542   8.941   9.041  1.3293 -0.1765 -0.6401
12435SOL    HW238983   0.500   9.075   8.983 -0.3962 -0.9075 -1.1088
12436SOL     OW38984   7.868   3.256   5.133 -0.1984  0.6414 -0.0256
12436SOL    HW138985   7.879   3.347   5.158  0.3137  0.8023 -0.8261
12436SOL    HW238986   7.829   3.259   5.046 -1.0537  0.0865  0.3286
12437SOL     OW38987   7.017   4.865   5.361 -0.7288  0.6143 -0.3123
12437SOL    HW138988   7.082   4.846   5.294  1.0926  1.6059  1.1283
12437SOL    HW238989   7.057   4.835   5.443 -1.9727  1.4646  0.6258
12438SOL     OW38990   9.291   2.635   1.056  0.6018 -0.3485 -0.0426
12438SOL    HW138991   9.329   2.555   1.092 -1.1135 -0.5039  1.4807
12438SOL    HW238992   9.210   2.606   1.013 -0.3326  0.6352  1.0368
12439SOL     OW38993   4.079   3.861   3.286 -0.2719 -0.8331  0.3850
12439SOL    HW138994   4.128   3.933   3.326 -1.3793 -0.6391  1.4465
12439SOL    HW238995   4.019   3.904   3.225  0.3314 -1.0037 -0.3252
12440SOL     OW38996   6.941   3.934   2.962 -0.0230  0.1046 -1.1534
12440SOL    HW138997   6.941   3.990   2.885  0.0760  0.1590 -1.1139
12440SOL    HW238998   7.033   3.919   2.981 -0.0251  1.0508 -0.3494
12441SOL     OW38999   2.311   6.338   7.006  0.5653  0.3588 -0.0534
12441SOL    HW139000   2.318   6.433   7.005 -0.8756  0.4994  1.5191
12441SOL    HW239001   2.294   6.316   7.097 -0.4988 -1.3015 -0.6277
12442SOL     OW39002   0.057   8.605   5.482 -0.1411  0.9723 -0.0900
12442SOL    HW139003   0.106   8.605   5.400 -0.4424  1.6321 -0.2712
12442SOL    HW239004   0.024   8.694   5.491 -1.0321  0.6208  0.1947
12443SOL     OW39005   9.133   0.502   8.602  0.3090 -0.3292  0.2183
12443SOL    HW139006   9.182   0.581   8.581  1.3331 -0.3862  2.2494
12443SOL    HW239007   9.059   0.533   8.654 -0.4627 -0.5030 -0.7617
12444SOL     OW39008   5.953   6.602   1.325  0.0751  0.0515 -0.1566
12444SOL    HW139009   6.002   6.684   1.334  1.2410 -0.6250 -0.3088
12444SOL    HW239010   5.973   6.572   1.237 -0.5547 -0.2780 -0.1871
12445SOL     OW39011   0.976   5.112   5.897  0.2420 -0.3635 -0.2842
12445SOL    HW139012   0.999   5.188   5.951  1.8097 -1.0397  0.0202
12445SOL    HW239013   0.923   5.148   5.826  1.7500  1.1665 -0.6557
12446SOL     OW39014   6.080   4.233   2.566 -0.5196 -0.2525 -0.1606
12446SOL    HW139015   6.107   4.142   2.553  1.5019 -0.0090  1.9192
12446SOL    HW239016   6.162   4.280   2.584 -1.4927  2.0432 -1.4682
12447SOL     OW39017   8.622   6.945   4.591 -0.1172  0.3354 -0.3731
12447SOL    HW139018   8.574   6.929   4.510 -2.4913 -1.8172  1.3620
12447SOL    HW239019   8.555   6.977   4.652  1.1050 -0.3797  1.3888
12448SOL     OW39020   4.612   4.146   6.037 -0.1434 -0.3974 -0.4846
12448SOL    HW139021   4.683   4.166   5.977  0.5140  0.8741  0.6995
12448SOL    HW239022   4.653   4.094   6.106 -0.2181  0.8406  0.5087
12449SOL     OW39023   1.688   0.536   8.427 -0.1872 -0.0546  0.2555
12449SOL    HW139024   1.759   0.501   8.482 -0.2810 -0.1075  0.3431
12449SOL    HW239025   1.613   0.544   8.486  0.1378  1.3215  0.5090
12450SOL     OW39026   1.787   4.473   7.287  0.8110  0.0752 -0.3952
12450SOL    HW139027   1.835   4.556   7.282  1.4850 -0.3052 -0.2388
12450SOL    HW239028   1.709   4.494   7.339 -0.9202  1.4984 -3.4022
12451SOL     OW39029   2.537   6.209   6.018  0.0977  0.2968  0.4773
12451SOL    HW139030   2.549   6.114   6.029 -0.4266  0.1224 -0.4129
12451SOL    HW239031   2.620   6.239   5.980 -0.4003 -0.0989 -0.9416
12452SOL     OW39032   2.714   0.177   3.437 -0.7076  0.0356 -0.1634
12452SOL    HW139033   2.784   0.163   3.500  1.2182  1.2089 -1.9524
12452SOL    HW239034   2.664   0.250   3.472 -0.1682  0.1352  0.4069
12453SOL     OW39035   2.149   4.023   1.893  0.3769 -0.4705  0.1579
12453SOL    HW139036   2.128   4.115   1.912  1.3133 -0.4589  1.1817
12453SOL    HW239037   2.227   4.027   1.837 -1.7470 -0.5435 -2.9763
12454SOL     OW39038   8.578   5.312   3.563  0.2612 -0.0533  0.0197
12454SOL    HW139039   8.629   5.310   3.481 -0.8499  4.2391 -0.8894
12454SOL    HW239040   8.643   5.320   3.632  1.0834 -0.6212 -0.6854
12455SOL     OW39041   2.610   7.486   6.741 -0.3272  0.3885  0.3559
12455SOL    HW139042   2.615   7.391   6.734 -0.3396  0.5613 -2.2689
12455SOL    HW239043   2.516   7.505   6.742 -0.3244  0.3871  0.8695
12456SOL     OW39044   6.379   3.189   4.323  0.3602  0.0496  0.2833
12456SOL    HW139045   6.366   3.204   4.417  0.4073 -0.2396  0.3352
12456SOL    HW239046   6.457   3.133   4.319 -1.2763 -2.2747  0.2069
12457SOL     OW39047   6.404   1.343   3.790 -0.6247  0.2688 -0.3064
12457SOL    HW139048   6.328   1.371   3.841 -0.6234 -0.2393 -0.0216
12457SOL    HW239049   6.442   1.271   3.841  0.4078  0.9186 -0.1266
12458SOL     OW39050   6.047   2.272   8.633 -0.5588  0.1614  0.4838
12458SOL    HW139051   5.991   2.280   8.710  0.0843  0.3178  0.9454
12458SOL    HW239052   5.988   2.248   8.562 -0.9944 -1.1142  1.2624
12459SOL     OW39053   4.681   5.928   7.472  0.4571  0.3080 -0.1156
12459SOL    HW139054   4.772   5.900   7.487  0.6269  1.7117  1.7618
12459SOL    HW239055   4.628   5.852   7.497  1.0673 -0.0623  0.0693
12460SOL     OW39056   1.890   8.652   3.596 -0.5934  0.9637 -0.0377
12460SOL    HW139057   1.949   8.705   3.542 -0.1556  1.6178  1.0868
12460SOL    HW239058   1.942   8.627   3.672 -1.7922  1.6378  1.0198
12461SOL     OW39059   3.619   1.897   5.969 -0.3588 -0.1173 -0.0517
12461SOL    HW139060   3.564   1.888   6.047  0.5895  0.4144  0.6933
12461SOL    HW239061   3.686   1.829   5.980 -0.7968 -0.6805 -0.8885
12462SOL     OW39062   2.871   8.714   7.080 -0.5208 -0.5585 -0.0792
12462SOL    HW139063   2.856   8.697   7.173  1.6078 -1.2524  0.1696
12462SOL    HW239064   2.859   8.629   7.038 -1.4015 -0.2620 -0.4240
12463SOL     OW39065   6.540   8.247   6.324 -0.0901  0.9279 -0.4529
12463SOL    HW139066   6.491   8.170   6.353  0.5851  1.1059  1.2080
12463SOL    HW239067   6.543   8.238   6.228 -0.7958 -0.6248 -0.3557
12464SOL     OW39068   2.468   2.200   8.640 -0.0463  0.2742  0.2922
12464SOL    HW139069   2.398   2.140   8.614 -0.8651  1.2874  0.0668
12464SOL    HW239070   2.475   2.261   8.566  1.2003  0.0656  0.2450
12465SOL     OW39071   6.972   0.865   4.230  0.3578  0.7318 -0.0947
12465SOL    HW139072   6.964   0.887   4.323  2.3164  0.0289  0.2661
12465SOL    HW239073   7.044   0.919   4.199  0.4049  0.1790 -0.9512
12466SOL     OW39074   8.009   0.044   8.171 -0.6992 -0.0373 -0.3579
12466SOL    HW139075   8.015   0.047   8.075 -2.2487 -0.5728 -0.4994
12466SOL    HW239076   8.080  -0.014   8.197  1.9877  2.9238 -0.8818
12467SOL     OW39077   5.289   3.944   3.117 -0.0461 -0.3096 -0.2735
12467SOL    HW139078   5.275   3.892   3.196 -2.6862  0.8175  0.0757
12467SOL    HW239079   5.367   3.995   3.134 -1.9170  1.7096  2.6367
12468SOL     OW39080   5.431   6.403   1.807 -0.2031  0.2208  0.2822
12468SOL    HW139081   5.522   6.424   1.831 -0.1855  1.3365 -0.6799
12468SOL    HW239082   5.402   6.341   1.873  0.9297  0.6605  1.2066
12469SOL     OW39083   5.596   7.871   1.996  0.4171 -0.4356 -0.6198
12469SOL    HW139084   5.581   7.780   1.970 -1.8620 -0.4905  0.7371
12469SOL    HW239085   5.514   7.916   1.973 -0.6672  0.0491  3.8082
12470SOL     OW39086   8.037   7.568   4.594  0.5675  0.1372 -0.2798
12470SOL    HW139087   8.049   7.543   4.685  0.4413 -0.2220 -0.3591
12470SOL    HW239088   7.944   7.552   4.577  0.6420 -0.0300 -0.5380
12471SOL     OW39089   7.936   1.547   5.496  0.0023 -0.1078 -0.8873
12471SOL    HW139090   7.904   1.486   5.429  0.6631 -2.1685  0.5950
12471SOL    HW239091   8.018   1.580   5.462 -0.4195  0.0352 -1.7683
12472SOL     OW39092   2.784   8.045   3.957 -0.2884  0.5224  0.1094
12472SOL    HW139093   2.795   8.139   3.966 -2.2557  0.9927 -1.9402
12472SOL    HW239094   2.716   8.035   3.889  0.8649 -2.3709 -0.6872
12473SOL     OW39095   1.100   3.868   4.393  0.0849  0.4806 -0.2948
12473SOL    HW139096   1.053   3.871   4.309 -0.8910 -3.4851  0.0217
12473SOL    HW239097   1.033   3.886   4.458  0.5264  1.9839 -0.2354
12474SOL     OW39098   0.532   8.027   4.301  0.3323 -0.0312 -0.0957
12474SOL    HW139099   0.595   7.990   4.363  0.6066  2.3928  1.1368
12474SOL    HW239100   0.584   8.080   4.242 -0.3323  0.4895 -0.2179
12475SOL     OW39101   3.355   4.791   1.880 -0.0372  0.5238  0.1777
12475SOL    HW139102   3.286   4.829   1.935 -0.4206 -1.1017  0.8847
12475SOL    HW239103   3.345   4.834   1.796 -2.0790  0.1854  0.2059
12476SOL     OW39104   0.327   0.143   8.098 -0.3755  0.2187  0.0275
12476SOL    HW139105   0.340   0.145   8.192  0.6471 -0.9534 -0.0750
12476SOL    HW239106   0.355   0.229   8.068 -1.5403  0.9083  0.8839
12477SOL     OW39107   7.421   2.310   4.292 -0.3762 -0.5594  0.2868
12477SOL    HW139108   7.330   2.309   4.321 -0.0263 -1.8232  1.4205
12477SOL    HW239109   7.472   2.306   4.373  0.6618 -1.0703 -0.3759
12478SOL     OW39110   5.615   9.247   8.875  0.2288  0.0465  0.4408
12478SOL    HW139111   5.588   9.316   8.935  2.6298  0.4538  1.0896
12478SOL    HW239112   5.646   9.177   8.932 -0.1196 -0.6884 -0.2716
12479SOL     OW39113   6.065   0.484   0.736  0.0726 -0.3423 -0.2068
12479SOL    HW139114   6.125   0.478   0.661 -0.0379 -0.3006 -0.2978
12479SOL    HW239115   6.081   0.571   0.773 -2.2193  0.9468 -2.1444
12480SOL     OW39116   5.253   7.259   5.617 -0.3278 -0.3157 -0.0009
12480SOL    HW139117   5.201   7.190   5.575 -0.3662 -0.0981 -0.3133
12480SOL    HW239118   5.340   7.220   5.628 -0.1754 -0.2000 -0.7539
12481SOL     OW39119   7.869   4.886   8.205 -0.4247  0.2293 -0.4742
12481SOL    HW139120   7.784   4.899   8.247  0.3799  1.4788  0.8385
12481SOL    HW239121   7.863   4.935   8.123 -1.3115 -0.5373 -0.8774
12482SOL     OW39122   0.055   6.267   3.626 -0.4081 -0.1951  0.2763
12482SOL    HW139123   0.129   6.314   3.589  0.7150 -2.9888 -1.1889
12482SOL    HW239124   0.056   6.182   3.581 -3.5261 -0.8848  1.3915
12483SOL     OW39125   5.796   2.613   3.387  0.6284  0.0909  0.4003
12483SOL    HW139126   5.859   2.569   3.331 -0.4642 -1.4034  0.3123
12483SOL    HW239127   5.837   2.697   3.409  2.9130 -1.1091  0.8675
12484SOL     OW39128   8.807   7.105   3.142 -0.3653  0.4337 -0.3608
12484SOL    HW139129   8.733   7.132   3.196  1.4279 -0.6771  2.8073
12484SOL    HW239130   8.802   7.161   3.064 -3.9495  1.0097  0.1960
12485SOL     OW39131   8.167   3.585   2.061  0.1366 -0.0935  1.2461
12485SOL    HW139132   8.196   3.666   2.020  2.2602 -0.8828  1.1077
12485SOL    HW239133   8.121   3.612   2.140 -0.2028  1.2826  0.5828
12486SOL     OW39134   8.889   6.958   9.082  0.5748 -0.0078 -0.1122
12486SOL    HW139135   8.825   6.900   9.042 -0.5002 -0.6624  2.5170
12486SOL    HW239136   8.948   6.901   9.131  1.7176  0.8038 -0.5024
12487SOL     OW39137   6.767   4.472   1.007  0.3686 -0.5157  0.0930
12487SOL    HW139138   6.694   4.425   0.967  1.8550 -1.8797 -1.0953
12487SOL    HW239139   6.818   4.504   0.933  0.0623  1.9534  0.8985
12488SOL     OW39140   3.934   4.298   8.552  0.0201  0.0915  0.0069
12488SOL    HW139141   3.851   4.286   8.505  1.0549  1.4997 -2.3111
12488SOL    HW239142   3.984   4.218   8.533  0.3159  0.5228 -1.0759
12489SOL     OW39143   4.038   8.206   3.370 -0.3702  0.2321  0.2498
12489SOL    HW139144   4.065   8.140   3.306 -1.0553  0.1335  0.0613
12489SOL    HW239145   3.983   8.267   3.320 -1.3706 -0.1539  0.8666
12490SOL     OW39146   6.114   3.690   8.771  0.2691  0.5099  0.4413
12490SOL    HW139147   6.133   3.687   8.865 -0.5749  1.1848  0.6349
12490SOL    HW239148   6.145   3.605   8.738  0.9664  0.4364  1.2484
12491SOL     OW39149   2.939   0.269   7.171 -1.3267  0.3419 -0.6435
12491SOL    HW139150   2.900   0.181   7.172 -1.0357  0.2026  0.8566
12491SOL    HW239151   2.875   0.324   7.216 -1.7283  1.0021 -2.0249
12492SOL     OW39152   1.463   7.783   8.804  0.1895 -0.1457  0.2907
12492SOL    HW139153   1.428   7.739   8.882 -0.7104 -0.4273 -0.2602
12492SOL    HW239154   1.392   7.841   8.776  0.6661  0.2630 -0.0809
12493SOL     OW39155   5.911   8.405   6.260  0.0394  0.1173  0.2588
12493SOL    HW139156   5.904   8.357   6.177 -3.7781 -0.6333  0.8947
12493SOL    HW239157   5.974   8.356   6.311  0.4223 -0.9717 -1.2267
12494SOL     OW39158   0.234   1.083   4.145 -0.1232 -0.1947  0.0091
12494SOL    HW139159   0.236   1.176   4.171  1.6625  0.0525 -0.9116
12494SOL    HW239160   0.293   1.040   4.207  1.4027 -0.1903 -1.4016
12495SOL     OW39161   4.069   1.533   0.595  0.1921  0.0254  0.2631
12495SOL    HW139162   4.124   1.587   0.539  0.2532 -0.0241  0.2754
12495SOL    HW239163   3.979   1.559   0.573  0.1671 -0.8563 -0.7367
12496SOL     OW39164   4.115   0.821   0.258 -0.8936 -0.2349 -0.3665
12496SOL    HW139165   4.165   0.756   0.308 -0.3827  2.9395  3.4564
12496SOL    HW239166   4.035   0.775   0.232 -1.0332 -2.1493  3.1376
12497SOL     OW39167   5.954   3.730   0.303  0.2349 -0.1247 -0.4582
12497SOL    HW139168   6.004   3.746   0.222 -1.8608  1.3225 -1.5048
12497SOL    HW239169   5.879   3.678   0.274  0.7682 -1.7627  1.0131
12498SOL     OW39170   4.334   6.187   7.999 -0.0559  0.6274 -0.1062
12498SOL    HW139171   4.329   6.258   8.062 -0.1262  1.9707 -1.5855
12498SOL    HW239172   4.427   6.164   7.996 -0.2056 -0.1756  1.2642
12499SOL     OW39173   8.299   4.533   5.745 -0.7664  0.3047 -0.2002
12499SOL    HW139174   8.357   4.474   5.793 -0.7489  0.6230  0.1733
12499SOL    HW239175   8.286   4.607   5.804 -0.5852  0.7921 -0.7678
12500SOL     OW39176   1.640   3.656   8.954 -0.6939 -0.4055  0.3557
12500SOL    HW139177   1.729   3.680   8.980 -0.3529 -0.0046 -1.1136
12500SOL    HW239178   1.641   3.560   8.949 -0.7543 -0.4875  1.7206
12501SOL     OW39179   2.906   5.554   6.397 -0.4207 -0.1455 -0.2247
12501SOL    HW139180   2.965   5.551   6.473 -0.0972 -1.0352 -0.5118
12501SOL    HW239181   2.940   5.626   6.344 -0.4312  0.2493  0.2969
12502SOL     OW39182   0.934   7.783   1.079 -0.0888 -0.8110  0.1012
12502SOL    HW139183   0.942   7.833   1.160 -2.8235  0.9959 -0.6966
12502SOL    HW239184   0.867   7.717   1.097 -0.5687 -0.5303 -0.6357
12503SOL     OW39185   3.466   7.898   9.141  0.3979  0.0802  0.0561
12503SOL    HW139186   3.421   7.860   9.066 -0.8663 -0.6603  1.1700
12503SOL    HW239187   3.519   7.969   9.104  1.8710 -1.9689 -1.8812
12504SOL     OW39188   6.684   3.834   8.283 -0.1188 -0.1760  0.1109
12504SOL    HW139189   6.590   3.852   8.291 -0.3585 -1.3972  0.1740
12504SOL    HW239190   6.702   3.838   8.189 -0.7345 -2.2892 -0.1179
12505SOL     OW39191   6.838   0.488   2.147 -0.1685  0.4141 -0.0968
12505SOL    HW139192   6.931   0.474   2.165 -0.4176 -1.2350  0.0175
12505SOL    HW239193   6.795   0.480   2.232 -0.5168  0.1369 -0.2958
12506SOL     OW39194   4.536   1.556   5.517 -0.2499  0.0316 -0.2118
12506SOL    HW139195   4.504   1.646   5.530  1.1310  0.3535  1.0795
12506SOL    HW239196   4.468   1.514   5.463 -1.1242  1.7115 -0.4563
12507SOL     OW39197   4.541   8.244   5.583 -0.9247  0.1733  0.1224
12507SOL    HW139198   4.560   8.292   5.664  0.4254 -0.1401  0.0017
12507SOL    HW239199   4.557   8.152   5.605 -2.1074 -0.0811 -0.0548
12508SOL     OW39200   7.781   1.170   7.146  0.2926 -0.1502 -0.0452
12508SOL    HW139201   7.809   1.148   7.235  0.8188  0.4750 -0.0494
12508SOL    HW239202   7.831   1.111   7.090  1.4650  0.7963 -0.0368
12509SOL     OW39203   5.604   3.176   6.655 -0.1116 -0.0452  0.0290
12509SOL    HW139204   5.576   3.247   6.597 -0.4477  0.3677  0.6979
12509SOL    HW239205   5.675   3.214   6.707 -1.0774  0.1706  1.2123
12510SOL     OW39206   6.555   4.832   2.691  0.3052 -0.3171 -0.4130
12510SOL    HW139207   6.635   4.840   2.744  0.9791 -0.5403 -1.3753
12510SOL    HW239208   6.490   4.883   2.738  1.3126  0.7866 -0.1926
12511SOL     OW39209   6.953   7.256   6.948 -0.5644  0.0552 -0.1223
12511SOL    HW139210   7.008   7.178   6.941 -0.1944  0.4041 -1.3501
12511SOL    HW239211   6.864   7.221   6.953 -0.3733 -0.4696 -0.2894
12512SOL     OW39212   6.927   0.609   4.032 -0.2720 -0.0308 -0.0048
12512SOL    HW139213   6.882   0.543   3.979 -0.4171  1.2099 -1.4772
12512SOL    HW239214   6.863   0.633   4.099 -0.7242 -0.3785 -0.3106
12513SOL     OW39215   7.820   5.524   4.060 -0.2443  0.5592 -0.1379
12513SOL    HW139216   7.841   5.445   4.010 -3.2689  0.0673 -0.7353
12513SOL    HW239217   7.841   5.596   4.001  1.2169  0.1759 -0.1045
12514SOL     OW39218   7.462   1.301   5.875  0.7866 -0.0363  1.0693
12514SOL    HW139219   7.449   1.361   5.801  1.0407  0.6470  1.5771
12514SOL    HW239220   7.396   1.232   5.862 -0.9249  1.4608  1.6351
12515SOL     OW39221   4.891   0.035   1.233  0.5588  0.5298 -0.2569
12515SOL    HW139222   4.939  -0.048   1.240  0.0552  0.1886 -0.8846
12515SOL    HW239223   4.869   0.042   1.140 -1.8794 -0.0283  0.2479
12516SOL     OW39224   7.230   5.687   6.088 -0.1329 -0.5344 -0.5760
12516SOL    HW139225   7.255   5.754   6.025  0.7626 -0.1289  0.2109
12516SOL    HW239226   7.138   5.706   6.108 -0.7754 -1.3647 -2.6180
12517SOL     OW39227   2.458   3.150   0.039 -0.3053  0.9565 -0.0176
12517SOL    HW139228   2.438   3.075   0.095 -1.6880  1.8263  0.6643
12517SOL    HW239229   2.552   3.162   0.049 -0.2863  0.1413  0.9230
12518SOL     OW39230   9.236   5.419   0.045 -0.1641 -0.2636 -0.1608
12518SOL    HW139231   9.205   5.498   0.089  0.0885  0.2953 -0.9570
12518SOL    HW239232   9.163   5.358   0.048 -0.6059  0.2658 -0.1551
12519SOL     OW39233   1.697   8.243   7.717 -0.3995 -0.1738 -0.3344
12519SOL    HW139234   1.665   8.173   7.773 -2.8979  1.8290  0.8126
12519SOL    HW239235   1.651   8.230   7.634  1.0768 -1.3684 -0.9991
12520SOL     OW39236   3.266   9.180   2.166  0.2062 -0.2511  1.1223
12520SOL    HW139237   3.219   9.157   2.086 -0.0269 -2.8269  1.9676
12520SOL    HW239238   3.358   9.188   2.138 -0.0197 -0.0963  0.4181
12521SOL     OW39239   5.642   4.392   6.306  0.4435 -0.1265 -0.0527
12521SOL    HW139240   5.594   4.327   6.255 -1.9975  1.8683 -0.3543
12521SOL    HW239241   5.684   4.447   6.240 -0.9947  1.1819  0.1100
12522SOL     OW39242   5.874   4.632   6.651 -0.2899  0.1444  0.5106
12522SOL    HW139243   5.894   4.576   6.726 -1.2324  1.1746  1.5430
12522SOL    HW239244   5.838   4.573   6.586  0.5080 -0.7528  0.8701
12523SOL     OW39245   5.866   1.172   0.537 -0.2544 -0.0870  0.5575
12523SOL    HW139246   5.929   1.198   0.470 -1.7013  0.9684 -0.4152
12523SOL    HW239247   5.863   1.077   0.530  0.1910 -0.0446 -0.3231
12524SOL     OW39248   6.693   5.331   8.489  0.0773 -0.3577  0.1192
12524SOL    HW139249   6.738   5.389   8.427 -0.4114 -0.2387 -0.1240
12524SOL    HW239250   6.661   5.390   8.558 -0.0376 -0.3966  0.0982
12525SOL     OW39251   3.844   6.778   3.819 -0.2117  0.0610 -0.2842
12525SOL    HW139252   3.919   6.722   3.797  0.6110  0.3475  1.6372
12525SOL    HW239253   3.821   6.821   3.737  2.0295  0.2992 -0.8265
12526SOL     OW39254   6.204   4.129   0.329 -0.1278 -0.0639  0.4979
12526SOL    HW139255   6.238   4.046   0.295  0.8406  0.4836  0.1267
12526SOL    HW239256   6.191   4.183   0.251 -0.7122  0.1611  0.7463
12527SOL     OW39257   2.690   3.901   8.775  0.3704  0.5977  0.5397
12527SOL    HW139258   2.703   3.878   8.683 -0.7370 -1.0860  0.7961
12527SOL    HW239259   2.779   3.909   8.810  0.8017  1.2335 -0.6508
12528SOL     OW39260   9.256   8.697   7.221 -0.7024  0.3897 -0.3466
12528SOL    HW139261   9.274   8.611   7.257 -1.2862  0.6234  0.5352
12528SOL    HW239262   9.339   8.726   7.182 -0.3650 -0.3338 -0.1605
12529SOL     OW39263   6.474   4.040   6.692 -0.0925 -0.3566  0.1321
12529SOL    HW139264   6.484   3.976   6.763  1.8821  1.4292  1.5289
12529SOL    HW239265   6.556   4.036   6.644 -0.4325  0.2431 -0.5095
12530SOL     OW39266   3.765   8.534   2.952  0.1465 -0.3212 -0.0951
12530SOL    HW139267   3.677   8.499   2.944  0.7268 -1.6755 -0.6348
12530SOL    HW239268   3.813   8.497   2.878  1.3887 -0.2584  0.6641
12531SOL     OW39269   7.101   5.210   7.407  0.1636 -0.0898 -0.2737
12531SOL    HW139270   7.065   5.156   7.477  1.7267 -1.8608 -0.7957
12531SOL    HW239271   7.030   5.215   7.342 -1.4833  2.0147  1.6214
12532SOL     OW39272   8.874   0.708   5.653  0.2390 -0.2951 -0.2277
12532SOL    HW139273   8.800   0.755   5.692 -1.7579 -2.6741 -1.0265
12532SOL    HW239274   8.908   0.768   5.587 -0.7559  0.9730  0.3935
12533SOL     OW39275   5.713   9.273   6.835  0.3986  0.4147 -0.4111
12533SOL    HW139276   5.748   9.319   6.911  2.6803  0.2047 -1.2922
12533SOL    HW239277   5.627   9.313   6.820 -0.0570  0.4781  2.2278
12534SOL     OW39278   3.390   5.400   6.908 -0.6377 -0.0267  0.1314
12534SOL    HW139279   3.358   5.445   6.829 -1.2544 -0.5847  0.0594
12534SOL    HW239280   3.319   5.340   6.931 -0.3019 -0.1218  0.9062
12535SOL     OW39281   6.452   6.142   7.993  0.2834  0.0357  0.8072
12535SOL    HW139282   6.491   6.184   7.917  0.3070  1.2000  1.4544
12535SOL    HW239283   6.403   6.068   7.957  1.8367 -0.5485 -0.1563
12536SOL     OW39284   1.315   4.568   1.995  0.4348 -0.0453  0.8244
12536SOL    HW139285   1.380   4.587   2.063 -0.7917  0.2558  1.9277
12536SOL    HW239286   1.252   4.509   2.037 -0.2494  0.0080 -0.1016
12537SOL     OW39287   7.315   3.774   7.282  0.1762 -0.6796 -0.1543
12537SOL    HW139288   7.318   3.865   7.313 -1.0639 -1.1279  1.2986
12537SOL    HW239289   7.253   3.776   7.209  0.6482 -0.2561 -0.5585
12538SOL     OW39290   0.766   2.993   0.770  0.1361  0.1815 -0.3776
12538SOL    HW139291   0.719   2.911   0.758  0.0855 -0.0349  1.1760
12538SOL    HW239292   0.857   2.972   0.749  0.0832 -0.2233 -0.2104
12539SOL     OW39293   5.948   5.331   1.465  0.3563 -0.7241 -0.4163
12539SOL    HW139294   5.853   5.340   1.462  0.5684  1.5738 -2.2613
12539SOL    HW239295   5.978   5.417   1.496  1.7966 -1.8001  1.2351
12540SOL     OW39296   4.283   5.035   8.943  0.6882  0.3118 -0.4936
12540SOL    HW139297   4.362   5.073   8.904 -0.7085  1.5677 -2.2146
12540SOL    HW239298   4.246   5.106   8.995 -0.3831  0.3937 -1.3529
12541SOL     OW39299   8.485   3.219   2.121 -0.3632 -0.1406  0.1755
12541SOL    HW139300   8.468   3.290   2.183 -0.9883  0.1391 -0.3136
12541SOL    HW239301   8.540   3.259   2.053  0.0422 -0.3585  0.3779
12542SOL     OW39302   5.624   3.372   0.927 -0.8105  0.0186 -0.3558
12542SOL    HW139303   5.597   3.292   0.881 -0.7523  0.0714 -0.4821
12542SOL    HW239304   5.662   3.341   1.009  0.9324 -0.1817 -1.2278
12543SOL     OW39305   8.066   1.697   0.498 -0.4540  0.1413 -0.5900
12543SOL    HW139306   8.072   1.757   0.424 -1.1381 -0.9238 -1.5202
12543SOL    HW239307   8.021   1.748   0.566 -0.9839  0.7114 -1.3545
12544SOL     OW39308   1.670   3.716   1.582  0.3517 -0.2989 -0.4002
12544SOL    HW139309   1.693   3.806   1.602  0.9217 -0.2835 -1.0908
12544SOL    HW239310   1.629   3.683   1.662 -0.3056  0.7171 -0.3122
12545SOL     OW39311   6.461   7.083   8.005 -0.5935 -0.1466  0.5151
12545SOL    HW139312   6.540   7.137   8.005 -0.5032 -0.2762 -0.0301
12545SOL    HW239313   6.390   7.144   8.025 -0.5705  0.2910 -0.6752
12546SOL     OW39314   4.606   8.328   3.833 -0.9487  0.0462 -0.1640
12546SOL    HW139315   4.601   8.401   3.772 -0.9345 -0.9958 -1.4486
12546SOL    HW239316   4.515   8.313   3.860 -0.9457  0.5592  0.1240
12547SOL     OW39317   2.919   2.689   8.820  0.6828  0.2175 -0.0426
12547SOL    HW139318   2.833   2.719   8.791 -1.1193 -1.6095  3.0686
12547SOL    HW239319   2.967   2.671   8.740 -1.7971  1.3231 -1.8493
12548SOL     OW39320   7.581   5.566   0.152  0.2709  0.0675  0.6485
12548SOL    HW139321   7.525   5.578   0.074 -0.2600 -1.4821  0.7760
12548SOL    HW239322   7.522   5.530   0.218  1.3422 -1.3066  0.8821
12549SOL     OW39323   4.476   8.941   1.106 -0.2193  0.1699  0.7357
12549SOL    HW139324   4.409   8.888   1.151 -0.5810  0.2087  0.2534
12549SOL    HW239325   4.453   9.032   1.128  0.2257  0.1424  1.3219
12550SOL     OW39326   4.093   4.418   7.948  0.1952 -0.1356 -0.7062
12550SOL    HW139327   4.189   4.418   7.951  0.1762 -1.2385  0.1222
12550SOL    HW239328   4.070   4.507   7.920  1.4431  0.2889 -0.4138
12551SOL     OW39329   8.395   5.016   6.624 -0.4419 -0.8186 -0.1579
12551SOL    HW139330   8.309   4.980   6.645 -0.3379 -0.9533  0.0378
12551SOL    HW239331   8.451   4.939   6.613 -0.1655 -0.7176  0.4963
12552SOL     OW39332   5.128   4.126   2.989  0.1297  0.0267 -0.3809
12552SOL    HW139333   5.110   4.089   2.903  0.1249 -2.3329  0.5974
12552SOL    HW239334   5.185   4.062   3.032 -1.5592  0.1264  2.1249
12553SOL     OW39335   7.297   3.610   0.667  0.0523  0.0814 -0.5917
12553SOL    HW139336   7.227   3.605   0.733 -1.4837 -1.3858 -2.2734
12553SOL    HW239337   7.360   3.543   0.694 -1.9886 -2.5785 -2.1271
12554SOL     OW39338   2.051   2.273   6.781 -0.3325  0.4286 -0.1633
12554SOL    HW139339   2.134   2.292   6.825 -0.6618  1.0209  0.2186
12554SOL    HW239340   2.070   2.283   6.688 -0.2944  1.8750 -0.0113
12555SOL     OW39341   6.009   5.632   0.888  0.3651 -0.4497  0.2559
12555SOL    HW139342   6.092   5.587   0.874 -0.1453 -0.9245 -1.3505
12555SOL    HW239343   5.960   5.574   0.947  1.2014 -0.1238  1.2784
12556SOL     OW39344   8.374   8.968   2.915 -0.1763 -0.6511 -0.2377
12556SOL    HW139345   8.443   8.922   2.868  0.8295 -0.1897  0.7706
12556SOL    HW239346   8.404   9.059   2.920 -1.2074 -0.2860 -0.4377
12557SOL     OW39347   3.174   6.269   0.514  0.3019  0.8958  0.2219
12557SOL    HW139348   3.082   6.278   0.489  0.2751 -0.6371 -0.2647
12557SOL    HW239349   3.217   6.231   0.437  1.1223  0.5594  0.8333
12558SOL     OW39350   0.466   2.917   0.103  0.0687 -0.1788  0.2178
12558SOL    HW139351   0.442   2.904   0.012  1.4712 -0.4409 -0.1371
12558SOL    HW239352   0.461   3.012   0.116 -3.0126 -0.3911  0.7190
12559SOL     OW39353   8.653   7.621   8.600  0.4514 -0.2501 -0.0769
12559SOL    HW139354   8.596   7.590   8.671  0.9437  0.5792  0.6980
12559SOL    HW239355   8.742   7.605   8.633  0.6715 -0.5121 -0.8059
12560SOL     OW39356   4.392   4.584   8.550 -0.4253  0.3404 -0.0233
12560SOL    HW139357   4.372   4.652   8.613  0.4559 -0.0004  0.6202
12560SOL    HW239358   4.376   4.502   8.597 -0.6655  0.0919 -0.5289
12561SOL     OW39359   0.481   4.616   6.378 -0.5741 -0.2169  0.0698
12561SOL    HW139360   0.454   4.576   6.296 -2.8711 -0.7662  1.0560
12561SOL    HW239361   0.453   4.707   6.371  1.8091  0.4737 -0.8878
12562SOL     OW39362   5.174   5.484   0.033  0.1227  0.9489 -0.2666
12562SOL    HW139363   5.112   5.427   0.078 -0.7392  1.2306 -1.0897
12562SOL    HW239364   5.120   5.548  -0.013  1.0510  1.7808 -0.2174
12563SOL     OW39365   3.660   4.294   7.957  0.2943 -0.5122 -0.7073
12563SOL    HW139366   3.682   4.387   7.965 -0.4988 -0.5429  2.6676
12563SOL    HW239367   3.581   4.292   7.903 -0.6731  0.9519  0.6034
12564SOL     OW39368   0.550   4.482   4.620  0.1917 -0.5246 -0.5281
12564SOL    HW139369   0.455   4.490   4.613 -0.0812 -1.6074  1.6937
12564SOL    HW239370   0.581   4.572   4.633 -0.5891 -0.2659 -0.4424
12565SOL     OW39371   9.091   5.619   3.414 -0.6152 -0.7357 -0.0168
12565SOL    HW139372   9.105   5.703   3.370 -0.9335 -1.6751 -1.9609
12565SOL    HW239373   9.108   5.637   3.507 -0.1252  1.3328 -0.4920
12566SOL     OW39374   6.110   2.032   2.678 -0.1240  0.0905 -0.1023
12566SOL    HW139375   6.070   2.116   2.701 -0.2670 -0.2948  1.1190
12566SOL    HW239376   6.037   1.970   2.679  0.1218 -0.2000 -0.1599
12567SOL     OW39377   5.667   0.320   8.275 -0.0055 -0.6288  0.6789
12567SOL    HW139378   5.705   0.282   8.355 -1.2443 -2.1332  0.5734
12567SOL    HW239379   5.669   0.415   8.291  1.1220 -0.8292  1.8703
12568SOL     OW39380   5.643   5.514   7.320  0.1180  0.0404  0.0508
12568SOL    HW139381   5.564   5.487   7.365  0.1849 -0.1113  0.0793
12568SOL    HW239382   5.659   5.444   7.256 -0.0572  0.3261 -0.3022
12569SOL     OW39383   7.585   2.295   6.939  0.1283 -0.0208 -0.2952
12569SOL    HW139384   7.669   2.251   6.924 -0.3653 -0.9475 -0.3948
12569SOL    HW239385   7.519   2.230   6.913 -0.5931  1.6849 -2.9320
12570SOL     OW39386   3.845   7.043   2.566  0.5196 -0.1359 -0.5891
12570SOL    HW139387   3.863   7.132   2.536  1.2322 -0.2829 -0.6042
12570SOL    HW239388   3.929   7.011   2.596  0.2638 -0.8133 -0.5974
12571SOL     OW39389   2.277   3.558   0.395  0.7727 -0.3118 -0.5207
12571SOL    HW139390   2.338   3.632   0.399  0.9929 -0.4680 -0.9265
12571SOL    HW239391   2.190   3.598   0.392  0.8620 -0.0849 -0.0961
12572SOL     OW39392   5.896   3.033   8.249 -0.0011  0.2689 -0.1866
12572SOL    HW139393   5.966   3.043   8.184 -1.7319 -0.7784 -2.2397
12572SOL    HW239394   5.938   2.986   8.321  0.7305 -3.0475 -2.6336
12573SOL     OW39395   1.708   1.376   1.037 -0.5590  0.6007 -0.1225
12573SOL    HW139396   1.667   1.345   1.117 -1.0750  0.0484 -0.5984
12573SOL    HW239397   1.644   1.436   0.999 -1.0692 -0.5266 -1.0428
12574SOL     OW39398   4.451   7.211   6.778  0.5713  0.0829 -0.4974
12574SOL    HW139399   4.436   7.182   6.688 -1.1583  0.7497 -0.4450
12574SOL    HW239400   4.466   7.130   6.827 -0.5503 -0.4500 -1.0181
12575SOL     OW39401   6.162   2.062   2.376  0.3418 -0.9979 -0.3857
12575SOL    HW139402   6.176   2.018   2.460  1.9127  1.8643  0.9176
12575SOL    HW239403   6.080   2.110   2.387  1.3271  0.6033  0.0740
12576SOL     OW39404   2.313   0.295   6.266  0.7155 -0.3928  0.0130
12576SOL    HW139405   2.397   0.253   6.251  0.9589 -0.1574  0.7048
12576SOL    HW239406   2.265   0.283   6.184  1.1532 -1.1496 -0.1358
12577SOL     OW39407   2.761   3.457   1.974 -0.0257 -0.6287 -0.0698
12577SOL    HW139408   2.835   3.465   2.034 -0.1812 -1.0243  0.1722
12577SOL    HW239409   2.739   3.547   1.951  0.9718 -0.5303 -0.6742
12578SOL     OW39410   6.538   5.251   2.574  0.3938 -0.0422 -0.4572
12578SOL    HW139411   6.460   5.236   2.627  0.6261 -0.4716 -0.2271
12578SOL    HW239412   6.543   5.346   2.563  0.5062  0.0720  0.5372
12579SOL     OW39413   1.611   1.934   4.945 -0.3292  0.2484 -0.0900
12579SOL    HW139414   1.572   2.019   4.967 -0.1313  0.1933  0.4701
12579SOL    HW239415   1.537   1.879   4.921 -0.4580  0.5822 -0.4671
12580SOL     OW39416   4.512   6.814   0.700 -0.1443  0.1450  0.4123
12580SOL    HW139417   4.580   6.747   0.690 -1.1243 -0.4952 -2.6747
12580SOL    HW239418   4.463   6.787   0.778 -0.4084 -2.6722 -0.6621
12581SOL     OW39419   1.100   2.464   2.672  0.0062 -0.1245 -0.2793
12581SOL    HW139420   1.126   2.383   2.629 -1.3435 -0.6114 -0.1820
12581SOL    HW239421   1.127   2.453   2.764 -2.8345 -1.7038  0.4166
12582SOL     OW39422   3.401   0.152   8.226 -0.0682  0.2211 -0.3317
12582SOL    HW139423   3.489   0.150   8.188 -0.8346 -0.0388 -2.1248
12582SOL    HW239424   3.382   0.244   8.239 -0.0422  0.3523 -1.1837
12583SOL     OW39425   2.063   1.782   0.662 -0.2874  0.1207  0.1242
12583SOL    HW139426   1.972   1.809   0.662  0.4094  2.6515 -1.6871
12583SOL    HW239427   2.074   1.732   0.582 -0.0065  0.1469  0.1444
12584SOL     OW39428   9.127   0.580   5.617  0.2802 -0.3948  0.4891
12584SOL    HW139429   9.055   0.620   5.665 -0.2251 -0.6830 -0.0141
12584SOL    HW239430   9.086   0.512   5.564  0.9851 -0.8718  0.5391
12585SOL     OW39431   6.249   3.164   3.960 -0.0701  0.3615  0.4988
12585SOL    HW139432   6.198   3.194   3.885 -1.1884  1.1204  1.5357
12585SOL    HW239433   6.282   3.244   4.001  1.4483 -0.0941  0.2101
12586SOL     OW39434   6.845   2.398   8.683 -0.4832  0.0456 -0.6036
12586SOL    HW139435   6.797   2.321   8.652 -2.8940  0.7719  1.1584
12586SOL    HW239436   6.778   2.466   8.691  0.6145  0.8280  2.8950
12587SOL     OW39437   5.126   3.739   3.321  0.0163  0.6346  0.0598
12587SOL    HW139438   5.055   3.679   3.341  0.5337 -0.4127 -1.1887
12587SOL    HW239439   5.204   3.683   3.315  0.6210  1.5159 -0.4297
12588SOL     OW39440   8.080   1.943   4.866  0.2022  0.7402 -0.0143
12588SOL    HW139441   8.140   1.869   4.877  0.5251  0.8161 -1.2110
12588SOL    HW239442   8.019   1.935   4.939  0.4994 -0.4628  0.1164
12589SOL     OW39443   5.684   5.377   8.772 -0.4501  0.0820  0.1500
12589SOL    HW139444   5.598   5.418   8.773 -0.0479  0.9639 -0.0379
12589SOL    HW239445   5.682   5.319   8.696 -0.8570  0.1539  0.1030
12590SOL     OW39446   6.608   2.183   1.084 -0.2273 -0.7362 -0.7077
12590SOL    HW139447   6.579   2.266   1.123  2.8347 -0.7427  1.7286
12590SOL    HW239448   6.600   2.198   0.990 -1.0226  1.8654 -0.2794
12591SOL     OW39449   6.502   6.137   5.308 -0.6640  0.6219 -0.1998
12591SOL    HW139450   6.433   6.139   5.375  0.7047 -0.9477  1.2918
12591SOL    HW239451   6.474   6.069   5.247  0.1753 -0.8929  1.0912
12592SOL     OW39452   5.205   3.841   8.915  0.2761 -0.0270  0.5492
12592SOL    HW139453   5.277   3.830   8.854  1.0010  1.5502  1.1029
12592SOL    HW239454   5.240   3.814   9.000 -0.7736 -2.3667  0.2697
12593SOL     OW39455   4.120   4.077   8.621 -0.1410  0.5635  0.0303
12593SOL    HW139456   4.100   4.053   8.530 -1.6971  0.2168  0.4531
12593SOL    HW239457   4.082   4.006   8.673  2.6776 -0.3947  0.8654
12594SOL     OW39458   0.511   2.356   4.615  0.0864  0.2497 -0.3958
12594SOL    HW139459   0.513   2.366   4.710  0.4221  0.1610 -0.3938
12594SOL    HW239460   0.506   2.262   4.601  1.3707  0.1972 -0.4896
12595SOL     OW39461   3.578   6.003   8.257 -1.0444 -0.3195  0.2003
12595SOL    HW139462   3.638   6.035   8.324  0.5517 -2.0685 -0.3558
12595SOL    HW239463   3.491   6.010   8.297 -0.4390  1.7794  1.1884
12596SOL     OW39464   4.140   1.489   1.508  0.2080  0.3090  0.0698
12596SOL    HW139465   4.217   1.433   1.517  0.1176 -0.4954 -3.4482
12596SOL    HW239466   4.167   1.574   1.542  1.6966 -0.7524  1.5876
12597SOL     OW39467   0.676   3.490   8.170 -0.0979  0.0206  0.1519
12597SOL    HW139468   0.760   3.514   8.209 -0.0647  0.3846 -0.1361
12597SOL    HW239469   0.663   3.399   8.195  0.1512  0.1091  0.6034
12598SOL     OW39470   0.888   2.291   7.446 -0.3963 -0.2836  0.6727
12598SOL    HW139471   0.923   2.367   7.401  0.6719 -1.6663 -0.8904
12598SOL    HW239472   0.886   2.316   7.539  0.5887  1.3822  0.2490
12599SOL     OW39473   2.955   8.895   4.162 -0.3763  0.1283 -0.0961
12599SOL    HW139474   2.950   8.852   4.248 -0.9851  0.0208 -0.1869
12599SOL    HW239475   2.992   8.981   4.181 -1.3202  0.4325  0.3946
12600SOL     OW39476   0.242   2.642   5.515 -0.0889  0.3291  0.3377
12600SOL    HW139477   0.313   2.584   5.488  0.5861  0.4716  1.7309
12600SOL    HW239478   0.169   2.618   5.459  0.8815 -0.2350 -0.7200
12601SOL     OW39479   4.040   4.599   6.111 -0.1672 -0.7577 -0.0711
12601SOL    HW139480   4.004   4.623   6.197 -0.9037 -1.0554 -0.2870
12601SOL    HW239481   4.070   4.682   6.074 -1.1398 -0.4066 -0.1024
12602SOL     OW39482   8.385   5.282   2.138 -0.5503  0.3272  0.4350
12602SOL    HW139483   8.339   5.290   2.054 -0.6247  0.3145  0.4740
12602SOL    HW239484   8.424   5.368   2.153  0.9796 -0.1788 -0.4944
12603SOL     OW39485   3.798   1.379   3.734 -0.4557 -0.1125  0.0246
12603SOL    HW139486   3.867   1.444   3.747 -0.5906  0.2956 -1.2036
12603SOL    HW239487   3.845   1.296   3.723 -0.0892  0.2721 -1.5421
12604SOL     OW39488   6.134   1.704   2.966 -0.2189 -0.6297 -0.4985
12604SOL    HW139489   6.203   1.651   3.008 -1.5504 -3.4545 -1.7206
12604SOL    HW239490   6.053   1.660   2.991 -1.3331  0.4612 -2.1573
12605SOL     OW39491   2.512   4.006   8.976  0.1778  0.3706  0.6748
12605SOL    HW139492   2.528   3.956   9.056  0.0228  0.4502  0.7569
12605SOL    HW239493   2.582   3.980   8.916 -0.7617 -1.0665  0.1862
12606SOL     OW39494   0.262   2.008   8.188 -0.0754 -0.1225  0.1125
12606SOL    HW139495   0.223   2.010   8.100 -0.8159 -2.4203  0.3726
12606SOL    HW239496   0.198   2.054   8.243 -1.1780 -1.5653  0.0480
12607SOL     OW39497   4.975   2.368   7.379 -0.1512 -0.3426  0.1061
12607SOL    HW139498   5.054   2.391   7.332  0.4551 -0.1568  1.1890
12607SOL    HW239499   4.932   2.451   7.397 -0.8062 -0.4729 -0.8409
12608SOL     OW39500   9.266   6.400   5.115  0.2794  0.1334  0.1930
12608SOL    HW139501   9.308   6.376   5.033  0.8367  0.9826  0.2223
12608SOL    HW239502   9.338   6.406   5.178  0.0168  0.7771  0.4394
12609SOL     OW39503   8.412   3.438   0.927  0.0997  0.6491  0.5204
12609SOL    HW139504   8.367   3.464   0.847 -1.4607 -0.7615  0.9015
12609SOL    HW239505   8.436   3.346   0.913 -2.2757 -0.3515  2.5117
12610SOL     OW39506   0.167   5.288   7.265  1.1895 -0.2965  0.0167
12610SOL    HW139507   0.170   5.269   7.171 -1.5201 -1.2702  0.0924
12610SOL    HW239508   0.147   5.203   7.306  3.3883 -0.1137  1.5921
12611SOL     OW39509   7.428   2.592   9.140  0.3891 -0.1233 -0.6991
12611SOL    HW139510   7.481   2.513   9.124  0.1379 -0.2260 -1.0190
12611SOL    HW239511   7.372   2.599   9.063  1.0031  0.8506 -1.0554
12612SOL     OW39512   3.670   5.364   0.132  0.2261 -0.0524 -0.0052
12612SOL    HW139513   3.635   5.451   0.116  2.5799  0.6705 -1.5832
12612SOL    HW239514   3.732   5.376   0.204 -0.3824 -0.6871  0.6337
12613SOL     OW39515   1.742   2.700   2.751  0.3625 -0.1885  0.1140
12613SOL    HW139516   1.712   2.750   2.827  1.0687 -2.0175  1.6274
12613SOL    HW239517   1.836   2.690   2.765  0.8645  1.2282 -2.0796
12614SOL     OW39518   5.072   2.202   0.705 -0.1648  0.1517 -0.2983
12614SOL    HW139519   5.029   2.239   0.782  0.9447 -0.9302  0.8725
12614SOL    HW239520   5.157   2.173   0.737  0.8263  0.8668 -2.2434
12615SOL     OW39521   4.884   8.710   7.954 -0.1366  0.1791 -0.9952
12615SOL    HW139522   4.927   8.626   7.969  0.6957  1.0257  1.4926
12615SOL    HW239523   4.930   8.747   7.878 -0.2312 -1.4114 -1.8417
12616SOL     OW39524   0.623   2.079   2.115  0.7294 -0.1937 -0.7914
12616SOL    HW139525   0.575   2.041   2.042  0.8792 -0.1019 -0.9376
12616SOL    HW239526   0.714   2.081   2.086  0.5566  1.4155 -1.2637
12617SOL     OW39527   1.871   2.330   5.833 -0.4294 -0.3482 -0.5792
12617SOL    HW139528   1.930   2.383   5.779 -0.8490 -1.8320 -2.5680
12617SOL    HW239529   1.928   2.263   5.872 -0.0440  1.0010  1.2668
12618SOL     OW39530   0.136   0.144   5.612  0.1195 -0.2542  0.1763
12618SOL    HW139531   0.231   0.145   5.601  0.0302 -0.7503 -0.6590
12618SOL    HW239532   0.118   0.217   5.671  0.8772  0.7626 -0.8328
12619SOL     OW39533   1.631   8.010   2.712 -0.0436  0.2401  0.2535
12619SOL    HW139534   1.708   8.004   2.656 -0.4307  1.5289 -0.4612
12619SOL    HW239535   1.665   8.012   2.801  0.7977  1.3109 -0.0752
12620SOL     OW39536   5.898   7.016   1.199 -0.0909  0.3802  0.0323
12620SOL    HW139537   5.960   6.957   1.242  2.2670  1.8989 -1.1511
12620SOL    HW239538   5.855   7.063   1.270 -0.6491 -1.4236  0.9125
12621SOL     OW39539   0.560   8.760   8.381 -0.4198 -0.3412  0.0539
12621SOL    HW139540   0.510   8.700   8.327 -1.5391 -1.9826  2.8369
12621SOL    HW239541   0.504   8.838   8.388 -0.2763 -0.1242 -1.0858
12622SOL     OW39542   9.230   1.927   7.871  0.4532  0.1218  0.4327
12622SOL    HW139543   9.136   1.947   7.864  0.8303  1.1062 -2.4349
12622SOL    HW239544   9.235   1.832   7.863 -0.1189  0.2852 -2.4485
12623SOL     OW39545   1.629   3.381   1.942 -0.1234 -0.0370 -0.8799
12623SOL    HW139546   1.705   3.374   1.885 -0.0520 -1.4202 -0.6430
12623SOL    HW239547   1.588   3.294   1.939 -0.5936  0.1108  0.5040
12624SOL     OW39548   3.129   7.559   8.058  0.2311  0.1589  0.1420
12624SOL    HW139549   3.123   7.573   7.963 -0.5350 -0.4980  0.0814
12624SOL    HW239550   3.106   7.467   8.069  1.0399  0.0371  0.9031
12625SOL     OW39551   5.648   7.594   1.921  0.4554  0.3512 -0.0883
12625SOL    HW139552   5.697   7.535   1.977  0.0382 -1.7695 -1.8950
12625SOL    HW239553   5.712   7.622   1.855 -0.4164 -1.5694 -1.8082
12626SOL     OW39554   6.914   1.499   5.291 -0.4072  0.2579  0.3804
12626SOL    HW139555   6.886   1.566   5.353  0.4164 -0.1199  1.1662
12626SOL    HW239556   6.836   1.444   5.278 -1.4130  1.9411 -1.0768
12627SOL     OW39557   6.488   8.929   0.389  0.5710  0.3032 -0.2454
12627SOL    HW139558   6.506   9.022   0.380 -1.7677  0.6737 -1.4427
12627SOL    HW239559   6.433   8.923   0.467 -1.6928  0.2991 -1.8084
12628SOL     OW39560   2.557   0.168   7.478 -0.5241 -0.5167 -0.4290
12628SOL    HW139561   2.515   0.191   7.395  1.8277 -0.3937 -1.6374
12628SOL    HW239562   2.609   0.246   7.501 -0.4626 -0.8753  0.7160
12629SOL     OW39563   6.459   1.639   7.267 -0.4116 -0.0649 -0.0015
12629SOL    HW139564   6.421   1.564   7.221 -1.7596  0.7338 -0.2245
12629SOL    HW239565   6.424   1.633   7.356  0.8492 -0.6545  0.4674
12630SOL     OW39566   5.311   0.691   7.341 -0.0020  0.3233  0.3247
12630SOL    HW139567   5.242   0.724   7.399 -0.1299  1.2197 -0.3247
12630SOL    HW239568   5.359   0.770   7.315  0.7435 -0.2066  0.1099
12631SOL     OW39569   0.483   7.309   3.380 -0.0543 -0.3013 -0.2557
12631SOL    HW139570   0.573   7.280   3.389 -0.3414 -0.4299  2.7456
12631SOL    HW239571   0.433   7.247   3.434 -1.6098  1.2191  0.0813
12632SOL     OW39572   4.864   2.087   6.536  0.2490  0.1708 -0.7322
12632SOL    HW139573   4.872   2.139   6.456  1.1728  0.1597 -0.6596
12632SOL    HW239574   4.909   2.005   6.515  0.3399  0.0994 -0.2587
12633SOL     OW39575   0.354   7.433   1.800 -0.0943  0.5617  0.0975
12633SOL    HW139576   0.328   7.514   1.755  1.9339  0.7046 -0.8641
12633SOL    HW239577   0.388   7.462   1.884 -1.0185  0.5386  0.4916
12634SOL     OW39578   7.926   6.058   2.063  0.2404  0.2504  0.1864
12634SOL    HW139579   7.953   6.032   2.151  2.4356 -1.3044 -0.9108
12634SOL    HW239580   7.968   6.143   2.048  0.2894  0.2706  0.4433
12635SOL     OW39581   0.833   2.626   6.067  0.1568  0.0026  0.2320
12635SOL    HW139582   0.739   2.615   6.082  0.5787 -1.9522  1.5631
12635SOL    HW239583   0.871   2.636   6.154  1.2768  0.0596 -0.2481
12636SOL     OW39584   3.787   7.152   2.152  0.1201  0.0614 -0.0415
12636SOL    HW139585   3.761   7.066   2.185  1.0071 -1.0664 -2.1776
12636SOL    HW239586   3.881   7.157   2.169 -0.0538  0.9123  0.7085
12637SOL     OW39587   0.396   4.434   7.667  0.2659 -0.0081  0.0208
12637SOL    HW139588   0.336   4.504   7.641  0.7182  0.6483  0.7141
12637SOL    HW239589   0.352   4.353   7.639  0.5672  0.6309 -2.4021
12638SOL     OW39590   2.568   3.690   3.700 -0.4273  0.0246  0.4181
12638SOL    HW139591   2.649   3.732   3.729  0.0585 -0.2523 -0.5291
12638SOL    HW239592   2.498   3.742   3.740  0.2118  0.3100  1.1740
12639SOL     OW39593   4.650   4.131   1.604  0.1965 -0.3345 -0.2834
12639SOL    HW139594   4.641   4.098   1.514 -1.3155  0.4423 -0.4361
12639SOL    HW239595   4.736   4.175   1.604  0.2292 -0.3716 -1.3458
12640SOL     OW39596   2.108   3.071   4.706  0.0488 -0.2210 -0.3579
12640SOL    HW139597   2.170   3.090   4.635 -0.9097 -0.5750 -1.2970
12640SOL    HW239598   2.096   3.155   4.750  2.0450 -0.3657  0.5401
12641SOL     OW39599   6.458   6.354   7.773  0.3269 -0.7493  0.2515
12641SOL    HW139600   6.532   6.297   7.794  1.4042 -0.6210 -2.8640
12641SOL    HW239601   6.497   6.427   7.725 -1.9098 -1.1829 -2.3548
12642SOL     OW39602   1.402   3.331   5.988  0.1403  0.6162  0.0885
12642SOL    HW139603   1.456   3.262   5.948 -0.6872  0.2305 -0.3692
12642SOL    HW239604   1.466   3.392   6.025  0.9273  1.1426 -2.0693
12643SOL     OW39605   7.202   6.752   2.938  0.3070 -0.8520  0.3392
12643SOL    HW139606   7.234   6.663   2.921  1.8166  0.0442 -1.7506
12643SOL    HW239607   7.282   6.804   2.949 -0.5567 -0.0921  3.7107
12644SOL     OW39608   5.002   0.084   2.707 -0.1397 -0.9015  0.3339
12644SOL    HW139609   4.937   0.058   2.772 -1.0073 -0.7705 -0.4700
12644SOL    HW239610   5.016   0.005   2.655 -0.2033 -0.7232  0.0454
12645SOL     OW39611   8.184   1.647   4.263  0.3174  0.8452  0.3783
12645SOL    HW139612   8.096   1.657   4.302 -0.1359 -0.2211 -0.3630
12645SOL    HW239613   8.173   1.673   4.172  0.3967 -0.8665 -0.1330
12646SOL     OW39614   0.304   5.179   8.941 -0.2092  0.0147 -0.3929
12646SOL    HW139615   0.347   5.252   8.987  0.2952  0.3875 -1.4397
12646SOL    HW239616   0.212   5.186   8.967 -0.3364  1.5832 -1.1617
12647SOL     OW39617   2.865   0.516   8.759 -0.1721 -0.4514 -0.3902
12647SOL    HW139618   2.825   0.474   8.835 -0.7578  0.1113 -0.3799
12647SOL    HW239619   2.926   0.579   8.795  1.2422 -1.7731 -0.4087
12648SOL     OW39620   3.573   2.419   8.226  0.1486  0.5089 -0.5862
12648SOL    HW139621   3.549   2.361   8.153 -4.1140  1.1838  0.1561
12648SOL    HW239622   3.572   2.362   8.303 -2.2007  1.1193 -0.1272
12649SOL     OW39623   8.372   1.490   5.526 -0.0173 -0.6578 -0.1441
12649SOL    HW139624   8.373   1.406   5.572  1.0800 -0.4251  0.2796
12649SOL    HW239625   8.464   1.506   5.503 -0.0354  0.9877  0.8192
12650SOL     OW39626   0.621   6.369   4.042  0.2376 -0.4984 -0.1011
12650SOL    HW139627   0.590   6.401   3.957  1.7120  1.7261  0.1707
12650SOL    HW239628   0.544   6.326   4.080 -0.6433 -0.8933 -2.2277
12651SOL     OW39629   8.547   2.516   2.528 -0.3987  0.1741 -0.1564
12651SOL    HW139630   8.471   2.571   2.513  0.7225  1.5982 -0.6891
12651SOL    HW239631   8.608   2.538   2.458  0.5618 -0.8423  0.3340
12652SOL     OW39632   0.383   4.150   5.131 -0.1466 -0.3738  0.2512
12652SOL    HW139633   0.388   4.241   5.101  3.0950 -0.5998 -0.1335
12652SOL    HW239634   0.406   4.098   5.054 -3.2167 -1.6349  0.1365
12653SOL     OW39635   5.297   9.068   4.975  0.1896 -0.4129 -0.1194
12653SOL    HW139636   5.375   9.117   5.002 -1.1815  1.6640  0.1487
12653SOL    HW239637   5.272   9.107   4.891 -0.0811 -1.6415 -0.6196
12654SOL     OW39638   5.428   2.157   7.318 -0.2385  0.2532  0.1259
12654SOL    HW139639   5.509   2.115   7.347  0.5735  1.3795 -0.4925
12654SOL    HW239640   5.373   2.084   7.288  0.5375 -0.5150  0.5480
12655SOL     OW39641   5.509   2.864   3.564 -0.2604 -0.2704 -0.3555
12655SOL    HW139642   5.437   2.813   3.600  0.3680 -0.4335  0.7023
12655SOL    HW239643   5.518   2.938   3.624  1.2125 -0.8747  0.2040
12656SOL     OW39644   4.034   0.757   1.313 -0.1102 -0.5006 -0.0584
12656SOL    HW139645   3.975   0.832   1.304 -0.9069 -1.2906 -1.5982
12656SOL    HW239646   4.097   0.784   1.380 -0.5495  1.4227 -0.3952
12657SOL     OW39647   0.101   4.028   4.709 -0.4858  0.2375  0.2112
12657SOL    HW139648   0.174   3.967   4.707 -1.7895 -1.3788  1.4456
12657SOL    HW239649   0.100   4.063   4.798 -0.2251  1.5077 -0.2656
12658SOL     OW39650   9.200   7.618   2.462 -0.9892 -0.2554  0.0273
12658SOL    HW139651   9.277   7.567   2.436 -1.1952 -0.9807  0.8135
12658SOL    HW239652   9.155   7.637   2.380  1.8755  3.2331 -0.8758
12659SOL     OW39653   8.570   9.115   8.642 -0.3171  0.2508  0.0324
12659SOL    HW139654   8.498   9.098   8.581 -0.1916  1.2162 -0.3888
12659SOL    HW239655   8.533   9.096   8.729 -1.0098  0.5153 -0.1992
12660SOL     OW39656   0.372   7.949   8.169  0.0373 -0.3332  0.1776
12660SOL    HW139657   0.337   7.865   8.141  0.0841 -0.5118  0.6516
12660SOL    HW239658   0.297   8.009   8.162 -0.3725 -0.7120  1.1669
12661SOL     OW39659   1.801   5.516   0.268 -0.1900  0.0566 -0.2705
12661SOL    HW139660   1.776   5.563   0.347 -1.7572  0.2257 -0.8511
12661SOL    HW239661   1.767   5.569   0.196 -1.6987 -1.7581 -0.9455
12662SOL     OW39662   3.481   5.133   6.649 -0.2612  0.3077 -0.6424
12662SOL    HW139663   3.514   5.218   6.618 -0.0091 -0.1085 -1.5402
12662SOL    HW239664   3.413   5.110   6.586  1.6314 -1.5005 -2.0692
12663SOL     OW39665   6.172   8.106   2.887 -0.0535  0.5431  0.5665
12663SOL    HW139666   6.163   8.041   2.817 -0.7645 -0.3208  1.4415
12663SOL    HW239667   6.254   8.151   2.868 -1.1405  1.5871 -1.8643
12664SOL     OW39668   9.275   7.663   7.783 -0.2454 -0.9940 -0.0003
12664SOL    HW139669   9.239   7.751   7.772  1.2435 -0.3467  0.2235
12664SOL    HW239670   9.298   7.634   7.695 -2.4013 -1.9077 -0.3018
12665SOL     OW39671   0.834   2.487   2.966  0.2033 -0.0931 -0.0197
12665SOL    HW139672   0.928   2.496   2.954 -0.0583 -0.7384 -2.8454
12665SOL    HW239673   0.796   2.551   2.905 -1.1833  0.8262  1.7592
12666SOL     OW39674   5.419   1.201   6.997 -0.4073  0.4284 -0.0184
12666SOL    HW139675   5.386   1.132   7.054 -0.8051 -0.0135 -0.7712
12666SOL    HW239676   5.507   1.220   7.029 -0.7570  0.4189  0.9436
12667SOL     OW39677   7.460   1.869   6.055 -0.3729  0.5166 -0.3843
12667SOL    HW139678   7.482   1.779   6.077 -0.5532  0.9405  1.5924
12667SOL    HW239679   7.365   1.868   6.041 -1.1857  1.2858  4.3995
12668SOL     OW39680   5.161   6.411   3.875 -0.0463  0.5719 -0.1593
12668SOL    HW139681   5.206   6.328   3.890 -0.2677  0.3662 -0.5928
12668SOL    HW239682   5.107   6.394   3.797 -0.6556  0.8964  0.1864
12669SOL     OW39683   8.373   3.900   6.183 -0.1238  0.0052  0.0944
12669SOL    HW139684   8.299   3.920   6.125  0.2783 -0.2309 -0.5069
12669SOL    HW239685   8.336   3.842   6.249 -0.6927  0.6493  0.3440
12670SOL     OW39686   3.651   2.809   6.600 -0.4039  0.0395 -0.3809
12670SOL    HW139687   3.704   2.812   6.520  3.1154 -1.5645  1.7462
12670SOL    HW239688   3.656   2.718   6.629  0.8574  1.1314  3.1365
12671SOL     OW39689   8.399   8.406   3.290 -0.3151 -0.1354  0.7263
12671SOL    HW139690   8.396   8.323   3.337 -0.9390  0.0334  0.9866
12671SOL    HW239691   8.348   8.466   3.344  1.3778  0.8233  1.3238
12672SOL     OW39692   7.795   0.163   1.570 -0.0863 -0.0307 -0.3044
12672SOL    HW139693   7.859   0.194   1.506 -3.6186  0.5332 -3.7628
12672SOL    HW239694   7.757   0.085   1.530 -2.9628  0.8142  0.6893
12673SOL     OW39695   8.215   1.450   0.250 -0.3786  0.1973  0.6019
12673SOL    HW139696   8.303   1.413   0.251 -0.4899 -0.2204 -2.1032
12673SOL    HW239697   8.165   1.392   0.192 -1.7524  1.9273  0.0070
12674SOL     OW39698   4.903   8.358   7.040  0.3082  0.6703  0.4663
12674SOL    HW139699   4.812   8.381   7.018  0.7676  0.3791 -1.9327
12674SOL    HW239700   4.954   8.434   7.014  0.7914  0.7566  1.6414
12675SOL     OW39701   8.600   7.806   4.940  0.1068 -0.2203  0.1377
12675SOL    HW139702   8.525   7.834   4.992  0.8165  1.1192  0.4455
12675SOL    HW239703   8.666   7.874   4.953  0.9910 -0.8410 -0.9830
12676SOL     OW39704   7.336   6.798   0.410  0.3469 -0.4740  0.1513
12676SOL    HW139705   7.297   6.822   0.494 -1.7614 -0.9371 -0.6497
12676SOL    HW239706   7.370   6.710   0.424 -0.8537 -0.9369  0.2806
12677SOL     OW39707   7.348   8.383   5.726 -0.6120 -0.1353  0.0958
12677SOL    HW139708   7.380   8.342   5.807  1.0874  0.1792 -0.3869
12677SOL    HW239709   7.315   8.468   5.754 -1.5245 -0.6646  0.6810
12678SOL     OW39710   5.290   7.612   2.634 -1.0564  0.4795  0.2449
12678SOL    HW139711   5.342   7.627   2.554 -0.1053 -4.0551 -0.0831
12678SOL    HW239712   5.305   7.690   2.687  2.9924  1.0235 -1.5312
12679SOL     OW39713   2.071   1.275   6.148 -0.4478 -0.2190  0.0274
12679SOL    HW139714   2.106   1.266   6.059 -1.9264 -1.7576 -0.4253
12679SOL    HW239715   2.121   1.213   6.200 -0.9807 -0.8194 -0.1678
12680SOL     OW39716   2.346   0.791   4.514 -0.0182 -0.4070 -0.1757
12680SOL    HW139717   2.436   0.819   4.528 -0.1212 -0.4645  0.6436
12680SOL    HW239718   2.295   0.845   4.574 -0.6231  0.2195 -1.2465
12681SOL     OW39719   6.419   1.192   1.606 -0.2569 -0.3126  0.1823
12681SOL    HW139720   6.440   1.133   1.679 -1.1273 -0.6996  0.1240
12681SOL    HW239721   6.413   1.279   1.646 -1.4016 -0.6182  0.6912
12682SOL     OW39722   2.111   4.552   1.108  0.0915  0.4771 -0.3107
12682SOL    HW139723   2.126   4.598   1.190  3.3979 -0.8156 -0.1031
12682SOL    HW239724   2.044   4.487   1.129 -0.3967  1.3345  0.8718
12683SOL     OW39725   6.358   3.349   0.953  0.1758  0.2392 -0.0511
12683SOL    HW139726   6.362   3.444   0.963  2.0100  0.0951  0.7061
12683SOL    HW239727   6.430   3.328   0.893  1.9646 -0.9851  2.4312
12684SOL     OW39728   4.659   2.555   3.076 -0.5646  0.0214 -0.1290
12684SOL    HW139729   4.576   2.540   3.121 -1.5593 -1.4488 -2.3437
12684SOL    HW239730   4.663   2.485   3.010  3.3274 -1.1278  1.1790
12685SOL     OW39731   5.452   1.715   1.572 -0.3878  0.1803  0.3079
12685SOL    HW139732   5.377   1.710   1.631 -0.4824 -0.6837  0.1200
12685SOL    HW239733   5.415   1.744   1.489 -0.3471  0.7926  0.4992
12686SOL     OW39734   5.478   4.606   4.446 -0.0716  0.1476  0.1264
12686SOL    HW139735   5.526   4.560   4.378  0.1766 -0.3955  0.6631
12686SOL    HW239736   5.386   4.583   4.430  0.1081 -1.0581  0.7754
12687SOL     OW39737   9.269   2.576   8.437  0.1846 -0.1583  0.0974
12687SOL    HW139738   9.183   2.589   8.477  0.2291 -1.0522  0.4992
12687SOL    HW239739   9.257   2.504   8.376  0.7520 -0.5873  0.4859
12688SOL     OW39740   6.675   1.306   3.436 -0.4694 -0.5797  0.4186
12688SOL    HW139741   6.705   1.356   3.361  0.7197 -0.5131  0.9272
12688SOL    HW239742   6.746   1.244   3.454 -0.3910 -0.0905  1.9360
12689SOL     OW39743   6.686   3.793   2.851  0.4432 -0.1472 -0.3500
12689SOL    HW139744   6.656   3.837   2.772 -0.4897  1.0443  0.6551
12689SOL    HW239745   6.733   3.861   2.899 -0.5178 -0.3861  0.9461
12690SOL     OW39746   7.216   2.703   1.282  0.1844 -0.4970  0.4171
12690SOL    HW139747   7.261   2.653   1.350  1.4538  0.8703  0.6195
12690SOL    HW239748   7.123   2.692   1.301  0.3982 -3.5350 -0.1176
12691SOL     OW39749   2.001   2.277   5.473 -0.0190  0.0421  0.1578
12691SOL    HW139750   1.939   2.346   5.497 -0.5371 -0.6228  0.7442
12691SOL    HW239751   2.019   2.292   5.380 -1.9248 -0.4504 -0.2984
12692SOL     OW39752   0.799   7.148   5.859 -0.0911 -0.4065 -0.2133
12692SOL    HW139753   0.893   7.144   5.880 -0.4880 -3.3165  1.2270
12692SOL    HW239754   0.791   7.096   5.779 -0.5994 -0.9640  0.1984
12693SOL     OW39755   3.137   4.904   3.611  0.0329 -0.1482  0.2126
12693SOL    HW139756   3.219   4.935   3.571  0.8764 -0.8022  1.4223
12693SOL    HW239757   3.078   4.979   3.604  0.3795 -0.0138 -1.6257
12694SOL     OW39758   0.370   7.165   8.797 -0.2665  0.7704 -0.2696
12694SOL    HW139759   0.304   7.230   8.822 -0.1437  0.9995 -0.5410
12694SOL    HW239760   0.332   7.119   8.723 -1.4005 -1.1209  1.4238
12695SOL     OW39761   8.395   4.102   6.400 -0.8495  0.2225 -0.6513
12695SOL    HW139762   8.361   4.026   6.353 -0.9053 -0.1798  0.0451
12695SOL    HW239763   8.330   4.121   6.468 -1.4559  1.6569 -1.5930
12696SOL     OW39764   2.262   7.007   7.180 -0.0126 -0.0635  0.5866
12696SOL    HW139765   2.337   6.977   7.231 -0.0219 -0.0653  0.5989
12696SOL    HW239766   2.188   6.998   7.240 -0.0485 -0.2201  0.5198
12697SOL     OW39767   5.542   6.309   1.385  0.0018  0.2300 -0.1390
12697SOL    HW139768   5.624   6.355   1.406  0.8343 -1.5518  0.6144
12697SOL    HW239769   5.532   6.246   1.456  0.3854 -2.7348 -2.6282
12698SOL     OW39770   9.149   4.611   3.511  0.2325 -0.2553  0.2737
12698SOL    HW139771   9.145   4.622   3.416 -0.0256 -2.1236  0.0538
12698SOL    HW239772   9.136   4.699   3.545 -1.4813  0.1757 -1.3950
12699SOL     OW39773   6.679   8.207   1.459  0.2983 -0.6160  0.1650
12699SOL    HW139774   6.762   8.186   1.501  0.8962  0.1590 -0.5955
12699SOL    HW239775   6.612   8.169   1.516  1.0444  1.0519  2.2138
12700SOL     OW39776   7.922   8.570   4.109 -0.3452  0.2213 -0.3134
12700SOL    HW139777   7.964   8.572   4.023  1.5728 -0.2192  0.5780
12700SOL    HW239778   7.849   8.509   4.099 -0.8308  1.0258 -1.9181
12701SOL     OW39779   0.123   7.613   5.992  0.1761 -0.1728 -0.2736
12701SOL    HW139780   0.213   7.583   5.983  0.3991  0.6902 -1.0481
12701SOL    HW239781   0.070   7.546   5.949  0.2682 -1.5497  1.6566
12702SOL     OW39782   0.605   8.672   2.040  0.1411 -0.6329 -0.0009
12702SOL    HW139783   0.518   8.713   2.036 -1.2948 -3.5623 -0.3117
12702SOL    HW239784   0.630   8.660   1.948  1.4732  1.3090  0.0735
12703SOL     OW39785   3.112   8.822   8.456  0.0140 -0.1203  0.2740
12703SOL    HW139786   3.099   8.874   8.536  1.0025 -1.3403  1.2571
12703SOL    HW239787   3.182   8.867   8.409  1.2011 -0.7951  1.3558
12704SOL     OW39788   4.658   2.396   4.536 -0.1439 -0.3299 -0.0632
12704SOL    HW139789   4.638   2.374   4.627 -1.5228  1.2662  0.0549
12704SOL    HW239790   4.689   2.486   4.539 -0.1385 -0.2857 -1.1529
12705SOL     OW39791   2.821   6.252   4.576 -0.1450 -0.5178  0.3946
12705SOL    HW139792   2.848   6.321   4.637 -0.5757  0.1749 -0.1937
12705SOL    HW239793   2.851   6.282   4.490 -2.4938  0.1447 -0.2452
12706SOL     OW39794   5.090   6.722   2.424 -0.8162  0.2916 -0.1896
12706SOL    HW139795   5.028   6.668   2.375 -2.6928  1.9801  0.2804
12706SOL    HW239796   5.108   6.672   2.503  0.4443 -1.3886 -1.5003
12707SOL     OW39797   3.228   6.460   5.863 -0.1244 -0.2553  0.9880
12707SOL    HW139798   3.301   6.520   5.851 -0.2712 -0.2684 -0.0809
12707SOL    HW239799   3.269   6.374   5.873  0.0085 -0.3915 -0.4845
12708SOL     OW39800   5.822   6.844   1.541  0.1715 -0.0673 -0.1797
12708SOL    HW139801   5.814   6.924   1.593  1.1138 -0.3651  0.4453
12708SOL    HW239802   5.885   6.866   1.472  0.9375 -0.4619  0.3871
12709SOL     OW39803   0.902   4.678   1.365  0.4290 -0.9006  0.1363
12709SOL    HW139804   0.950   4.679   1.447  0.1707  0.8775  0.2827
12709SOL    HW239805   0.946   4.743   1.310 -1.5757  0.5303  0.1549
12710SOL     OW39806   3.251   1.696   2.368 -0.0764 -0.4962 -0.0572
12710SOL    HW139807   3.335   1.661   2.397  0.0634 -2.2298 -2.3930
12710SOL    HW239808   3.186   1.637   2.408 -0.0211 -1.0294 -0.7391
12711SOL     OW39809   8.672   4.459   8.787 -0.7295 -0.0818 -0.0778
12711SOL    HW139810   8.609   4.454   8.715 -1.1934 -0.8463  0.3737
12711SOL    HW239811   8.758   4.458   8.744 -1.0007 -0.6896 -0.6123
12712SOL     OW39812   3.128   4.140   8.170  0.1376 -0.4360  0.2492
12712SOL    HW139813   3.103   4.107   8.257  0.7678 -0.1132  0.5532
12712SOL    HW239814   3.047   4.179   8.136  0.3681  1.2443  1.5354
12713SOL     OW39815   1.573   4.640   0.084  0.3451  0.4216 -0.3489
12713SOL    HW139816   1.576   4.723   0.132 -1.2842  0.5803 -0.4859
12713SOL    HW239817   1.516   4.584   0.137 -0.3008  0.1158 -1.3680
12714SOL     OW39818   4.868   7.847   5.149  0.1349 -0.1135 -0.1195
12714SOL    HW139819   4.906   7.798   5.222  1.7025 -0.7326 -1.3304
12714SOL    HW239820   4.827   7.923   5.191  0.5631 -0.7222  1.4524
12715SOL     OW39821   7.684   5.317   2.928 -0.6980 -0.1225 -0.3299
12715SOL    HW139822   7.779   5.307   2.930 -0.5656  1.0370 -0.5324
12715SOL    HW239823   7.670   5.410   2.908 -1.8686 -0.5591 -1.6010
12716SOL     OW39824   0.882   8.745   2.110 -0.5975  0.4912  0.5462
12716SOL    HW139825   0.807   8.734   2.051  2.2482  0.1393 -3.2303
12716SOL    HW239826   0.894   8.659   2.150 -0.8160 -0.0876 -0.6132
12717SOL     OW39827   2.302   2.121   4.750 -0.5598 -0.1994  0.4929
12717SOL    HW139828   2.222   2.160   4.785 -0.8086 -0.1275 -0.1515
12717SOL    HW239829   2.274   2.078   4.669  0.1805  0.4450 -0.1158
12718SOL     OW39830   8.441   5.486   3.772  0.3920  0.2111  0.4233
12718SOL    HW139831   8.372   5.545   3.742  0.0971  1.2135  2.9455
12718SOL    HW239832   8.457   5.429   3.698 -2.5597  0.5143 -0.5304
12719SOL     OW39833   1.126   5.212   4.776  0.1202 -0.1410  0.0868
12719SOL    HW139834   1.104   5.161   4.854 -0.5767 -1.8738 -1.1783
12719SOL    HW239835   1.058   5.280   4.772  2.6924  2.8050  3.3612
12720SOL     OW39836   8.439   9.224   3.491 -0.3022 -0.5063 -0.3968
12720SOL    HW139837   8.449   9.278   3.412  0.7683 -0.9006 -0.5477
12720SOL    HW239838   8.348   9.236   3.517 -0.4251  0.3449 -1.1743
12721SOL     OW39839   8.718   1.063   7.169  0.4919 -0.1370  0.4066
12721SOL    HW139840   8.793   1.101   7.123  0.2473 -0.2051 -0.0531
12721SOL    HW239841   8.748   1.053   7.259  1.8066 -2.2262 -0.2200
12722SOL     OW39842   1.366   7.959   9.139 -0.1885  0.1445  0.5273
12722SOL    HW139843   1.392   8.034   9.193 -2.2239 -0.6208  2.6379
12722SOL    HW239844   1.273   7.975   9.120  0.2154 -0.1428 -1.9276
12723SOL     OW39845   4.224   0.277   7.439  0.5326 -0.0313  0.1191
12723SOL    HW139846   4.149   0.334   7.422  0.2120 -0.3604  0.4297
12723SOL    HW239847   4.272   0.321   7.509  0.0813 -0.3344  0.6182
12724SOL     OW39848   6.231   7.008   1.946  0.3898 -0.7585  0.1303
12724SOL    HW139849   6.300   6.998   1.881 -0.4029 -1.2213 -0.6629
12724SOL    HW239850   6.266   7.069   2.010  0.9560  0.2152 -1.0786
12725SOL     OW39851   3.742   3.920   4.839  0.4096  0.1264  0.7089
12725SOL    HW139852   3.687   3.862   4.891  0.6722 -0.8683 -0.1072
12725SOL    HW239853   3.691   3.936   4.759  2.0180 -2.2337 -0.8423
12726SOL     OW39854   2.775   4.318   8.785 -0.2039 -0.2767 -0.5653
12726SOL    HW139855   2.783   4.340   8.692 -2.0603  1.5470 -0.3436
12726SOL    HW239856   2.738   4.397   8.825  0.2367 -1.1566  1.6756
12727SOL     OW39857   0.205   7.599   0.999 -0.1653  0.4521 -0.6289
12727SOL    HW139858   0.279   7.559   0.953 -0.1300 -2.0816  1.5369
12727SOL    HW239859   0.135   7.602   0.933  0.1326 -2.3700 -1.1551
12728SOL     OW39860   4.341   9.045   7.471 -0.6627  0.5064 -0.1461
12728SOL    HW139861   4.385   9.111   7.418 -0.8402  0.2710 -0.5944
12728SOL    HW239862   4.281   9.002   7.410  0.8947 -1.4234 -0.3790
12729SOL     OW39863   5.824   8.485   1.279  0.0248 -0.6749  0.4230
12729SOL    HW139864   5.790   8.453   1.196  2.1761  0.6017 -0.9890
12729SOL    HW239865   5.769   8.561   1.300 -0.1134 -0.6078 -0.1723
12730SOL     OW39866   4.278   6.010   7.133  0.2934 -0.2662  0.1375
12730SOL    HW139867   4.185   6.006   7.153 -0.0294 -0.6970 -1.4165
12730SOL    HW239868   4.305   5.919   7.122  0.3676 -0.0321 -1.7481
12731SOL     OW39869   8.949   6.296   0.848  0.0473  0.1798  0.0060
12731SOL    HW139870   8.904   6.262   0.925  0.6054 -0.4374  0.0620
12731SOL    HW239871   8.879   6.327   0.791 -0.3514  1.1713  1.0041
12732SOL     OW39872   7.741   0.476   6.276  0.2244  0.1271 -0.0405
12732SOL    HW139873   7.703   0.563   6.290  0.1233 -0.0611  0.9191
12732SOL    HW239874   7.688   0.418   6.330  0.6736 -0.4403 -0.2044
12733SOL     OW39875   1.781   3.375   2.440 -0.2173  0.5591  0.3887
12733SOL    HW139876   1.805   3.411   2.355  0.2085 -0.5424  0.0339
12733SOL    HW239877   1.805   3.443   2.503  0.3686  0.9798 -0.2836
12734SOL     OW39878   5.802   9.014   2.988  0.2304  0.0398 -0.2193
12734SOL    HW139879   5.765   9.038   2.903 -1.6905 -0.9753  0.3199
12734SOL    HW239880   5.891   9.049   2.985 -0.4138  1.6463 -1.9240
12735SOL     OW39881   6.073   6.131   0.864  0.7741 -0.0283  0.6699
12735SOL    HW139882   6.025   6.128   0.781  0.8461 -0.3737  0.6394
12735SOL    HW239883   6.029   6.066   0.920  1.5724 -0.7844  0.4391
12736SOL     OW39884   0.745   8.277   4.115  0.7698  0.0722 -0.2206
12736SOL    HW139885   0.793   8.334   4.055  0.3154  0.4671 -0.2134
12736SOL    HW239886   0.708   8.336   4.180 -0.9061 -0.0326 -1.0307
12737SOL     OW39887   9.148   4.475   8.255 -0.1609  1.2165  0.5708
12737SOL    HW139888   9.210   4.402   8.265  0.6946  2.1578  2.4825
12737SOL    HW239889   9.065   4.433   8.234  0.6522 -0.2129  0.1214
12738SOL     OW39890   7.187   8.966   0.064 -0.0193  0.0891 -0.1260
12738SOL    HW139891   7.202   8.911   0.141 -0.4107 -0.0997 -0.1870
12738SOL    HW239892   7.245   9.042   0.078 -0.9308  0.6107  0.9243
12739SOL     OW39893   3.826   0.227   7.779 -0.8426  0.2475  0.0297
12739SOL    HW139894   3.736   0.223   7.809 -0.7993 -0.0540  0.1176
12739SOL    HW239895   3.878   0.216   7.859 -0.7160  2.7019  0.3311
12740SOL     OW39896   4.493   3.115   5.708  0.0394  0.3154  0.4705
12740SOL    HW139897   4.568   3.166   5.737  0.4440  0.4476 -0.7663
12740SOL    HW239898   4.507   3.103   5.614  0.6677 -3.2748  0.9584
12741SOL     OW39899   6.585   5.167   7.944  0.3963 -0.9575  0.7356
12741SOL    HW139900   6.551   5.210   7.865  1.5592 -1.0686  0.1671
12741SOL    HW239901   6.606   5.239   8.004  2.9632 -0.6680 -0.4649
12742SOL     OW39902   8.672   3.624   6.433 -0.7080 -0.0701  0.0103
12742SOL    HW139903   8.603   3.573   6.475  0.8548 -1.1944  1.2862
12742SOL    HW239904   8.677   3.589   6.344 -1.0971 -0.6860  0.2242
12743SOL     OW39905   2.386   4.890   6.145 -0.0674  0.5359 -0.2667
12743SOL    HW139906   2.336   4.887   6.226 -2.2688  0.0838 -1.6164
12743SOL    HW239907   2.422   4.802   6.136  0.0860  0.5529  0.1340
12744SOL     OW39908   2.032   6.411   3.710 -0.4511  0.5689 -0.8803
12744SOL    HW139909   2.125   6.426   3.726 -0.5317  0.2775 -0.1009
12744SOL    HW239910   1.987   6.465   3.775 -0.7285 -3.0045  2.0547
12745SOL     OW39911   0.595   1.965   1.229 -0.0022 -0.6287 -0.4002
12745SOL    HW139912   0.589   2.030   1.299 -0.0137  0.6824 -1.6140
12745SOL    HW239913   0.542   2.001   1.158  1.2575 -1.2277 -1.6594
12746SOL     OW39914   2.122   6.315   2.053  0.4885 -0.1393  0.4803
12746SOL    HW139915   2.072   6.332   1.973  1.3900 -0.6766 -0.2069
12746SOL    HW239916   2.103   6.224   2.075 -1.8206  0.7407  2.3696
12747SOL     OW39917   5.553   1.412   4.197 -0.4540  0.2701 -0.0435
12747SOL    HW139918   5.481   1.474   4.205 -1.3387 -0.9181  1.4786
12747SOL    HW239919   5.603   1.443   4.122 -1.2569  2.4282  0.2710
12748SOL     OW39920   8.524   9.236   5.953 -0.1031  0.1129 -0.1528
12748SOL    HW139921   8.544   9.325   5.926 -1.8862  0.9133  1.0013
12748SOL    HW239922   8.444   9.244   6.005 -0.2915 -2.1600 -0.0062
12749SOL     OW39923   1.909   1.202   6.797 -0.0452 -0.1609  0.2551
12749SOL    HW139924   1.982   1.145   6.819  0.3573 -0.6758 -2.3013
12749SOL    HW239925   1.843   1.143   6.761 -1.1903  0.4918  1.2349
12750SOL     OW39926   4.346   7.972   4.484  0.2290  0.1408  0.1019
12750SOL    HW139927   4.374   7.953   4.573  0.1841 -0.9075 -0.1014
12750SOL    HW239928   4.381   8.059   4.465  1.9292 -0.4633  0.4355
12751SOL     OW39929   0.606   2.739   7.256  0.0587  0.5712 -0.0523
12751SOL    HW139930   0.544   2.668   7.241 -0.0941  0.7423 -0.2291
12751SOL    HW239931   0.557   2.819   7.237  0.3834  0.6976 -0.3747
12752SOL     OW39932   2.079   3.829   4.193  0.5636  0.0155  0.2763
12752SOL    HW139933   2.139   3.760   4.218  1.0813  0.1099 -0.6840
12752SOL    HW239934   2.097   3.901   4.254 -0.0952 -0.7364  1.3864
12753SOL     OW39935   0.425   3.118   0.637  0.2490 -0.0353  0.4693
12753SOL    HW139936   0.367   3.052   0.675 -0.8461  1.1619  0.9011
12753SOL    HW239937   0.492   3.132   0.704 -0.5692  0.6347  1.1633
12754SOL     OW39938   3.930   7.412   1.147  0.0769  0.2902 -0.2128
12754SOL    HW139939   3.894   7.494   1.182 -0.1470  0.2595 -0.3731
12754SOL    HW239940   3.945   7.430   1.055 -1.0592 -0.2237 -0.4986
12755SOL     OW39941   8.729   2.029   3.728  0.2458  0.3591  0.0160
12755SOL    HW139942   8.734   2.117   3.764 -1.6286  0.5560 -0.1774
12755SOL    HW239943   8.637   2.016   3.707  0.4204 -1.8064  0.4386
12756SOL     OW39944   5.268   2.511   5.970 -0.2157 -0.4793  0.3380
12756SOL    HW139945   5.236   2.475   6.053  0.0839  1.8783  1.5027
12756SOL    HW239946   5.363   2.502   5.975 -0.1879 -0.1829  0.3030
12757SOL     OW39947   7.963   4.927   5.588 -0.3392 -0.3546  0.4401
12757SOL    HW139948   7.910   4.877   5.526 -0.7993  0.4767  0.1518
12757SOL    HW239949   7.945   4.887   5.673 -0.4791 -0.8530  0.1792
12758SOL     OW39950   9.054   7.645   2.873  0.1156  0.1989 -0.0078
12758SOL    HW139951   9.129   7.695   2.905 -0.2117  0.7653 -0.1208
12758SOL    HW239952   9.009   7.615   2.953  0.5665 -0.2987  0.0589
12759SOL     OW39953   4.508   2.967   8.250 -0.2448 -0.5478  0.0820
12759SOL    HW139954   4.541   2.895   8.302 -1.2735 -1.3218 -0.3143
12759SOL    HW239955   4.413   2.952   8.246 -0.0807 -1.1198 -2.8913
12760SOL     OW39956   7.798   3.661   1.652  0.2622  0.1873  0.9840
12760SOL    HW139957   7.786   3.598   1.581 -1.6937  0.8874  0.6770
12760SOL    HW239958   7.878   3.632   1.696  0.5376 -1.2712 -0.4276
12761SOL     OW39959   7.858   1.882   7.645 -0.2856 -0.0477 -0.2066
12761SOL    HW139960   7.777   1.901   7.693  1.0430  1.3139  1.5313
12761SOL    HW239961   7.880   1.965   7.602  1.7354  0.4089  1.6749
12762SOL     OW39962   3.885   6.678   3.043  0.6229  0.0066  0.5597
12762SOL    HW139963   3.885   6.705   2.952  0.4614 -1.8724 -0.0072
12762SOL    HW239964   3.924   6.752   3.090  0.7120  0.9756 -1.0116
12763SOL     OW39965   3.537   1.855   4.395 -0.0791  0.1275 -0.6108
12763SOL    HW139966   3.454   1.887   4.430 -0.1184  0.2511 -0.8213
12763SOL    HW239967   3.582   1.818   4.471 -0.9922 -1.3437 -0.7747
12764SOL     OW39968   8.063   0.394   4.457 -0.4917  0.1209  0.2124
12764SOL    HW139969   7.968   0.383   4.446 -0.7761  0.9841  1.6836
12764SOL    HW239970   8.081   0.358   4.544  0.7738 -1.3091 -0.6055
12765SOL     OW39971   6.254   8.792   5.236 -0.0660  0.4748  0.2612
12765SOL    HW139972   6.212   8.706   5.227  1.3502 -0.3632  1.3342
12765SOL    HW239973   6.256   8.827   5.147  0.1310 -0.9951 -0.3275
12766SOL     OW39974   1.821   7.159   8.564 -0.4111 -0.0123  0.2054
12766SOL    HW139975   1.743   7.102   8.568  0.0929 -0.8458 -1.4939
12766SOL    HW239976   1.864   7.146   8.649 -2.3853  0.8625  1.3805
12767SOL     OW39977   5.375   2.546   7.460 -0.0139 -0.2320  0.0210
12767SOL    HW139978   5.314   2.506   7.398 -1.7341 -0.3338  1.7409
12767SOL    HW239979   5.461   2.527   7.424 -0.9755  0.0939 -2.5731
12768SOL     OW39980   0.524   0.566   8.148  0.3521 -0.3610 -0.0665
12768SOL    HW139981   0.497   0.478   8.124  1.7546 -1.3074  1.6908
12768SOL    HW239982   0.523   0.566   8.244  2.0436  0.9741 -0.0208
12769SOL     OW39983   4.399   2.902   7.462  0.1426 -0.0984  0.3270
12769SOL    HW139984   4.347   2.884   7.540  0.6518  1.2394  0.9804
12769SOL    HW239985   4.454   2.977   7.485  0.3430  0.2839 -1.2849
12770SOL     OW39986   3.927   5.391   4.760 -0.0540 -0.0822  0.4688
12770SOL    HW139987   4.016   5.424   4.777 -0.6851  2.1797 -0.4569
12770SOL    HW239988   3.926   5.370   4.667  0.6925 -4.0311  1.2329
12771SOL     OW39989   8.001   0.479   2.204  0.0208  0.1299  0.0656
12771SOL    HW139990   8.052   0.439   2.274 -1.3666 -0.0648  0.9834
12771SOL    HW239991   7.949   0.546   2.247 -0.2410  0.5685 -0.9110
12772SOL     OW39992   0.774   7.635   3.332  0.0781  0.1903  0.1914
12772SOL    HW139993   0.735   7.605   3.414  0.2624 -0.3578  0.0827
12772SOL    HW239994   0.868   7.642   3.352  0.2629 -0.9212 -0.2550
12773SOL     OW39995   2.202   4.459   3.813 -0.1408  0.3780  0.2863
12773SOL    HW139996   2.270   4.499   3.758 -1.4528  2.4449  0.1421
12773SOL    HW239997   2.120   4.481   3.770 -0.9167 -2.7621  0.0537
12774SOL     OW39998   0.942   4.414   1.111  0.4322  0.4591 -0.3875
12774SOL    HW139999   0.917   4.394   1.021  3.4091  0.0288 -1.1472
12774SOL    HW240000   1.008   4.482   1.104  2.0681 -0.8865  1.3399
12775SOL     OW40001   4.910   0.677   7.090 -1.0843 -0.4643  0.2235
12775SOL    HW140002   4.935   0.768   7.105  2.6661 -1.5401  0.9710
12775SOL    HW240003   4.846   0.682   7.020  0.1951  2.6432 -0.8415
12776SOL     OW40004   8.943   0.516   0.166 -0.4004  0.3170 -0.1689
12776SOL    HW140005   8.971   0.448   0.227 -0.3500 -1.8692 -2.5091
12776SOL    HW240006   8.990   0.496   0.085 -1.9771  1.9258 -1.5252
12777SOL     OW40007   6.965   6.279   3.229 -0.2089  0.4686 -0.7502
12777SOL    HW140008   6.958   6.243   3.318 -0.9793 -2.2731 -1.8601
12777SOL    HW240009   7.049   6.246   3.197 -0.3679  0.6676 -1.3710
12778SOL     OW40010   2.258   6.854   8.428 -0.0062 -1.0571 -0.1899
12778SOL    HW140011   2.178   6.862   8.377  0.2664 -1.1715 -0.6415
12778SOL    HW240012   2.239   6.897   8.511 -1.3351 -3.1856  0.6431
12779SOL     OW40013   7.639   4.573   0.388 -0.1263 -0.0199  0.4796
12779SOL    HW140014   7.671   4.632   0.320 -0.0033  0.1642  0.6970
12779SOL    HW240015   7.544   4.587   0.389 -0.0879  0.2562  0.6005
12780SOL     OW40016   3.471   2.821   5.235 -0.4080  0.2087 -0.1644
12780SOL    HW140017   3.454   2.914   5.216  0.5430  0.5442  0.5900
12780SOL    HW240018   3.460   2.814   5.330  3.2774  0.3709  0.3359
12781SOL     OW40019   1.500   6.380   8.692  0.2388  0.5758 -0.2865
12781SOL    HW140020   1.497   6.338   8.606 -3.2486  0.6760 -0.2749
12781SOL    HW240021   1.440   6.454   8.685  0.2020  0.8134  2.1134
12782SOL     OW40022   2.090   1.111   8.591  0.3218 -0.3088 -0.3367
12782SOL    HW140023   2.177   1.130   8.555  0.1472 -0.6837 -0.9667
12782SOL    HW240024   2.093   1.145   8.680  0.6712  0.8672 -0.7848
12783SOL     OW40025   9.148   2.866   2.152 -0.0590  0.2234  0.2656
12783SOL    HW140026   9.074   2.849   2.093  0.3657  1.5197 -0.6863
12783SOL    HW240027   9.225   2.859   2.095  0.2222  3.8563  0.0456
12784SOL     OW40028   5.888   1.060   4.122  0.0891  0.0344 -0.0949
12784SOL    HW140029   5.916   0.969   4.128 -0.5752 -0.4468 -3.1461
12784SOL    HW240030   5.969   1.110   4.119  0.5295 -0.7163 -1.1124
12785SOL     OW40031   0.365   2.448   1.631 -0.1296 -0.0117  0.5771
12785SOL    HW140032   0.372   2.387   1.704  1.0296 -2.5008 -1.5114
12785SOL    HW240033   0.405   2.401   1.557  0.7067  3.2706 -1.1400
12786SOL     OW40034   5.087   5.217   5.252 -0.1413 -0.2268  0.5342
12786SOL    HW140035   5.161   5.214   5.191 -0.3827  0.6460  0.1926
12786SOL    HW240036   5.011   5.234   5.197 -0.4149  0.1726  1.0292
12787SOL     OW40037   3.675   4.731   3.219  0.2312  0.2129  0.3802
12787SOL    HW140038   3.743   4.695   3.162 -1.3015 -1.9621 -0.1472
12787SOL    HW240039   3.606   4.758   3.158 -0.5873 -0.2863  1.0873
12788SOL     OW40040   2.645   7.130   1.594 -0.1312 -0.6446  0.1580
12788SOL    HW140041   2.637   7.035   1.598 -0.7546 -0.5612  0.8751
12788SOL    HW240042   2.636   7.150   1.501 -1.8996 -1.1185  0.2212
12789SOL     OW40043   0.739   5.995   2.180 -0.3984 -0.7155  0.5841
12789SOL    HW140044   0.680   5.949   2.119  0.9175 -0.9495 -0.5389
12789SOL    HW240045   0.811   5.934   2.194  0.6067  0.3830  0.2923
12790SOL     OW40046   5.198   1.159   1.963 -0.2957 -0.0313 -0.4083
12790SOL    HW140047   5.174   1.200   2.046  2.0498  0.2881  0.1457
12790SOL    HW240048   5.153   1.075   1.963 -0.8575  0.2630  0.8709
12791SOL     OW40049   8.883   7.538   4.796  0.1629 -0.2939 -0.6957
12791SOL    HW140050   8.806   7.575   4.753  2.2619  2.1781 -2.4878
12791SOL    HW240051   8.931   7.493   4.726  1.8402  0.7398 -0.2524
12792SOL     OW40052   6.181   7.919   3.603  0.1020  0.3386  0.0745
12792SOL    HW140053   6.117   7.952   3.539  3.0154  0.3003 -2.9616
12792SOL    HW240054   6.167   7.824   3.603  0.5914  0.2522 -1.1312
12793SOL     OW40055   0.883   0.454   0.148 -0.0154  0.2557 -0.7510
12793SOL    HW140056   0.928   0.525   0.102  3.9093 -0.2535  2.0740
12793SOL    HW240057   0.922   0.374   0.114 -1.4488 -0.4120 -0.8794
12794SOL     OW40058   0.380   0.843   8.524 -0.1303  0.8005 -0.3323
12794SOL    HW140059   0.425   0.901   8.463 -0.5663  1.4826 -0.0083
12794SOL    HW240060   0.289   0.873   8.523 -0.2661  0.4062  0.1744
12795SOL     OW40061   7.924   5.435   1.615 -0.6712  0.2168  0.0327
12795SOL    HW140062   8.015   5.456   1.634 -0.9220  1.1082  0.2735
12795SOL    HW240063   7.881   5.520   1.606 -1.2888 -0.1844 -1.0020
12796SOL     OW40064   4.853   6.978   8.087  0.4863  0.4319 -0.1417
12796SOL    HW140065   4.873   6.887   8.068  1.2826  0.3470  1.0519
12796SOL    HW240066   4.934   7.014   8.124 -0.3400  1.1431  1.0411
12797SOL     OW40067   4.779   5.564   6.162  0.0903  0.1378 -0.1082
12797SOL    HW140068   4.825   5.593   6.241 -1.8349 -1.6144  1.7515
12797SOL    HW240069   4.719   5.635   6.142 -0.2405  0.0986  0.7182
12798SOL     OW40070   3.193   8.945   7.826  1.0261 -0.4418  0.3810
12798SOL    HW140071   3.105   8.974   7.801  1.2050  2.3264  2.7452
12798SOL    HW240072   3.237   8.929   7.742 -1.4705 -1.1994 -0.8540
12799SOL     OW40073   1.537   2.503   3.652 -0.4377  0.4377 -0.4441
12799SOL    HW140074   1.491   2.497   3.568  0.2706  2.4739 -0.9853
12799SOL    HW240075   1.571   2.592   3.655  1.3298 -0.2626  1.0892
12800SOL     OW40076   5.824   6.194   8.516  0.8032 -0.1159 -0.1738
12800SOL    HW140077   5.738   6.176   8.480  1.0877  0.4141 -1.1477
12800SOL    HW240078   5.881   6.127   8.478  1.2058  0.7580 -1.1708
12801SOL     OW40079   3.323   6.978   0.122  0.1955 -0.1553  0.5094
12801SOL    HW140080   3.254   7.043   0.107 -0.1000 -0.5949 -0.0587
12801SOL    HW240081   3.381   6.988   0.046 -0.5000 -1.3731 -0.1915
12802SOL     OW40082   1.270   7.635   0.430  0.5174  0.4177  0.6520
12802SOL    HW140083   1.323   7.706   0.467  1.3321 -0.3456  0.9705
12802SOL    HW240084   1.266   7.570   0.500 -1.4960  0.7955  0.9085
12803SOL     OW40085   5.731   1.250   2.971 -0.4281 -0.3959 -0.4632
12803SOL    HW140086   5.687   1.189   3.031  0.9894 -2.1102 -1.1125
12803SOL    HW240087   5.681   1.244   2.890 -1.5844  0.9649  0.1307
12804SOL     OW40088   2.800   1.634   0.346  0.1451  0.5153 -0.0378
12804SOL    HW140089   2.887   1.673   0.331  0.2092 -0.2382 -1.7173
12804SOL    HW240090   2.816   1.540   0.343 -0.4600  0.3530  1.4075
12805SOL     OW40091   8.285   6.225   0.263 -0.1528 -0.3052 -0.2976
12805SOL    HW140092   8.197   6.263   0.264 -1.1127 -2.4665 -0.6832
12805SOL    HW240093   8.271   6.132   0.245  2.2362 -0.6272 -0.6273
12806SOL     OW40094   2.884   8.771   1.996  0.6780  0.2052 -0.5782
12806SOL    HW140095   2.967   8.764   2.042 -0.6193  0.1453  1.8739
12806SOL    HW240096   2.868   8.683   1.962  0.2110 -0.5700  1.5658
12807SOL     OW40097   2.338   5.294   7.400  0.7948  0.2626 -0.2064
12807SOL    HW140098   2.384   5.308   7.317 -0.4246 -0.5149 -1.0338
12807SOL    HW240099   2.407   5.286   7.466  1.8336 -0.6776 -1.3924
12808SOL     OW40100   5.823   6.326   7.508 -0.0016 -0.1501 -0.3022
12808SOL    HW140101   5.856   6.324   7.598  2.8727 -0.4841 -1.2837
12808SOL    HW240102   5.760   6.397   7.507 -1.5809 -1.4230  2.4464
12809SOL     OW40103   6.105   4.129   1.017  0.1670  0.3276  0.2049
12809SOL    HW140104   6.125   4.192   0.947  0.7578 -0.2193 -0.1252
12809SOL    HW240105   6.010   4.115   1.011  0.3567 -0.4784 -1.1457
12810SOL     OW40106   6.065   1.466   3.756  0.3376 -0.4713 -0.5736
12810SOL    HW140107   5.978   1.435   3.733  0.1226  0.2416 -0.7369
12810SOL    HW240108   6.050   1.538   3.818  0.8040 -0.3426 -0.6034
12811SOL     OW40109   4.557   0.958   2.408 -0.1630 -0.4906 -0.2779
12811SOL    HW140110   4.490   0.908   2.455 -0.1600  0.2333  0.5106
12811SOL    HW240111   4.631   0.962   2.468  0.8554 -1.8698 -1.4190
12812SOL     OW40112   2.781   6.186   2.139  0.5011  0.0596  0.6603
12812SOL    HW140113   2.870   6.169   2.171  0.5549 -2.2997 -0.6518
12812SOL    HW240114   2.725   6.167   2.214  1.0128  0.2331  1.0905
12813SOL     OW40115   3.790   1.429   5.200  0.4372  0.2407  0.1172
12813SOL    HW140116   3.731   1.447   5.127 -0.7878 -2.0627  0.4719
12813SOL    HW240117   3.786   1.333   5.211  0.7467  0.4947  3.0246
12814SOL     OW40118   1.584   8.760   2.539  0.1775 -0.0954 -0.1270
12814SOL    HW140119   1.646   8.813   2.489  1.8743  0.5002  2.5161
12814SOL    HW240120   1.638   8.707   2.597 -1.7428  0.2531  2.0592
12815SOL     OW40121   6.449   4.079   2.115 -0.1666 -0.7828  0.6878
12815SOL    HW140122   6.372   4.115   2.071 -0.5514 -1.1215  1.0766
12815SOL    HW240123   6.523   4.109   2.062 -0.3371  2.0157  1.9180
12816SOL     OW40124   6.138   6.576   1.925 -1.0615  0.3191  0.2435
12816SOL    HW140125   6.225   6.552   1.895 -1.3443 -1.3922  0.7498
12816SOL    HW240126   6.094   6.610   1.846 -1.0588 -2.0245 -0.7990
12817SOL     OW40127   6.764   2.265   4.210  0.7196 -0.0031 -0.4688
12817SOL    HW140128   6.713   2.344   4.194  1.0563  0.5679  1.1879
12817SOL    HW240129   6.699   2.200   4.240  0.3788 -0.5002 -2.2486
12818SOL     OW40130   5.400   1.608   7.888 -0.4930  0.3336  0.4342
12818SOL    HW140131   5.327   1.668   7.876 -0.3442  0.4706  0.1984
12818SOL    HW240132   5.365   1.537   7.941 -1.2893 -0.4982 -1.1802
12819SOL     OW40133   0.417   7.595   3.405  0.8060  0.1001  0.0706
12819SOL    HW140134   0.401   7.501   3.396 -1.6989  0.7712 -3.2067
12819SOL    HW240135   0.492   7.612   3.347  1.8705  0.0127  1.3885
12820SOL     OW40136   3.043   8.946   0.361  0.2313  0.2390 -0.0010
12820SOL    HW140137   3.124   8.978   0.320  0.5828 -0.6833 -0.0364
12820SOL    HW240138   3.013   8.876   0.304 -1.3881  1.5234 -0.7590
12821SOL     OW40139   5.149   6.265   8.505  0.1469  0.4705  0.4006
12821SOL    HW140140   5.188   6.259   8.592  1.7434  2.3363 -0.1512
12821SOL    HW240141   5.223   6.258   8.444 -0.9261 -0.6235 -0.8257
12822SOL     OW40142   3.818   9.196   1.683 -0.1846 -0.1914 -0.1833
12822SOL    HW140143   3.909   9.225   1.683 -0.4266  0.5829  0.2296
12822SOL    HW240144   3.786   9.219   1.596  0.6703 -2.6352 -1.2111
12823SOL     OW40145   8.832   2.201   6.173  1.0198  0.3360 -0.5335
12823SOL    HW140146   8.917   2.244   6.169  0.9366  0.9207  2.5229
12823SOL    HW240147   8.772   2.268   6.207 -0.6450 -0.1384 -2.3992
12824SOL     OW40148   1.296   2.013   0.558  0.0941 -0.7323 -0.4078
12824SOL    HW140149   1.241   2.065   0.500  1.2458  1.5871  0.5444
12824SOL    HW240150   1.376   1.998   0.508  0.4987 -0.0053  0.0225
12825SOL     OW40151   0.706   8.359   4.417 -0.2410 -0.0035 -0.4945
12825SOL    HW140152   0.765   8.411   4.472  0.5323 -1.0487 -0.3208
12825SOL    HW240153   0.718   8.269   4.448 -3.2451 -0.0453  0.7544
12826SOL     OW40154   7.814   2.602   5.300  0.2549 -0.3872 -0.6195
12826SOL    HW140155   7.790   2.520   5.344 -2.2465  0.4397 -0.4031
12826SOL    HW240156   7.793   2.588   5.208 -1.5519  0.4875 -0.3631
12827SOL     OW40157   3.499   7.119   2.730 -0.6406 -0.4544 -0.2102
12827SOL    HW140158   3.411   7.083   2.723 -0.6072 -0.8813  1.3077
12827SOL    HW240159   3.554   7.043   2.752 -0.2530  0.1728  1.0466
12828SOL     OW40160   4.620   7.231   7.769  0.5955 -0.4532 -0.1650
12828SOL    HW140161   4.713   7.219   7.748  0.3995 -0.6348 -0.9485
12828SOL    HW240162   4.575   7.221   7.685 -0.0070  1.2047 -0.0536
12829SOL     OW40163   2.222   9.053   0.321 -0.1263  0.1205 -0.0958
12829SOL    HW140164   2.300   9.032   0.372  0.2907 -0.3414 -0.9222
12829SOL    HW240165   2.154   9.067   0.387  0.4716 -0.2274  0.5998
12830SOL     OW40166   8.085   1.452   0.910  0.9809  0.6477  0.5965
12830SOL    HW140167   8.021   1.422   0.845  0.7998  1.4966  0.3775
12830SOL    HW240168   8.133   1.373   0.934  0.2035  0.1017  0.3696
12831SOL     OW40169   9.131   7.056   8.693 -0.0346 -0.3383  0.2025
12831SOL    HW140170   9.151   7.147   8.669 -0.4369 -0.0943  0.7482
12831SOL    HW240171   9.114   7.061   8.787 -0.7880 -0.8535  0.0914
12832SOL     OW40172   0.149   4.407   5.668  0.5053 -0.3413 -0.0566
12832SOL    HW140173   0.133   4.465   5.743  1.3129 -0.5834  0.3147
12832SOL    HW240174   0.229   4.441   5.628  0.1219 -0.2645 -0.7657
12833SOL     OW40175   8.289   3.104   2.906  0.5688 -0.4411  0.1995
12833SOL    HW140176   8.326   3.106   2.818  1.2455 -1.0793  0.4659
12833SOL    HW240177   8.298   3.194   2.937 -1.9685  0.3827 -1.3115
12834SOL     OW40178   0.718   6.982   7.547 -0.3299  0.5550  0.0733
12834SOL    HW140179   0.754   7.066   7.573  0.9246 -0.0896  0.4332
12834SOL    HW240180   0.788   6.919   7.564 -1.9656 -0.8642  1.8394
12835SOL     OW40181   5.693   2.511   1.818 -0.1864 -0.0757 -0.4987
12835SOL    HW140182   5.643   2.539   1.742  0.3407  0.7562 -0.5515
12835SOL    HW240183   5.628   2.487   1.883 -0.6530  1.4827 -0.3843
12836SOL     OW40184   0.499   4.092   1.148  0.6831  0.2308 -0.2696
12836SOL    HW140185   0.528   4.001   1.147  2.4233  0.7831 -0.8200
12836SOL    HW240186   0.551   4.134   1.217 -2.2724  0.1491  2.1395
12837SOL     OW40187   0.547   6.962   5.090 -0.3341  0.1196 -0.0939
12837SOL    HW140188   0.486   6.989   5.021 -0.3027  0.6507  0.0898
12837SOL    HW240189   0.573   6.873   5.064 -2.6192 -0.8551  0.8134
12838SOL     OW40190   1.428   8.098   8.004  0.4374  0.3165 -0.1408
12838SOL    HW140191   1.449   8.058   7.919 -1.4407  1.9215 -1.3887
12838SOL    HW240192   1.510   8.139   8.032  1.3911 -1.2148 -0.5912
12839SOL     OW40193   3.899   8.089   6.789  0.1330 -0.2122 -0.4520
12839SOL    HW140194   3.978   8.040   6.813 -0.1036 -1.3906 -2.0170
12839SOL    HW240195   3.902   8.095   6.694 -1.4018  0.1831 -0.4924
12840SOL     OW40196   2.004   7.144   5.859 -0.5149 -0.1995 -0.1873
12840SOL    HW140197   1.923   7.164   5.907 -0.7008  2.1727 -1.4463
12840SOL    HW240198   2.066   7.210   5.889  0.3452 -0.7173 -0.8198
12841SOL     OW40199   8.587   9.234   3.742 -0.0231  0.3953  0.0501
12841SOL    HW140200   8.616   9.147   3.767  0.3647  1.0987  2.1337
12841SOL    HW240201   8.502   9.220   3.700  1.2466 -1.2191 -2.0849
12842SOL     OW40202   0.245   1.116   1.051  0.3790  0.5846  0.5826
12842SOL    HW140203   0.304   1.093   0.980  0.7901 -1.3176  1.4928
12842SOL    HW240204   0.158   1.095   1.017  0.5652 -0.2102  0.5724
12843SOL     OW40205   8.877   0.459   7.969  0.6495 -0.0594  0.2454
12843SOL    HW140206   8.890   0.381   7.916  0.6341 -0.8216  1.3401
12843SOL    HW240207   8.941   0.451   8.040  0.2249  0.6079  0.7106
12844SOL     OW40208   0.863   5.602   7.471 -0.2751  0.1260  0.0155
12844SOL    HW140209   0.939   5.567   7.518  0.2980 -0.3736 -1.2477
12844SOL    HW240210   0.828   5.670   7.528  0.1072 -0.8051  1.3808
12845SOL     OW40211   7.139   1.899   0.646  0.3497 -0.0313 -0.2637
12845SOL    HW140212   7.182   1.816   0.669  0.5630  0.0365 -0.4150
12845SOL    HW240213   7.109   1.886   0.556 -1.1685 -0.5751  0.3169
12846SOL     OW40214   8.361   6.141   2.023 -0.0413 -0.1390  0.5286
12846SOL    HW140215   8.399   6.229   2.022  0.5433 -0.3607  1.8699
12846SOL    HW240216   8.411   6.093   1.956 -1.1009  0.8223 -0.9901
12847SOL     OW40217   5.945   5.344   8.534 -0.1356  0.9239  0.2606
12847SOL    HW140218   6.017   5.407   8.537  0.8690 -0.2561  1.4759
12847SOL    HW240219   5.914   5.347   8.444  1.8972  0.9432 -0.4487
12848SOL     OW40220   5.533   5.263   2.494  0.6119 -0.5521  0.1100
12848SOL    HW140221   5.489   5.258   2.579  0.9097  1.4133  0.3965
12848SOL    HW240222   5.466   5.238   2.431  0.0519 -0.8684  0.8184
12849SOL     OW40223   5.384   2.777   4.450  0.0073  0.3467 -0.1839
12849SOL    HW140224   5.315   2.801   4.511 -0.4046 -1.1137 -0.0512
12849SOL    HW240225   5.462   2.823   4.482 -0.6123  1.0338  0.3678
12850SOL     OW40226   4.323   1.331   4.183  0.2603  0.1782  0.0294
12850SOL    HW140227   4.351   1.288   4.102  3.3806  1.7143  0.2177
12850SOL    HW240228   4.332   1.424   4.165 -2.0192  0.6524  1.1596
12851SOL     OW40229   2.568   9.159   7.433 -0.5456  0.0506  0.0559
12851SOL    HW140230   2.634   9.180   7.366  0.7890 -2.1451  0.6422
12851SOL    HW240231   2.563   9.238   7.487  0.8996  0.5929 -0.5815
12852SOL     OW40232   2.813   3.032   5.328  0.2258 -0.2327  0.0491
12852SOL    HW140233   2.839   3.079   5.248 -2.0892  2.6201  0.8956
12852SOL    HW240234   2.860   3.076   5.398  1.2289 -1.8925  0.4452
12853SOL     OW40235   4.506   5.333   4.014  0.1557 -0.2480 -0.2339
12853SOL    HW140236   4.574   5.299   4.072  0.3383  1.9433  0.8934
12853SOL    HW240237   4.555   5.370   3.940  0.0501 -0.6709 -0.5206
12854SOL     OW40238   6.106   8.409   5.729 -0.3586 -0.1988 -0.0834
12854SOL    HW140239   6.103   8.375   5.818  0.4454  0.8883  0.3643
12854SOL    HW240240   6.189   8.377   5.693  1.2379  2.6424  0.9192
12855SOL     OW40241   6.012   3.227   6.953  0.0109  0.0593  0.1229
12855SOL    HW140242   6.009   3.176   7.034 -0.0845  0.8471  0.6190
12855SOL    HW240243   6.105   3.235   6.933  0.0647  0.3690  0.4846
12856SOL     OW40244   6.023   1.765   2.384 -0.5317 -0.7234 -0.1165
12856SOL    HW140245   6.058   1.677   2.375 -0.2228 -0.9489  2.8612
12856SOL    HW240246   6.056   1.812   2.308  0.3772 -2.8078 -1.0456
12857SOL     OW40247   2.153   6.989   1.780  0.0924 -0.6870  0.2369
12857SOL    HW140248   2.082   7.031   1.731  0.3249 -1.4308 -0.7581
12857SOL    HW240249   2.209   7.061   1.808 -0.7404 -0.1465  0.5260
12858SOL     OW40250   0.541   4.687   9.182 -0.0506 -0.0879 -0.3969
12858SOL    HW140251   0.457   4.655   9.214  0.6388 -1.4592  0.0581
12858SOL    HW240252   0.544   4.660   9.090 -0.2261  0.2050 -0.4897
12859SOL     OW40253   7.234   2.838   8.788 -0.3108 -0.3872  0.1624
12859SOL    HW140254   7.223   2.780   8.863  0.7215 -1.6419 -0.6537
12859SOL    HW240255   7.318   2.813   8.750 -0.5962  0.5786 -1.1203
12860SOL     OW40256   3.081   9.210   5.159  0.2408 -0.1408  0.1591
12860SOL    HW140257   3.120   9.164   5.233  0.5432  1.5375  1.0608
12860SOL    HW240258   3.154   9.252   5.114 -0.2537  1.2772  0.6344
12861SOL     OW40259   5.387   6.166   1.918  0.1390  0.6901  0.5606
12861SOL    HW140260   5.360   6.099   1.855  1.1455 -1.1621  2.0587
12861SOL    HW240261   5.351   6.136   2.002 -0.7866  2.8785  0.9830
12862SOL     OW40262   1.178   9.155   6.522  0.0903 -0.1116  0.1030
12862SOL    HW140263   1.232   9.229   6.492 -0.3848 -0.1465 -0.8868
12862SOL    HW240264   1.094   9.195   6.546  0.4320 -0.1041  1.2897
12863SOL     OW40265   5.832   0.923   6.708  0.1037 -0.3178  0.1271
12863SOL    HW140266   5.883   0.969   6.642 -1.6860  0.1070 -0.9897
12863SOL    HW240267   5.810   0.839   6.667 -1.5258  0.1901 -0.0660
12864SOL     OW40268   2.083   7.092   6.222  1.1904  0.4992 -1.2063
12864SOL    HW140269   2.138   7.138   6.286 -0.5666  1.2447 -0.1844
12864SOL    HW240270   2.057   7.011   6.266 -1.9734  2.0970  0.0463
12865SOL     OW40271   2.360   5.893   3.464  0.7541  0.3130  0.2361
12865SOL    HW140272   2.273   5.926   3.487  0.7820  0.2365  0.4497
12865SOL    HW240273   2.384   5.942   3.385 -0.3340 -1.0603 -0.9742
12866SOL     OW40274   5.437   7.794   6.666  0.3841  0.0935  0.2073
12866SOL    HW140275   5.500   7.824   6.601  0.5157  1.2998  0.8630
12866SOL    HW240276   5.366   7.756   6.614  2.8132 -3.7822 -0.4527
12867SOL     OW40277   6.646   7.763   0.729  0.3742 -0.4014 -0.3486
12867SOL    HW140278   6.643   7.800   0.817  0.5931 -1.1818 -0.0050
12867SOL    HW240279   6.554   7.753   0.704  0.3148  0.0863 -0.3194
12868SOL     OW40280   2.584   2.274   0.629  0.6754  0.6815 -0.3956
12868SOL    HW140281   2.600   2.361   0.666  0.9402  0.1257  0.8253
12868SOL    HW240282   2.535   2.291   0.549  0.6181  1.9496 -0.1060
12869SOL     OW40283   2.296   2.696   0.616  0.0265 -0.1683  0.0186
12869SOL    HW140284   2.292   2.601   0.617 -0.9179 -0.1371  0.1851
12869SOL    HW240285   2.357   2.719   0.687 -0.2587 -0.6290  0.4164
12870SOL     OW40286   3.463   1.301   5.171  0.3054  0.3812 -0.5843
12870SOL    HW140287   3.423   1.220   5.140  1.8931 -0.6932  0.0606
12870SOL    HW240288   3.451   1.298   5.266  4.1900 -1.3100 -0.0559
12871SOL     OW40289   0.910   2.173   2.732 -0.1564 -0.5707 -0.2062
12871SOL    HW140290   0.849   2.247   2.727 -0.4839 -0.8627 -0.5561
12871SOL    HW240291   0.906   2.144   2.823  1.2414  0.9101  0.3634
12872SOL     OW40292   5.874   2.438   8.323  0.1355 -0.0456 -0.1509
12872SOL    HW140293   5.839   2.481   8.402 -1.5548  0.3754 -1.1028
12872SOL    HW240294   5.838   2.489   8.250  2.0584 -0.1462 -1.2004
12873SOL     OW40295   1.796   2.038   3.615 -0.1893 -0.0536 -0.3109
12873SOL    HW140296   1.836   1.963   3.660  0.8239  0.0243 -1.0531
12873SOL    HW240297   1.707   2.010   3.597 -0.1749 -0.6328  0.4710
12874SOL     OW40298   6.722   1.209   6.235  0.2453  0.5876  0.0619
12874SOL    HW140299   6.782   1.202   6.310  0.6443  2.0387 -0.1170
12874SOL    HW240300   6.645   1.157   6.262  2.4137 -3.1608 -0.6009
12875SOL     OW40301   6.661   7.977   3.533  0.5446 -0.8076  0.0193
12875SOL    HW140302   6.598   8.025   3.480 -0.1941 -1.6622  0.1122
12875SOL    HW240303   6.672   8.032   3.611 -0.0280 -0.6163 -0.0281
12876SOL     OW40304   3.334   3.038   2.289 -0.3812  0.0136  0.0571
12876SOL    HW140305   3.383   2.971   2.336  1.4755  1.8474  0.8520
12876SOL    HW240306   3.341   3.014   2.197  0.2718 -0.8884  0.3355
12877SOL     OW40307   8.616   3.472   3.507  0.2320 -0.0058  0.5163
12877SOL    HW140308   8.705   3.452   3.534  0.8004 -0.3284 -1.4963
12877SOL    HW240309   8.597   3.408   3.439 -1.0728  0.8597  0.0460
12878SOL     OW40310   7.909   4.170   9.056 -0.1960  0.1475 -0.1480
12878SOL    HW140311   7.879   4.118   8.982 -0.1834 -1.2262  0.7796
12878SOL    HW240312   7.934   4.105   9.122 -0.6830  1.3386  1.2445
12879SOL     OW40313   1.674   7.352   7.365 -0.1524  0.3770  0.5297
12879SOL    HW140314   1.760   7.362   7.324  0.4728 -0.6195  1.5462
12879SOL    HW240315   1.611   7.372   7.295  0.8706 -1.7334 -1.0544
12880SOL     OW40316   0.247   0.977   5.399 -0.0272  0.0456  1.0700
12880SOL    HW140317   0.224   1.026   5.478  0.6641  0.0333  1.2784
12880SOL    HW240318   0.341   0.991   5.388 -0.0703 -0.1642  0.3930
12881SOL     OW40319   5.707   9.277   3.564 -0.4030 -0.4080  0.2645
12881SOL    HW140320   5.764   9.254   3.637 -1.3330  0.3040  1.2191
12881SOL    HW240321   5.710   9.201   3.506  0.6421 -0.8164  0.8458
12882SOL     OW40322   8.676   3.820   7.395 -0.1321  0.1290 -0.5310
12882SOL    HW140323   8.589   3.802   7.360 -1.8535  1.3565  2.8689
12882SOL    HW240324   8.671   3.791   7.486  1.1670  5.3372  1.3303
12883SOL     OW40325   5.249   7.394   8.838  0.2553 -0.4917  0.4896
12883SOL    HW140326   5.243   7.399   8.933  0.1951  1.1366  0.4135
12883SOL    HW240327   5.170   7.437   8.806  0.2320 -1.0997 -0.3094
12884SOL     OW40328   7.766   5.848   3.103  0.6915  0.1746  0.3534
12884SOL    HW140329   7.801   5.918   3.157  0.6873  0.0301  0.5424
12884SOL    HW240330   7.689   5.886   3.061  0.3934  0.1215  0.8565
12885SOL     OW40331   0.104   2.410   0.404  0.5430 -0.1790 -0.2013
12885SOL    HW140332   0.149   2.329   0.379  2.3739  0.3081  1.4340
12885SOL    HW240333   0.092   2.402   0.498  0.8275  1.5085 -0.0155
12886SOL     OW40334   8.112   7.021   4.879  0.8655  0.4506 -0.0607
12886SOL    HW140335   8.172   6.991   4.947  1.8880  0.2726 -1.0436
12886SOL    HW240336   8.027   7.025   4.924  1.5373  0.4351  1.2552
12887SOL     OW40337   8.781   4.927   2.942 -0.3752 -0.0041  0.3495
12887SOL    HW140338   8.792   4.868   3.016 -0.2734 -0.3314  0.0733
12887SOL    HW240339   8.695   4.967   2.956 -0.3480 -0.0470  0.6559
12888SOL     OW40340   0.696   8.339   7.421 -0.3428 -0.6830  0.2059
12888SOL    HW140341   0.695   8.244   7.430 -2.2162 -0.7068 -0.0776
12888SOL    HW240342   0.786   8.360   7.395 -0.8629 -2.7205 -3.5686
12889SOL     OW40343   5.320   8.937   4.212 -0.1664 -0.1783  0.3903
12889SOL    HW140344   5.253   8.893   4.264 -0.3221 -1.1228 -0.5926
12889SOL    HW240345   5.390   8.871   4.203 -0.8088 -0.5877 -1.9000
12890SOL     OW40346   4.039   4.866   0.080 -0.3366 -0.1326 -0.2762
12890SOL    HW140347   4.108   4.915   0.037  1.1282 -0.9420  1.1044
12890SOL    HW240348   4.034   4.783   0.032 -0.2465 -0.1383 -0.2746
12891SOL     OW40349   2.407   6.288   4.867 -0.3812 -0.0394 -0.0318
12891SOL    HW140350   2.499   6.269   4.887 -0.2750  0.5256  0.0187
12891SOL    HW240351   2.378   6.212   4.816  0.1338 -0.1848 -0.1159
12892SOL     OW40352   7.331   2.504   6.608  0.0271  0.4657  0.0811
12892SOL    HW140353   7.359   2.592   6.584 -1.8761  1.4122  1.2684
12892SOL    HW240354   7.345   2.452   6.528 -0.0765  2.1173 -1.0216
12893SOL     OW40355   3.970   3.043   0.027 -0.0316  0.5834  0.5524
12893SOL    HW140356   3.886   3.026  -0.016  0.5185  2.0897 -1.1832
12893SOL    HW240357   4.033   2.994  -0.025  0.3259  0.3798  1.1741
12894SOL     OW40358   4.657   6.644   4.675 -0.2834  0.3545  0.1301
12894SOL    HW140359   4.690   6.555   4.681  0.1218  0.5067  0.2260
12894SOL    HW240360   4.619   6.662   4.761 -2.2843 -0.4600 -0.5737
12895SOL     OW40361   1.807   7.961   4.461  0.4733  0.5311  0.2262
12895SOL    HW140362   1.820   8.005   4.377 -2.9401  1.6884  0.2344
12895SOL    HW240363   1.776   7.873   4.438  1.5986  0.1231  0.2616
12896SOL     OW40364   1.375   4.360   4.616  0.2888 -0.1087 -0.3115
12896SOL    HW140365   1.395   4.282   4.667 -0.5163 -0.6759 -0.8574
12896SOL    HW240366   1.419   4.431   4.663 -1.3917 -0.4369  1.8281
12897SOL     OW40367   0.472   2.443   1.387  0.0201 -0.5331 -0.2199
12897SOL    HW140368   0.551   2.495   1.375 -0.2777  0.3880  1.6169
12897SOL    HW240369   0.487   2.363   1.337  2.3561 -0.6319  0.6021
12898SOL     OW40370   4.606   3.567   5.013 -0.5486 -0.1080  0.2098
12898SOL    HW140371   4.666   3.598   5.081 -0.7192  0.6503  0.0265
12898SOL    HW240372   4.663   3.532   4.945 -0.2498  1.4301 -0.3647
12899SOL     OW40373   9.283   2.527   3.541  0.5243 -0.3560 -0.5166
12899SOL    HW140374   9.249   2.478   3.617  0.2004  2.1907  1.0281
12899SOL    HW240375   9.209   2.531   3.481  0.2043 -0.7686 -0.1637
12900SOL     OW40376   9.070   9.202   6.298 -0.4363  0.2534 -0.4353
12900SOL    HW140377   9.117   9.120   6.284  0.9323  1.1747 -1.3262
12900SOL    HW240378   8.989   9.192   6.247 -0.8422 -1.0004  0.4294
12901SOL     OW40379   2.673   6.021   0.416  0.7384  0.1522  0.1272
12901SOL    HW140380   2.650   6.002   0.325  0.3647  0.7883  0.0843
12901SOL    HW240381   2.642   6.110   0.430 -0.3055 -0.3666  1.2442
12902SOL     OW40382   3.733   2.304   6.883  0.2609 -0.1148 -0.7024
12902SOL    HW140383   3.737   2.209   6.892  0.5647 -0.0154  0.2661
12902SOL    HW240384   3.645   2.327   6.912  0.0463 -0.1381 -1.3273
12903SOL     OW40385   5.345   3.861   0.518  0.5626 -0.1084 -0.3888
12903SOL    HW140386   5.333   3.841   0.611  1.8534  1.3524  0.1178
12903SOL    HW240387   5.257   3.880   0.486  0.0728 -0.9117  0.4667
12904SOL     OW40388   0.135   1.057   6.874  0.2086 -0.0173  0.0815
12904SOL    HW140389   0.169   1.113   6.943  1.3608  0.4297 -0.8322
12904SOL    HW240390   0.097   0.982   6.920  1.7064 -0.1271  1.1677
12905SOL     OW40391   8.311   3.674   3.637 -0.1333  0.1653 -0.1466
12905SOL    HW140392   8.283   3.604   3.578  0.1307  0.1936 -0.3052
12905SOL    HW240393   8.257   3.662   3.715  0.3913 -0.6328  0.1000
12906SOL     OW40394   3.556   4.235   7.117 -0.2861 -0.5396 -0.4015
12906SOL    HW140395   3.628   4.192   7.162 -0.0028 -0.4963 -0.8150
12906SOL    HW240396   3.561   4.204   7.027  0.0708  0.5240 -0.7647
12907SOL     OW40397   8.760   0.188   6.080  0.4896  0.2605 -0.0079
12907SOL    HW140398   8.845   0.200   6.039  0.3646 -0.2644 -0.4165
12907SOL    HW240399   8.697   0.204   6.010  0.2246  1.4526  0.4797
12908SOL     OW40400   6.199   7.499   3.069 -0.1832  0.1006 -0.5564
12908SOL    HW140401   6.274   7.492   3.010  0.1895  0.8270 -0.1732
12908SOL    HW240402   6.132   7.445   3.028 -0.2436  1.3369 -2.1425
12909SOL     OW40403   5.536   8.859   9.040 -0.0199  0.1803 -0.6008
12909SOL    HW140404   5.564   8.774   9.072 -1.0995  1.1123  2.9935
12909SOL    HW240405   5.617   8.902   9.012  0.6178 -1.7033 -1.6978
12910SOL     OW40406   8.364   1.483   8.465 -0.6954  0.3183 -0.2140
12910SOL    HW140407   8.440   1.515   8.417  0.0527 -1.3978 -0.1764
12910SOL    HW240408   8.294   1.480   8.399 -0.4976  1.0073 -0.4617
12911SOL     OW40409   0.968   4.332   2.869  0.5291  0.2093  0.1092
12911SOL    HW140410   1.028   4.286   2.926  0.7695  1.1966  0.6633
12911SOL    HW240411   0.950   4.270   2.798  0.0002 -1.1237  1.3916
12912SOL     OW40412   7.091   6.511   6.015  0.5064  0.1700 -0.1311
12912SOL    HW140413   6.998   6.530   6.007  0.6385  1.2740  0.8008
12912SOL    HW240414   7.121   6.497   5.925 -0.1509  1.8044 -0.6155
12913SOL     OW40415   2.397   0.753   3.154 -0.0833  0.5421 -0.1660
12913SOL    HW140416   2.445   0.824   3.111 -0.9031 -0.5246 -2.9904
12913SOL    HW240417   2.445   0.674   3.129 -0.9407 -0.1592  0.3773
12914SOL     OW40418   4.042   1.128   1.660 -0.2074  0.1773  0.1697
12914SOL    HW140419   3.973   1.066   1.637  0.9185 -0.1121 -2.6749
12914SOL    HW240420   4.124   1.082   1.637  0.7085  2.0248 -0.3499
12915SOL     OW40421   8.163   0.407   2.789  0.2104  0.1376 -0.2827
12915SOL    HW140422   8.147   0.422   2.883  1.2058  1.8383 -0.3721
12915SOL    HW240423   8.204   0.321   2.786  0.4963  0.2173  0.8825
12916SOL     OW40424   7.116   0.665   7.484  0.1565  0.0814  0.3766
12916SOL    HW140425   7.123   0.695   7.394  1.0439  0.1544  0.4722
12916SOL    HW240426   7.205   0.643   7.510  0.0859  1.2519  1.6488
12917SOL     OW40427   1.410   4.104   8.197 -1.1903  0.0807 -0.5645
12917SOL    HW140428   1.469   4.063   8.261 -0.2591  2.3183  0.0623
12917SOL    HW240429   1.388   4.034   8.136  3.1095 -0.5815 -1.5267
12918SOL     OW40430   8.588   2.252   2.380  0.0024 -0.2590  0.1211
12918SOL    HW140431   8.519   2.189   2.401 -0.7131  0.5000  0.0508
12918SOL    HW240432   8.552   2.337   2.405  0.9925  0.1233  0.2850
12919SOL     OW40433   6.898   4.441   7.472  0.1586 -0.2805 -0.2433
12919SOL    HW140434   6.918   4.381   7.400  0.5856 -0.9906  0.4570
12919SOL    HW240435   6.900   4.386   7.550 -1.2103  0.3029  0.2213
12920SOL     OW40436   6.642   6.646   2.964 -0.3549  0.0141 -0.0676
12920SOL    HW140437   6.690   6.564   2.952  0.8789  0.6895  0.0870
12920SOL    HW240438   6.659   6.669   3.056  0.0714  0.9093 -0.3706
12921SOL     OW40439   0.501   1.661   4.795 -0.3800 -0.2618  0.2981
12921SOL    HW140440   0.413   1.624   4.794  0.0766 -1.3479 -0.7937
12921SOL    HW240441   0.515   1.692   4.706 -0.2981  1.4636  0.8988
12922SOL     OW40442   3.094   8.594   5.117 -1.0904  0.6858  0.1652
12922SOL    HW140443   3.073   8.515   5.066 -0.9042  1.1659 -0.6706
12922SOL    HW240444   3.015   8.648   5.109 -0.8781  0.9695 -0.0149
12923SOL     OW40445   0.889   7.906   4.401 -0.1769  0.4772 -0.3040
12923SOL    HW140446   0.951   7.849   4.446 -0.0209  0.6824 -0.2599
12923SOL    HW240447   0.806   7.857   4.404  0.4358 -0.7075 -2.1578
12924SOL     OW40448   2.171   8.129   6.802  0.4677 -0.7238 -0.0632
12924SOL    HW140449   2.200   8.049   6.845  0.5263 -0.3781  0.5392
12924SOL    HW240450   2.110   8.169   6.863 -0.6206 -0.9985 -0.9477
12925SOL     OW40451   2.637   2.639   3.206  0.0323  0.0359 -0.0150
12925SOL    HW140452   2.604   2.577   3.141  0.6769  1.1271 -1.4207
12925SOL    HW240453   2.617   2.725   3.168  1.1583  0.6888  0.8546
12926SOL     OW40454   4.941   8.924   7.094  0.5927  1.3853 -0.0637
12926SOL    HW140455   4.880   8.895   7.163  0.8257 -0.1661 -0.4959
12926SOL    HW240456   5.017   8.867   7.104  1.1990  2.0665 -0.7474
12927SOL     OW40457   8.533   4.803   1.932 -0.2072 -0.4725 -0.4117
12927SOL    HW140458   8.496   4.744   1.998 -1.1497 -0.8801 -1.2908
12927SOL    HW240459   8.500   4.889   1.956  0.7496 -0.3605  0.5697
12928SOL     OW40460   8.245   1.356   1.229  0.0975 -0.0132  0.3899
12928SOL    HW140461   8.196   1.358   1.311  1.4303  1.0047  1.1782
12928SOL    HW240462   8.281   1.444   1.220  0.0750 -0.1504 -1.2332
12929SOL     OW40463   7.646   0.098   7.901  0.2136  0.1001  0.6932
12929SOL    HW140464   7.551   0.105   7.893  0.4711  1.8999 -1.2399
12929SOL    HW240465   7.680   0.134   7.819  2.5819 -0.2370  1.4760
12930SOL     OW40466   8.458   1.464   8.979 -0.3159 -0.3629 -0.2418
12930SOL    HW140467   8.448   1.500   9.067  2.0055  2.5587 -1.0845
12930SOL    HW240468   8.370   1.466   8.942 -0.8291  1.0645  1.0238
12931SOL     OW40469   1.507   5.238   2.485 -0.2024  0.2512  0.4121
12931SOL    HW140470   1.565   5.162   2.485 -1.5743 -0.8082 -1.0892
12931SOL    HW240471   1.501   5.265   2.394 -2.0820  0.3378  0.5414
12932SOL     OW40472   0.566   6.037   5.953 -0.4020 -0.7763  0.4546
12932SOL    HW140473   0.524   6.094   6.018 -0.8021  2.0771 -2.2216
12932SOL    HW240474   0.650   6.014   5.992 -0.2356  1.6620  1.5955
12933SOL     OW40475   2.704   5.153   7.634  0.4788  0.4093 -0.2411
12933SOL    HW140476   2.671   5.155   7.724  1.0227  0.4700 -0.0428
12933SOL    HW240477   2.778   5.214   7.634  1.8932 -1.2710 -0.1621
12934SOL     OW40478   9.139   8.114   1.806 -0.4656 -0.4049 -0.2161
12934SOL    HW140479   9.203   8.155   1.864  0.9981 -0.7003 -1.5758
12934SOL    HW240480   9.110   8.035   1.853  0.4915 -0.4930  0.2378
12935SOL     OW40481   2.665   3.837   1.632 -0.3723 -0.4233 -0.2708
12935SOL    HW140482   2.696   3.897   1.564  0.3487 -0.0723  0.3622
12935SOL    HW240483   2.627   3.764   1.584  1.6792 -0.9867 -1.0523
12936SOL     OW40484   3.368   0.443   7.984  0.1389 -0.2520  0.4487
12936SOL    HW140485   3.280   0.477   7.966  0.0971  0.0942  1.2842
12936SOL    HW240486   3.359   0.398   8.068  0.6850 -0.5198  0.3638
12937SOL     OW40487   7.594   2.613   5.588  0.0036  0.6381  0.1679
12937SOL    HW140488   7.570   2.520   5.590 -1.6811  1.0170 -0.9426
12937SOL    HW240489   7.687   2.615   5.610  0.2629 -1.3847 -0.6696
12938SOL     OW40490   6.013   5.961   2.850 -0.0820 -0.2057  1.0654
12938SOL    HW140491   5.970   5.877   2.837 -0.8732  0.1550  1.3348
12938SOL    HW240492   6.098   5.939   2.887 -0.0457 -0.9201  0.5644
12939SOL     OW40493   1.944   3.391   6.645  0.3238 -0.6249  0.0135
12939SOL    HW140494   1.945   3.326   6.574  1.7175 -0.1770 -0.3918
12939SOL    HW240495   2.013   3.361   6.705  0.3431 -0.0283  0.2889
12940SOL     OW40496   3.675   1.041   5.400  0.1077 -0.2407 -0.2999
12940SOL    HW140497   3.663   1.122   5.449  2.8173 -0.5820  0.9979
12940SOL    HW240498   3.692   1.070   5.310 -0.1567  0.5741 -0.0942
12941SOL     OW40499   1.564   1.295   0.704 -0.6204 -0.4533 -0.0651
12941SOL    HW140500   1.532   1.304   0.794 -0.1858  0.0098  0.0403
12941SOL    HW240501   1.539   1.206   0.680 -1.9517 -0.1190  0.0360
12942SOL     OW40502   7.813   0.355   8.428 -0.3723  0.0579 -0.1970
12942SOL    HW140503   7.853   0.283   8.380  1.4365  1.0225 -0.1708
12942SOL    HW240504   7.748   0.313   8.484 -0.9750 -1.2964 -1.8698
12943SOL     OW40505   8.124   6.499   1.779 -0.5298 -0.0313 -0.6995
12943SOL    HW140506   8.081   6.557   1.842  0.1402 -0.2305 -0.0507
12943SOL    HW240507   8.065   6.424   1.772 -0.7676  0.1415 -0.5570
12944SOL     OW40508   3.717   7.226   5.827  0.3573 -0.5886 -0.2519
12944SOL    HW140509   3.695   7.241   5.735 -0.9048 -0.2725  0.0956
12944SOL    HW240510   3.633   7.219   5.871  0.9531  0.7941  1.1326
12945SOL     OW40511   8.891   2.620   2.708  0.7263 -0.0206 -0.0551
12945SOL    HW140512   8.979   2.656   2.713  0.3666  0.9776 -0.6753
12945SOL    HW240513   8.865   2.631   2.616 -0.3988  0.6048  0.3184
12946SOL     OW40514   3.306   6.282   3.584  0.4095 -0.7020  0.0122
12946SOL    HW140515   3.390   6.260   3.625 -0.2748 -0.3052  1.7019
12946SOL    HW240516   3.246   6.214   3.615 -0.1626 -0.3029 -0.2116
12947SOL     OW40517   0.653   1.822   9.083  0.2441 -0.3394 -0.2082
12947SOL    HW140518   0.720   1.878   9.124  1.3144 -1.7322 -0.0166
12947SOL    HW240519   0.638   1.862   8.997  0.4979  0.6221  0.1818
12948SOL     OW40520   5.215   3.594   2.436  0.4540 -0.4504 -0.0910
12948SOL    HW140521   5.244   3.579   2.525  0.8265 -4.0496 -0.7352
12948SOL    HW240522   5.205   3.506   2.399 -3.6128  0.8232 -2.3355
12949SOL     OW40523   7.503   7.257   4.976  0.0328  0.5622 -0.2710
12949SOL    HW140524   7.426   7.303   5.010  1.7220  3.2315  0.0513
12949SOL    HW240525   7.578   7.305   5.011  1.8965 -2.4639  0.0424
12950SOL     OW40526   4.013   4.983   3.166 -0.4136  0.0342 -0.3401
12950SOL    HW140527   4.018   4.910   3.228  0.2461  0.1401 -0.2583
12950SOL    HW240528   3.932   4.968   3.117 -1.0124  0.0274  0.6440
12951SOL     OW40529   7.994   4.462   0.670  0.8737  0.0195 -0.2874
12951SOL    HW140530   7.968   4.372   0.689 -0.0923  0.6331  1.3898
12951SOL    HW240531   7.981   4.471   0.575 -2.6862 -0.4549  0.1121
12952SOL     OW40532   3.102   8.988   2.662 -0.2398  0.0368 -0.7432
12952SOL    HW140533   3.117   9.015   2.571  0.4597 -0.1474 -0.6853
12952SOL    HW240534   3.071   9.067   2.706 -0.4105  0.1683 -1.1051
12953SOL     OW40535   6.562   4.945   7.106  0.0617  0.2849  0.5002
12953SOL    HW140536   6.586   4.952   7.198 -1.7251 -0.2059  1.0405
12953SOL    HW240537   6.590   5.027   7.067 -1.0716  1.3917  1.9564
12954SOL     OW40538   2.613   2.069   2.191  0.3817  0.4013 -0.9341
12954SOL    HW140539   2.544   2.094   2.130 -1.2186 -3.0740 -0.6594
12954SOL    HW240540   2.694   2.078   2.141 -0.6701  0.2006 -2.6971
12955SOL     OW40541   0.194   7.851   1.117  0.3056  0.4499 -0.2222
12955SOL    HW140542   0.273   7.879   1.071  1.0354 -0.5441  0.3908
12955SOL    HW240543   0.189   7.757   1.100  0.1435  0.2206  1.0666
12956SOL     OW40544   8.416   5.839   3.399 -0.2628  0.1678  0.7301
12956SOL    HW140545   8.444   5.929   3.381  0.8026 -0.5688 -1.4995
12956SOL    HW240546   8.488   5.802   3.450  0.9079 -0.4428 -1.3331
12957SOL     OW40547   7.401   4.147   1.007 -0.7714 -0.0865 -0.2159
12957SOL    HW140548   7.467   4.193   0.954 -1.8895 -1.2770 -2.7295
12957SOL    HW240549   7.332   4.212   1.019  0.6270  1.0352  2.0805
12958SOL     OW40550   7.316   3.285   6.168 -0.4425 -0.0063 -0.3389
12958SOL    HW140551   7.264   3.342   6.226  1.4690  0.7497  0.6852
12958SOL    HW240552   7.254   3.218   6.140 -1.8928  0.6470  1.1462
12959SOL     OW40553   8.633   3.158   5.420  0.4527 -0.0886  0.4351
12959SOL    HW140554   8.629   3.153   5.516 -0.6444  1.0284  0.4614
12959SOL    HW240555   8.562   3.218   5.396 -0.2425 -1.5298 -1.1878
12960SOL     OW40556   6.573   3.985   4.711  0.3974 -0.9619  0.0486
12960SOL    HW140557   6.542   3.923   4.778 -2.3807  0.6860  0.3641
12960SOL    HW240558   6.566   4.071   4.753  0.5803 -0.0917 -1.6595
12961SOL     OW40559   6.386   2.912   8.841 -0.3308  0.2218  0.0636
12961SOL    HW140560   6.312   2.888   8.895 -0.4059 -1.3257 -0.6884
12961SOL    HW240561   6.380   2.855   8.764  1.4836  0.2438 -0.1321
12962SOL     OW40562   9.184   3.138   7.838  0.1287  0.2873  0.4855
12962SOL    HW140563   9.160   3.047   7.821  0.5607  0.5864 -1.9571
12962SOL    HW240564   9.219   3.138   7.927 -0.5022 -1.8088  0.7508
12963SOL     OW40565   6.409   1.186   1.942  0.4309  0.5680 -0.6192
12963SOL    HW140566   6.429   1.093   1.929 -2.3740  0.0257 -1.4459
12963SOL    HW240567   6.317   1.187   1.969  0.4405  3.1197 -0.5468
12964SOL     OW40568   3.443   4.003   6.554  0.4966 -0.3697  0.4660
12964SOL    HW140569   3.405   3.964   6.475 -1.2840  0.2520  0.9856
12964SOL    HW240570   3.532   3.970   6.557  0.4756 -0.6496 -1.6390
12965SOL     OW40571   1.538   7.718   2.937  0.1968  0.5140 -0.0029
12965SOL    HW140572   1.578   7.803   2.921 -0.6579  1.0588  0.7114
12965SOL    HW240573   1.447   7.738   2.960  0.0575 -0.5728  0.4200
12966SOL     OW40574   9.234   3.839   7.692  0.4936 -1.1524 -0.8013
12966SOL    HW140575   9.261   3.864   7.781  1.8826 -0.8352 -1.3089
12966SOL    HW240576   9.241   3.744   7.691 -0.7759 -1.2656 -0.1738
12967SOL     OW40577   5.148   3.272   3.490  0.0512  0.2321  0.4018
12967SOL    HW140578   5.073   3.213   3.483 -0.2756  0.5579  1.0871
12967SOL    HW240579   5.218   3.228   3.443 -1.1723  0.9132 -2.1378
12968SOL     OW40580   7.713   5.825   1.079 -0.0793  0.1264 -1.3309
12968SOL    HW140581   7.651   5.767   1.123  0.2993  1.0299  0.4354
12968SOL    HW240582   7.658   5.890   1.035 -0.4287  0.1825 -0.8167
12969SOL     OW40583   9.188   3.563   5.645  0.2813 -0.2547  0.2442
12969SOL    HW140584   9.220   3.509   5.572  1.5950 -0.7863  1.1774
12969SOL    HW240585   9.261   3.622   5.664 -0.2210  0.1737  0.8517
12970SOL     OW40586   3.683   4.686   0.959  0.3110  0.0835  0.0054
12970SOL    HW140587   3.619   4.639   0.906 -0.1801  0.7363  0.0181
12970SOL    HW240588   3.765   4.680   0.909  0.1591 -0.4405 -0.1832
12971SOL     OW40589   2.585   3.719   5.039 -0.2534  0.3400  0.3451
12971SOL    HW140590   2.582   3.753   4.950 -2.6820 -3.2120 -1.0696
12971SOL    HW240591   2.504   3.751   5.080 -0.7371 -0.6482  0.1863
12972SOL     OW40592   4.997   7.582   4.386 -0.5195  0.0754 -0.2404
12972SOL    HW140593   4.971   7.513   4.325 -2.4769  0.9138 -0.3960
12972SOL    HW240594   4.931   7.651   4.374  1.2292  1.8472  0.1189
12973SOL     OW40595   8.056   0.700   4.210  0.0391  0.1987  0.1555
12973SOL    HW140596   8.136   0.648   4.210  0.9513  1.4587 -2.7557
12973SOL    HW240597   8.085   0.788   4.234 -0.3893  0.7526 -1.3140
12974SOL     OW40598   1.563   9.123   8.860 -0.4010 -0.0877  0.0871
12974SOL    HW140599   1.579   9.215   8.839  1.2654 -0.3613  0.0202
12974SOL    HW240600   1.468   9.115   8.868 -0.5253  1.7483  0.5932
12975SOL     OW40601   0.543   1.522   4.002 -0.2470  0.1249 -0.5057
12975SOL    HW140602   0.575   1.477   4.081  0.4977 -0.8547 -1.3505
12975SOL    HW240603   0.561   1.615   4.019 -0.0759 -0.0793  0.4746
12976SOL     OW40604   1.157   5.765   1.942 -0.2338  0.0916  0.3740
12976SOL    HW140605   1.072   5.805   1.958  0.5014  1.8590 -0.0155
12976SOL    HW240606   1.138   5.690   1.886 -1.7640 -0.7817  2.0231
12977SOL     OW40607   6.768   5.297   4.330 -0.0653  0.1920 -0.0421
12977SOL    HW140608   6.757   5.238   4.405  1.4445 -0.4639 -0.3187
12977SOL    HW240609   6.714   5.373   4.352 -0.2427 -0.3174  1.3658
12978SOL     OW40610   6.763   8.539   4.209 -0.4161  0.3728 -0.3650
12978SOL    HW140611   6.708   8.461   4.206 -0.4605  0.4117 -0.6009
12978SOL    HW240612   6.702   8.612   4.202 -0.5314  0.4886  1.6990
12979SOL     OW40613   3.284   2.574   5.698  0.1689  0.9778  0.4403
12979SOL    HW140614   3.266   2.652   5.749 -1.3094  0.9818 -0.0718
12979SOL    HW240615   3.371   2.588   5.661 -0.6857  3.0394 -0.8558
12980SOL     OW40616   1.246   0.752   0.808  0.3087 -0.1170 -0.0932
12980SOL    HW140617   1.161   0.789   0.831  0.7193  1.1311 -0.5490
12980SOL    HW240618   1.278   0.713   0.889  0.0481  0.8895  0.4948
12981SOL     OW40619   7.603   6.899   3.686  0.2498 -1.0130 -0.3400
12981SOL    HW140620   7.658   6.975   3.666  1.9068 -1.4816  2.2159
12981SOL    HW240621   7.523   6.937   3.722  1.5990 -0.4630  2.1812
12982SOL     OW40622   7.552   5.328   7.383 -0.5722 -0.1853 -0.1240
12982SOL    HW140623   7.624   5.353   7.324 -1.8416  0.9425 -1.2197
12982SOL    HW240624   7.543   5.234   7.371 -1.4138  0.1644 -2.4304
12983SOL     OW40625   1.654   6.856   8.051  0.3558 -0.1201 -0.0592
12983SOL    HW140626   1.586   6.916   8.020  1.7448  1.3162 -0.3810
12983SOL    HW240627   1.693   6.820   7.972  0.0928 -0.8091  0.1215
12984SOL     OW40628   6.169   3.619   3.306  0.8570  0.1459  0.5883
12984SOL    HW140629   6.105   3.680   3.342  0.3745  0.4012 -0.6828
12984SOL    HW240630   6.254   3.662   3.318  1.0492 -0.9841  3.9743
12985SOL     OW40631   0.801   7.213   2.703 -0.1323 -0.3225  0.3878
12985SOL    HW140632   0.880   7.240   2.749 -0.0530  0.7095 -0.3309
12985SOL    HW240633   0.833   7.155   2.634 -0.1346 -0.9242  0.8892
12986SOL     OW40634   1.264   7.398   1.449 -0.3275 -0.2433  0.6348
12986SOL    HW140635   1.176   7.434   1.460 -0.2675  0.0910  0.0748
12986SOL    HW240636   1.295   7.383   1.538 -0.0416  1.8495  0.9290
12987SOL     OW40637   4.018   0.948   6.919 -0.7063 -0.3327  0.3641
12987SOL    HW140638   4.009   0.917   6.829 -1.4940 -0.4781  0.4914
12987SOL    HW240639   3.955   1.020   6.926  0.7708  1.0161  0.2051
12988SOL     OW40640   2.377   2.975   6.951 -0.1719  0.3707  0.0313
12988SOL    HW140641   2.302   2.916   6.948 -1.4132  1.9032  0.3855
12988SOL    HW240642   2.345   3.057   6.913  1.0996  1.2626  0.8577
12989SOL     OW40643   4.338   2.209   1.301 -0.6550 -0.0483 -0.4036
12989SOL    HW140644   4.344   2.304   1.311  1.0958 -0.2288  0.4557
12989SOL    HW240645   4.251   2.187   1.332 -0.5752  1.1176  0.6793
12990SOL     OW40646   5.395   6.005   6.003  0.2388  0.5237 -0.2023
12990SOL    HW140647   5.451   6.005   5.925 -0.2097  1.0092 -0.5350
12990SOL    HW240648   5.456   5.998   6.076  0.6708  0.1103 -0.5970
12991SOL     OW40649   6.037   2.251   1.123  0.6608  0.3593 -1.2190
12991SOL    HW140650   6.055   2.275   1.214 -1.1188  2.3321 -1.3288
12991SOL    HW240651   6.028   2.156   1.124  3.6919  0.0193  0.0746
12992SOL     OW40652   8.220   1.669   1.049  0.5441 -0.1815 -0.2497
12992SOL    HW140653   8.281   1.720   0.996 -1.0949  0.3696 -1.6214
12992SOL    HW240654   8.205   1.589   0.998 -1.2803  0.4837 -0.7721
12993SOL     OW40655   8.438   4.186   8.621 -0.2898  0.6661 -0.4645
12993SOL    HW140656   8.446   4.185   8.526  0.4018  2.1927 -0.4452
12993SOL    HW240657   8.406   4.274   8.641 -1.5330 -0.0277  0.6354
12994SOL     OW40658   8.236   5.347   2.869  0.5445  0.1938  0.0052
12994SOL    HW140659   8.326   5.373   2.849  1.1065 -1.3429  0.4836
12994SOL    HW240660   8.244   5.259   2.905 -1.0708  0.4290  0.9755
12995SOL     OW40661   0.468   5.253   8.294 -0.1178 -0.6657 -0.3967
12995SOL    HW140662   0.411   5.245   8.371 -1.3580  0.5843 -1.1437
12995SOL    HW240663   0.443   5.179   8.238 -1.5700  0.2828 -1.0458
12996SOL     OW40664   2.426   8.439   7.584 -0.0788  0.0944 -0.9544
12996SOL    HW140665   2.385   8.411   7.666 -1.3154  0.3996 -1.4604
12996SOL    HW240666   2.474   8.361   7.554 -0.4063 -0.3158 -0.4251
12997SOL     OW40667   8.879   6.422   8.874  0.3057 -0.5277 -0.0074
12997SOL    HW140668   8.902   6.426   8.781  2.3983  2.2926  0.5872
12997SOL    HW240669   8.791   6.458   8.878  1.5291  2.6504 -0.5199
12998SOL     OW40670   1.967   7.484   6.258  0.3007  0.5276  0.4725
12998SOL    HW140671   1.969   7.552   6.190  1.7586  0.9881  0.9664
12998SOL    HW240672   1.923   7.527   6.332  2.7593  1.5279  1.3910
12999SOL     OW40673   5.686   5.800   8.797 -0.4881  0.2659  0.6034
12999SOL    HW140674   5.780   5.810   8.778 -0.4584 -0.6045  0.2448
12999SOL    HW240675   5.646   5.878   8.759 -0.2865 -0.9055 -2.1531
13000SOL     OW40676   2.951   0.607   6.095 -0.3579 -0.1714 -0.3118
13000SOL    HW140677   2.972   0.663   6.021 -0.7752 -0.2190 -0.4659
13000SOL    HW240678   2.865   0.570   6.074 -0.7275  0.2385  0.4313
13001SOL     OW40679   1.875   0.145   6.639 -0.2996  0.3811 -0.3463
13001SOL    HW140680   1.939   0.102   6.583 -0.0070 -0.5432  0.6848
13001SOL    HW240681   1.846   0.077   6.700  1.3760  2.0345  2.3973
13002SOL     OW40682   2.663   4.747   3.403  1.2043 -0.0916 -0.6884
13002SOL    HW140683   2.660   4.742   3.499 -0.1982  0.5084 -0.6769
13002SOL    HW240684   2.703   4.665   3.376  0.8068 -0.6520  0.3820
13003SOL     OW40685   3.492   0.675   4.328  0.5074  0.1478  0.1587
13003SOL    HW140686   3.467   0.624   4.252 -1.4544  1.0454  0.1716
13003SOL    HW240687   3.511   0.762   4.294 -1.5960  0.8970  0.8102
13004SOL     OW40688   4.548   4.610   2.465  0.1955 -0.1660  0.7760
13004SOL    HW140689   4.524   4.697   2.436 -2.8314 -1.8160 -1.9460
13004SOL    HW240690   4.644   4.611   2.467  0.2840  2.3621 -1.8849
13005SOL     OW40691   7.341   1.265   8.732 -0.0317 -0.1745 -0.1060
13005SOL    HW140692   7.322   1.334   8.669 -0.4144 -0.2694 -0.0932
13005SOL    HW240693   7.413   1.215   8.692  0.3036  0.2789 -0.0741
13006SOL     OW40694   2.593   8.393   6.860  0.5523 -0.3425 -0.3407
13006SOL    HW140695   2.503   8.390   6.828  1.0791 -0.9295 -1.8448
13006SOL    HW240696   2.629   8.474   6.824  0.4303  0.2234  0.8100
13007SOL     OW40697   8.705   3.986   6.788 -0.6755 -0.1969 -0.3206
13007SOL    HW140698   8.660   3.971   6.705  0.7218 -3.6573 -0.5577
13007SOL    HW240699   8.662   3.926   6.850  1.3067 -1.1009  0.2479
13008SOL     OW40700   8.172   2.524   4.954  0.1161  0.8231 -0.3962
13008SOL    HW140701   8.245   2.472   4.922  1.4735  2.3094  0.2097
13008SOL    HW240702   8.124   2.550   4.875  1.4863  1.6424 -0.9679
13009SOL     OW40703   4.921   1.223   2.853 -0.3243  0.0089 -0.0662
13009SOL    HW140704   4.913   1.242   2.946 -0.2506 -1.8920  0.3568
13009SOL    HW240705   4.854   1.277   2.811 -0.8655  0.3064  1.1680
13010SOL     OW40706   3.195   2.385   3.624  0.7989 -0.3569 -0.0367
13010SOL    HW140707   3.200   2.461   3.566  1.6471 -0.8501 -0.6218
13010SOL    HW240708   3.259   2.324   3.589  0.8010 -0.9614  0.9959
13011SOL     OW40709   1.760   3.878   7.502 -0.1818 -0.0591 -0.1769
13011SOL    HW140710   1.721   3.810   7.448 -1.5051  0.5372  0.0179
13011SOL    HW240711   1.690   3.941   7.516  0.6335  0.6447  0.8125
13012SOL     OW40712   2.233   9.261   2.249 -0.6020  0.3224  0.1998
13012SOL    HW140713   2.207   9.347   2.216  0.0796  0.2056 -0.6485
13012SOL    HW240714   2.325   9.270   2.272 -0.9694  0.2979  1.7628
13013SOL     OW40715   3.247   6.951   0.400 -0.8208 -0.5008 -0.4480
13013SOL    HW140716   3.321   6.983   0.451 -0.4582  0.3319 -1.4726
13013SOL    HW240717   3.259   6.990   0.313 -2.6240 -0.0915 -0.5368
13014SOL     OW40718   6.547   5.869   5.706 -0.3266 -0.9291  0.8138
13014SOL    HW140719   6.617   5.815   5.742 -0.8912 -1.4111  1.2002
13014SOL    HW240720   6.586   5.956   5.698  0.0768 -1.0108  1.7724
13015SOL     OW40721   5.394   9.139   6.002 -0.1832  0.1973 -0.3523
13015SOL    HW140722   5.366   9.215   6.052 -1.1649  0.2101 -0.9155
13015SOL    HW240723   5.396   9.067   6.065  0.3036  0.5844  0.0809
13016SOL     OW40724   1.462   6.859   7.705  0.1369 -0.3681  0.0663
13016SOL    HW140725   1.442   6.769   7.730 -0.3817 -0.1830  0.3374
13016SOL    HW240726   1.475   6.856   7.610  0.1079 -0.7286  0.0742
13017SOL     OW40727   7.256   3.398   5.070 -0.2475  0.9251  0.1574
13017SOL    HW140728   7.166   3.366   5.060  0.2697 -0.4796 -0.0643
13017SOL    HW240729   7.310   3.319   5.068  1.1495  1.8919 -1.5336
13018SOL     OW40730   0.379   3.993   6.450 -0.5853  0.0789  0.1932
13018SOL    HW140731   0.460   3.965   6.406 -1.5473 -1.0606 -0.8955
13018SOL    HW240732   0.309   3.958   6.395 -1.8293  1.6900  0.7153
13019SOL     OW40733   3.045   4.856   4.137  0.3219  0.3230  0.4149
13019SOL    HW140734   3.006   4.791   4.195  1.0002 -0.8887 -0.4628
13019SOL    HW240735   3.134   4.869   4.171  0.3062  0.5294  0.3791
13020SOL     OW40736   5.932   0.315   4.585 -0.1655 -0.0882  0.5679
13020SOL    HW140737   5.928   0.367   4.504 -0.8211  0.8060  1.1568
13020SOL    HW240738   5.930   0.381   4.655 -1.5948 -0.9313  1.3427
13021SOL     OW40739   5.946   7.636   4.650 -0.3724 -0.7071  0.2642
13021SOL    HW140740   6.029   7.676   4.627 -1.4232  0.9986 -0.6154
13021SOL    HW240741   5.929   7.665   4.739 -0.0110 -1.1164  0.4718
13022SOL     OW40742   0.453   1.487   2.100 -0.4192  0.2349 -0.0290
13022SOL    HW140743   0.485   1.525   2.182  1.6624 -1.8707  0.1836
13022SOL    HW240744   0.439   1.562   2.042 -0.6470  1.6454  1.8175
13023SOL     OW40745   5.698   7.203   7.998 -0.3418  0.0673 -0.9974
13023SOL    HW140746   5.603   7.197   8.010 -0.0537 -0.3836  1.3658
13023SOL    HW240747   5.711   7.282   7.945 -1.9662  0.7280 -0.4417
13024SOL     OW40748   0.988   3.007   6.849 -0.7129 -0.0805  0.9188
13024SOL    HW140749   0.990   2.911   6.857 -0.4593 -0.1379  0.2151
13024SOL    HW240750   0.917   3.024   6.787 -0.4241  0.1570  0.6532
13025SOL     OW40751   7.346   3.285   7.413  0.1655 -0.3384 -0.1520
13025SOL    HW140752   7.364   3.332   7.494  2.4543  1.8547 -1.8493
13025SOL    HW240753   7.359   3.193   7.436 -0.1974  0.1718  2.1982
13026SOL     OW40754   8.287   6.556   8.809 -0.2413 -0.5845  0.2247
13026SOL    HW140755   8.235   6.574   8.887  0.7272 -2.0439  1.2384
13026SOL    HW240756   8.244   6.480   8.769 -0.2922 -0.3084 -0.2468
13027SOL     OW40757   3.398   1.511   0.643  0.1218 -0.3222  0.0976
13027SOL    HW140758   3.485   1.511   0.602  0.4204  0.9217  0.7073
13027SOL    HW240759   3.399   1.587   0.700 -1.8526  0.4745 -0.8909
13028SOL     OW40760   1.381   1.487   2.770 -0.7069  0.3916 -0.5782
13028SOL    HW140761   1.290   1.502   2.745 -0.9801  1.4926  1.0859
13028SOL    HW240762   1.421   1.574   2.772  0.0519  0.0364 -0.0055
13029SOL     OW40763   1.005   1.496   7.645  0.4987  0.0094 -0.3131
13029SOL    HW140764   1.088   1.537   7.669  0.9433 -1.9337  1.7736
13029SOL    HW240765   1.022   1.455   7.560  1.0057  1.4168 -0.9008
13030SOL     OW40766   8.209   0.844   8.053 -0.1848 -0.4909  0.1216
13030SOL    HW140767   8.299   0.812   8.057  0.6397  1.8564  1.3219
13030SOL    HW240768   8.206   0.897   7.973 -1.2598 -2.6726 -1.3226
13031SOL     OW40769   1.792   4.293   4.658 -0.2221 -0.1439  0.2896
13031SOL    HW140770   1.730   4.220   4.661 -1.0961  0.6342  1.6865
13031SOL    HW240771   1.813   4.304   4.565  0.5602 -2.6924  0.1445
13032SOL     OW40772   7.639   5.385   3.711  0.0681  0.0114  0.6175
13032SOL    HW140773   7.709   5.403   3.648  1.8008  1.1785  2.8350
13032SOL    HW240774   7.588   5.467   3.713  0.3616  0.1751  1.1875
13033SOL     OW40775   1.330   1.343   3.357  0.0546  0.1394 -0.3741
13033SOL    HW140776   1.300   1.338   3.267  0.9347 -1.7352 -0.5977
13033SOL    HW240777   1.422   1.371   3.350  0.1814 -0.1963 -0.0807
13034SOL     OW40778   6.318   4.474   3.918 -0.1782  0.0432  0.0636
13034SOL    HW140779   6.297   4.411   3.987  1.2558  0.7126  1.1348
13034SOL    HW240780   6.238   4.527   3.909 -0.5224 -0.3109  0.9161
13035SOL     OW40781   7.850   6.674   6.797  0.0974 -0.2214  0.1071
13035SOL    HW140782   7.932   6.634   6.824 -0.7288 -1.6311  0.5641
13035SOL    HW240783   7.787   6.649   6.865 -0.4856  1.7497  0.3463
13036SOL     OW40784   5.448   0.968   7.754  0.0935  0.1720  0.5429
13036SOL    HW140785   5.373   0.923   7.716  0.1563 -0.2872  0.9655
13036SOL    HW240786   5.524   0.916   7.726  0.2874  0.8004 -0.1331
13037SOL     OW40787   1.365   5.055   4.203 -0.6072  0.5704 -0.0076
13037SOL    HW140788   1.330   5.042   4.291  0.0534 -0.6202  0.0930
13037SOL    HW240789   1.297   5.024   4.144 -0.7760  0.7330  0.1022
13038SOL     OW40790   9.278   7.527   2.792 -0.2651 -0.5547 -0.0959
13038SOL    HW140791   9.192   7.559   2.819  0.7924  1.7995  0.6089
13038SOL    HW240792   9.314   7.486   2.870  0.2640  0.7239  0.3456
13039SOL     OW40793   1.142   4.214   7.736 -0.1880 -0.3950  0.0289
13039SOL    HW140794   1.066   4.267   7.712 -0.4605 -0.6128  0.4060
13039SOL    HW240795   1.149   4.223   7.831  1.4641  1.2337 -0.2237
13040SOL     OW40796   0.932   6.260   6.714  0.1882 -0.5024  0.4609
13040SOL    HW140797   0.877   6.271   6.636  0.6609 -0.9348  0.0598
13040SOL    HW240798   0.872   6.272   6.788  0.0911  1.7298  0.0466
13041SOL     OW40799   1.384   6.745   4.541  0.1801 -0.3738 -0.3446
13041SOL    HW140800   1.434   6.756   4.460 -0.1800 -3.2476 -1.0121
13041SOL    HW240801   1.310   6.805   4.532  0.4430 -0.2541 -1.8907
13042SOL     OW40802   3.879   5.823   4.522  0.1499 -0.7367  0.0937
13042SOL    HW140803   3.940   5.896   4.514  0.6414 -1.1204  0.3015
13042SOL    HW240804   3.850   5.825   4.614  1.4136 -1.7845  0.5231
13043SOL     OW40805   0.921   3.709   6.293  0.0589 -0.3124  0.2753
13043SOL    HW140806   0.983   3.702   6.366  1.2362  3.6878 -0.2153
13043SOL    HW240807   0.836   3.723   6.335 -0.0012 -2.3031  0.8913
13044SOL     OW40808   3.347   4.873   7.269 -0.2560 -0.0792 -0.3302
13044SOL    HW140809   3.289   4.846   7.198  1.5791  0.6871 -2.1752
13044SOL    HW240810   3.359   4.967   7.257 -0.6370  0.2447  1.5713
13045SOL     OW40811   9.042   6.756   1.356  0.1243 -0.3293  0.8486
13045SOL    HW140812   9.092   6.743   1.436  0.4023  0.9740  0.9042
13045SOL    HW240813   8.959   6.710   1.372 -0.0683  0.4283  2.1216
13046SOL     OW40814   8.362   0.233   2.685  0.4950 -0.0418 -0.2032
13046SOL    HW140815   8.416   0.160   2.655 -1.7189 -1.2621 -1.3642
13046SOL    HW240816   8.387   0.306   2.627  0.2369 -0.8537 -1.3615
13047SOL     OW40817   5.285   6.735   6.939  0.6473 -0.1476 -0.4428
13047SOL    HW140818   5.321   6.672   6.877 -0.5324  1.8608 -3.2979
13047SOL    HW240819   5.358   6.795   6.956  0.1973  0.8841 -2.0823
13048SOL     OW40820   6.391   4.756   8.435 -0.7480 -0.1154 -0.2471
13048SOL    HW140821   6.414   4.743   8.343 -0.4439  0.0816 -0.1998
13048SOL    HW240822   6.438   4.686   8.481 -3.3988 -2.1958 -0.5597
13049SOL     OW40823   5.440   5.817   4.970 -0.2537 -0.2941 -0.7597
13049SOL    HW140824   5.521   5.833   4.921 -0.8697  0.9000 -1.4104
13049SOL    HW240825   5.402   5.739   4.930 -1.3387  1.3278 -2.9997
13050SOL     OW40826   8.231   2.425   0.854  0.0520  0.0912  0.6311
13050SOL    HW140827   8.263   2.514   0.844 -1.2828  0.8452  2.8071
13050SOL    HW240828   8.147   2.425   0.809  0.5523 -0.4028 -0.3319
13051SOL     OW40829   4.485   0.983   1.242 -0.3345  0.1658 -0.1474
13051SOL    HW140830   4.533   1.000   1.161 -0.9136  0.2746 -0.4718
13051SOL    HW240831   4.549   0.999   1.311 -0.0528  0.8332 -0.5541
13052SOL     OW40832   3.486   5.415   5.530 -0.0118 -0.3475  0.0089
13052SOL    HW140833   3.537   5.411   5.611 -1.1122  2.1905  0.8647
13052SOL    HW240834   3.404   5.370   5.552 -0.6134  0.9931  0.5687
13053SOL     OW40835   6.838   1.332   0.241 -0.0511 -0.1558 -0.8069
13053SOL    HW140836   6.749   1.362   0.219 -1.1866 -2.3162  0.6586
13053SOL    HW240837   6.855   1.262   0.178  0.3984 -0.1402 -0.7029
13054SOL     OW40838   3.552   4.651   0.723  0.1769  0.3332  0.0940
13054SOL    HW140839   3.550   4.610   0.637  0.8404 -2.8618  1.5493
13054SOL    HW240840   3.461   4.677   0.740  0.1117  1.3095 -1.6812
13055SOL     OW40841   6.719   0.701   3.074 -0.3271  0.2771 -0.1395
13055SOL    HW140842   6.762   0.664   3.151  0.2548  0.6051 -0.3067
13055SOL    HW240843   6.789   0.712   3.010 -0.7446  0.3527 -0.5875
13056SOL     OW40844   8.346   8.834   0.162  0.4391 -0.4886 -0.2451
13056SOL    HW140845   8.257   8.822   0.130  0.9564 -1.1565 -1.4424
13056SOL    HW240846   8.334   8.867   0.251 -1.0031  2.4418 -1.4773
13057SOL     OW40847   4.092   5.061   3.996  0.7250 -0.4047 -0.0142
13057SOL    HW140848   4.022   5.126   4.002  0.1556 -0.9873 -0.2998
13057SOL    HW240849   4.156   5.100   3.935 -0.0366 -0.5032 -0.8840
13058SOL     OW40850   2.686   6.910   2.291 -0.3539 -0.1275  0.0173
13058SOL    HW140851   2.688   6.939   2.200  0.6484  1.2556  0.4624
13058SOL    HW240852   2.646   6.983   2.339  1.6325  0.2996  1.0679
13059SOL     OW40853   3.424   6.068   9.147 -0.1067  0.5180 -0.1650
13059SOL    HW140854   3.422   6.081   9.052  0.2103  1.8980  0.0137
13059SOL    HW240855   3.402   5.976   9.158  1.8247 -0.1561 -1.6792
13060SOL     OW40856   7.108   7.805   3.111  0.3778 -0.1573  0.7859
13060SOL    HW140857   7.094   7.889   3.155  2.1933  0.6778 -0.1536
13060SOL    HW240858   7.068   7.816   3.025 -0.2698 -0.6132  1.0305
13061SOL     OW40859   5.019   3.804   1.456 -0.2403 -0.0257  0.0652
13061SOL    HW140860   5.113   3.801   1.441 -0.3255 -0.0341 -0.4645
13061SOL    HW240861   4.996   3.897   1.446 -0.1074  0.1476  1.2928
13062SOL     OW40862   7.592   2.188   4.553  0.3964  0.3617  0.2540
13062SOL    HW140863   7.573   2.188   4.647 -2.5400 -1.2525 -0.2896
13062SOL    HW240864   7.612   2.097   4.533  2.5229  0.9535 -0.4364
13063SOL     OW40865   0.082   6.400   0.493  0.4236 -0.1196 -0.0577
13063SOL    HW140866   0.014   6.467   0.501 -1.1428 -1.6084 -0.8251
13063SOL    HW240867   0.152   6.444   0.443 -0.4965  1.0117 -0.3820
13064SOL     OW40868   3.291   6.896   5.485 -0.7072 -0.1554  0.0173
13064SOL    HW140869   3.270   6.951   5.409 -0.2733  0.4152  0.3095
13064SOL    HW240870   3.318   6.958   5.553  0.8540 -0.8080  0.0011
13065SOL     OW40871   2.602   3.229   3.885 -0.0025  0.7765 -0.4727
13065SOL    HW140872   2.508   3.209   3.883  0.0807  0.4597 -2.0150
13065SOL    HW240873   2.626   3.237   3.793  1.5570  0.5470 -0.0903
13066SOL     OW40874   2.602   3.190   4.865  0.3978  0.0390  0.7327
13066SOL    HW140875   2.622   3.117   4.806  1.7472  1.1897 -0.2869
13066SOL    HW240876   2.681   3.245   4.862 -0.7364  1.7393  1.1599
13067SOL     OW40877   2.467   8.102   8.495  0.1579  0.1189  0.1926
13067SOL    HW140878   2.453   8.114   8.401  0.6666 -1.0888 -0.0538
13067SOL    HW240879   2.559   8.124   8.509  1.0501 -3.1191 -0.2354
13068SOL     OW40880   5.946   7.701   0.768 -0.2003  0.9805 -0.5034
13068SOL    HW140881   5.914   7.613   0.786  0.3292  1.0328  0.7994
13068SOL    HW240882   6.002   7.691   0.691  2.9714 -0.5836  1.8628
13069SOL     OW40883   7.982   1.316   7.667  0.0087 -0.1072 -0.7384
13069SOL    HW140884   8.071   1.349   7.665 -0.1027  0.3190  0.6775
13069SOL    HW240885   7.927   1.392   7.647 -0.1967  0.3967  1.5993
13070SOL     OW40886   0.325   8.330   2.075  0.6464  0.2094 -0.0584
13070SOL    HW140887   0.417   8.340   2.049  0.3215  0.6617 -1.0149
13070SOL    HW240888   0.279   8.310   1.994 -0.1132  0.0335  0.4159
13071SOL     OW40889   2.494   1.888   0.023  0.5641 -0.1075 -0.4171
13071SOL    HW140890   2.529   1.965  -0.022  0.3379  0.0064 -0.4038
13071SOL    HW240891   2.427   1.855  -0.037 -0.3205  0.5333  0.2014
13072SOL     OW40892   0.259   9.015   0.560  0.5835  0.1213 -0.0898
13072SOL    HW140893   0.274   9.103   0.525 -0.5109 -0.2427 -1.5435
13072SOL    HW240894   0.164   9.011   0.573  0.8596 -0.0679  2.1503
13073SOL     OW40895   2.161   5.906   5.417  0.3514  0.1162 -0.1864
13073SOL    HW140896   2.077   5.893   5.372  0.7119 -2.0517 -0.2610
13073SOL    HW240897   2.197   5.986   5.379 -0.3583 -0.5089 -2.1951
13074SOL     OW40898   6.640   8.075   3.283 -0.0918 -0.1817  0.0003
13074SOL    HW140899   6.580   8.022   3.229 -1.3675  0.4951  0.7284
13074SOL    HW240900   6.718   8.021   3.292 -0.2609 -0.7460 -1.6647
13075SOL     OW40901   7.175   3.267   3.344  0.0817 -0.1287  0.3305
13075SOL    HW140902   7.146   3.177   3.329 -0.8060 -0.0322  1.3480
13075SOL    HW240903   7.111   3.321   3.298  0.8144 -0.0259 -0.5729
13076SOL     OW40904   8.518   3.022   2.427 -0.1249  0.0867  0.1486
13076SOL    HW140905   8.544   3.114   2.431  1.3339 -0.3089  0.0062
13076SOL    HW240906   8.524   3.000   2.334  0.9257 -0.5421  0.3631
13077SOL     OW40907   3.927   2.653   4.957  0.1751  0.5399 -0.1989
13077SOL    HW140908   3.945   2.662   5.050  1.0937 -0.0882 -0.3056
13077SOL    HW240909   4.001   2.603   4.923  0.5101  1.8827 -1.5070
13078SOL     OW40910   5.670   8.597   4.988  0.1854  0.0610  0.4521
13078SOL    HW140911   5.619   8.610   5.068 -0.9685  0.5741 -0.3593
13078SOL    HW240912   5.637   8.663   4.927  0.2556 -1.0771 -0.8406
13079SOL     OW40913   9.006   8.179   3.765  0.2127  0.5942 -0.3290
13079SOL    HW140914   9.017   8.101   3.818 -1.1610  1.2209  0.9022
13079SOL    HW240915   9.095   8.212   3.752  0.9226 -1.8290 -1.9201
13080SOL     OW40916   0.667   7.560   7.580  0.5025  0.0349  0.0011
13080SOL    HW140917   0.596   7.609   7.622  1.4326  0.6174  0.9123
13080SOL    HW240918   0.631   7.472   7.568 -0.8172  0.6566 -0.7150
13081SOL     OW40919   4.288   0.844   6.176  0.5035  0.0990 -0.1780
13081SOL    HW140920   4.291   0.829   6.082 -0.2664 -1.5874  0.0510
13081SOL    HW240921   4.374   0.814   6.207 -0.0026 -1.3141 -0.0910
13082SOL     OW40922   2.960   0.669   2.617  0.2310 -0.1290  0.0004
13082SOL    HW140923   2.970   0.574   2.613 -1.2865 -0.2997 -0.4145
13082SOL    HW240924   2.879   0.683   2.666  1.0450  1.0016  1.0617
13083SOL     OW40925   1.924   4.690   8.667  0.0493  0.3539 -0.3695
13083SOL    HW140926   1.904   4.636   8.744 -0.8485  1.1477 -0.0488
13083SOL    HW240927   1.840   4.723   8.638  0.5005  0.8507 -1.1228
13084SOL     OW40928   4.505   3.450   3.571 -0.7647  0.3760  0.0467
13084SOL    HW140929   4.433   3.504   3.539 -2.6074 -1.2202  1.3411
13084SOL    HW240930   4.504   3.463   3.666 -0.5277 -1.0699  0.2610
13085SOL     OW40931   7.677   0.858   5.297 -0.5204  0.4023  0.1518
13085SOL    HW140932   7.726   0.776   5.298  0.4157  0.9256 -1.1690
13085SOL    HW240933   7.587   0.831   5.279 -0.0733 -0.2810 -1.1523
13086SOL     OW40934   6.933   6.789   3.600  0.1737  0.3389 -0.6840
13086SOL    HW140935   6.885   6.868   3.626 -0.6284  0.1234 -1.5179
13086SOL    HW240936   6.974   6.813   3.517  0.2732  0.0126 -0.7293
13087SOL     OW40937   3.215   6.778   3.679 -0.4839  0.5566  0.3541
13087SOL    HW140938   3.218   6.717   3.606 -0.3977 -0.7563  1.4254
13087SOL    HW240939   3.307   6.792   3.701 -0.4880  1.4106 -0.1559
13088SOL     OW40940   5.478   8.992   5.657  0.3095  0.2650 -0.8235
13088SOL    HW140941   5.535   8.938   5.711  0.9451 -0.7846 -2.5178
13088SOL    HW240942   5.535   9.060   5.622 -0.3510  1.6669  0.7685
13089SOL     OW40943   2.613   5.877   3.241  0.5031  0.5030  0.1170
13089SOL    HW140944   2.618   5.972   3.239 -0.3828  0.5416 -0.4900
13089SOL    HW240945   2.626   5.854   3.333 -0.2142  1.2682  0.4165
13090SOL     OW40946   1.200   2.228   7.886  0.2882 -0.1454 -0.2462
13090SOL    HW140947   1.150   2.172   7.826  0.4239  1.5806 -2.0360
13090SOL    HW240948   1.290   2.195   7.879  0.1487 -0.5219 -0.3041
13091SOL     OW40949   8.140   2.153   1.192  0.1756 -0.2691 -0.0434
13091SOL    HW140950   8.076   2.155   1.121  0.6884  1.5913 -0.4650
13091SOL    HW240951   8.225   2.162   1.148  0.6153 -0.8565  0.6711
13092SOL     OW40952   6.486   4.978   7.603  0.2371  0.5157 -0.6442
13092SOL    HW140953   6.555   4.913   7.596 -0.3027 -0.0658 -0.6367
13092SOL    HW240954   6.457   4.973   7.694 -0.0314  0.5276 -0.7268
13093SOL     OW40955   4.365   1.160   6.965 -0.0425  0.0781  0.6334
13093SOL    HW140956   4.360   1.125   7.054 -0.6025  0.8056  0.8866
13093SOL    HW240957   4.450   1.203   6.961 -0.1817  0.3813  0.9391
13094SOL     OW40958   2.750   3.833   5.667  0.2387 -0.1058 -0.1070
13094SOL    HW140959   2.705   3.761   5.712 -0.5811 -0.4592 -1.4755
13094SOL    HW240960   2.712   3.912   5.705  1.7969 -0.3541  2.0754
13095SOL     OW40961   6.279   9.091   5.712 -0.5996 -0.1910  0.2114
13095SOL    HW140962   6.250   9.002   5.693  0.1242 -0.4025  0.0862
13095SOL    HW240963   6.371   9.093   5.683 -0.3303  0.3160  1.0960
13096SOL     OW40964   0.946   8.908   5.541 -0.3889  0.2081  0.5973
13096SOL    HW140965   0.876   8.941   5.485 -2.7000 -0.7676  2.8114
13096SOL    HW240966   0.995   8.986   5.566  0.5240  0.6974 -2.4697
13097SOL     OW40967   1.026   8.424   2.797 -0.2642 -0.3507 -0.7971
13097SOL    HW140968   1.102   8.467   2.758 -0.3814 -0.1224 -0.7735
13097SOL    HW240969   0.984   8.492   2.850 -0.9528 -0.2458 -1.4664
13098SOL     OW40970   6.269   0.869   6.775 -0.0031 -0.3697  1.2206
13098SOL    HW140971   6.205   0.889   6.843 -0.6726  0.3919  0.3837
13098SOL    HW240972   6.229   0.902   6.695  1.2000 -0.3866  0.6089
13099SOL     OW40973   3.094   2.541   4.765  0.1264 -0.5827 -0.4895
13099SOL    HW140974   3.030   2.502   4.825 -0.3639 -2.5322 -2.1998
13099SOL    HW240975   3.053   2.623   4.737  0.5636  0.5719  2.1360
13100SOL     OW40976   4.592   4.944   6.790 -0.4222 -0.0798  0.7851
13100SOL    HW140977   4.638   4.869   6.829  0.1988 -0.3478 -0.4309
13100SOL    HW240978   4.612   5.017   6.849  0.7393 -0.4147  0.8307
13101SOL     OW40979   1.741   1.828   1.342 -0.3352 -0.1203  0.1622
13101SOL    HW140980   1.692   1.746   1.350 -0.5646  0.0457  0.4293
13101SOL    HW240981   1.777   1.826   1.253 -1.1650 -0.0415 -0.1710
13102SOL     OW40982   0.935   4.493   8.975  0.1573  0.0005  0.2140
13102SOL    HW140983   0.898   4.575   8.942 -0.4377 -0.3621 -0.0264
13102SOL    HW240984   1.025   4.516   9.001 -0.6193  1.1887  1.9748
13103SOL     OW40985   1.147   8.989   0.739 -0.1776  0.2910  0.0912
13103SOL    HW140986   1.235   9.026   0.745 -0.0577 -0.1578  1.1106
13103SOL    HW240987   1.149   8.912   0.796 -1.3762  0.5596  0.5009
13104SOL     OW40988   2.750   7.548   3.861 -0.4331  0.2640  0.1812
13104SOL    HW140989   2.674   7.496   3.837  0.4024 -0.9446  0.0967
13104SOL    HW240990   2.794   7.567   3.778  0.3391 -0.5969  0.3831
13105SOL     OW40991   3.942   7.959   1.490  0.3127  0.5579  0.3263
13105SOL    HW140992   4.014   7.906   1.455  1.7652  0.4841  3.2906
13105SOL    HW240993   3.907   7.907   1.562 -1.8369  1.2388 -0.1987
13106SOL     OW40994   5.813   4.021   5.749  0.3313  1.4433  0.0209
13106SOL    HW140995   5.767   4.014   5.833  0.4976 -0.0878  0.0027
13106SOL    HW240996   5.892   4.070   5.769  0.8016  0.3404  0.9562
13107SOL     OW40997   7.850   1.556   2.810  0.5812  0.2633  0.3833
13107SOL    HW140998   7.918   1.587   2.750  0.1221 -0.8439 -0.7410
13107SOL    HW240999   7.840   1.626   2.873  1.2044  1.3909 -0.7473
13108SOL     OW41000   2.728   8.920   4.817 -0.5879 -0.0750  0.1318
13108SOL    HW141001   2.781   8.869   4.756 -1.2776 -0.2186 -0.3576
13108SOL    HW241002   2.716   8.862   4.893 -0.7501 -0.3650 -0.1122
13109SOL     OW41003   1.958   5.975   4.369 -0.3055  0.2047  0.1376
13109SOL    HW141004   2.008   5.920   4.429  1.4234  1.7031  0.1185
13109SOL    HW241005   2.019   5.992   4.297 -2.1940 -1.2188 -1.8821
13110SOL     OW41006   5.757   6.505   6.654 -0.0714  0.0428 -0.3306
13110SOL    HW141007   5.841   6.492   6.611 -0.5689  1.2372 -1.6717
13110SOL    HW241008   5.720   6.583   6.613 -1.2969  0.2352  1.0916
13111SOL     OW41009   0.623   5.452   8.178 -0.0575 -0.3929  0.3907
13111SOL    HW141010   0.621   5.537   8.223 -1.1495  0.3705 -1.0809
13111SOL    HW241011   0.568   5.396   8.232 -1.0149  0.3984  0.2503
13112SOL     OW41012   4.967   0.664   4.017  0.2065 -0.5754 -0.1362
13112SOL    HW141013   4.970   0.662   3.921 -0.0516 -0.3064 -0.1527
13112SOL    HW241014   4.943   0.755   4.037  1.0732 -0.4196  0.2034
13113SOL     OW41015   4.191   8.268   6.573  0.1180  0.0025  0.2934
13113SOL    HW141016   4.106   8.234   6.547 -0.1739  0.8681  0.0865
13113SOL    HW241017   4.190   8.266   6.669 -1.7670  3.8409  0.4514
13114SOL     OW41018   1.411   4.000   1.650 -0.5904  0.0636 -0.3040
13114SOL    HW141019   1.401   3.905   1.648 -1.7144  0.2117 -2.3189
13114SOL    HW241020   1.323   4.034   1.668 -0.6930  0.8040 -2.1454
13115SOL     OW41021   8.728   5.468   5.526  0.1060 -0.1188  0.5731
13115SOL    HW141022   8.638   5.494   5.506  1.1596  1.6273 -2.2920
13115SOL    HW241023   8.748   5.513   5.608 -1.2451  0.4482  0.6121
13116SOL     OW41024   7.181   0.543   0.569  0.5984 -0.0815  0.1317
13116SOL    HW141025   7.124   0.594   0.511  0.5022  0.0606  0.3519
13116SOL    HW241026   7.155   0.570   0.657 -0.4897 -1.6027  0.3050
13117SOL     OW41027   4.383   7.105   3.673 -0.1311 -0.0400  0.1583
13117SOL    HW141028   4.437   7.070   3.602  1.2706  0.3022  1.0356
13117SOL    HW241029   4.384   7.200   3.659 -0.6459 -0.0424  0.0875
13118SOL     OW41030   5.501   4.796   0.709  0.3071 -0.4606 -0.2711
13118SOL    HW141031   5.593   4.808   0.734  0.6909 -0.7294 -1.5167
13118SOL    HW241032   5.452   4.837   0.780  1.4501  2.2303 -0.9515
13119SOL     OW41033   7.009   4.309   5.078 -0.0555  0.3644  0.7241
13119SOL    HW141034   6.915   4.293   5.066  0.0823  0.4936 -0.5332
13119SOL    HW241035   7.048   4.289   4.993  1.2106 -0.7778  1.5547
13120SOL     OW41036   1.507   2.573   8.987 -0.0440 -0.1220  0.1245
13120SOL    HW141037   1.501   2.490   8.939 -2.0022 -0.8278  1.5254
13120SOL    HW241038   1.436   2.626   8.952 -1.4082 -0.5941  2.0996
13121SOL     OW41039   1.070   4.312   8.830  0.1349 -0.1971 -0.2173
13121SOL    HW141040   1.036   4.390   8.874 -0.5104  0.0857 -1.2000
13121SOL    HW241041   1.155   4.339   8.796  0.9745 -0.6385  1.4745
13122SOL     OW41042   2.237   4.467   6.249  0.0813 -0.1185 -0.4639
13122SOL    HW141043   2.166   4.509   6.201  1.0379  2.1831  0.0712
13122SOL    HW241044   2.316   4.493   6.203  0.6790 -1.7058 -0.3620
13123SOL     OW41045   0.694   6.683   0.997 -0.0041  0.1607  0.5640
13123SOL    HW141046   0.742   6.742   1.056 -0.4377  0.8201  0.2675
13123SOL    HW241047   0.674   6.737   0.921  1.4374 -0.9617 -0.6602
13124SOL     OW41048   4.866   5.986   8.211  0.1697 -0.1823 -0.1708
13124SOL    HW141049   4.873   6.073   8.172 -2.4787  0.6374  1.1202
13124SOL    HW241050   4.828   5.931   8.142 -0.3567  0.2342 -0.2146
13125SOL     OW41051   5.467   3.766   1.186  0.1166  0.1501 -0.4158
13125SOL    HW141052   5.447   3.857   1.209  1.6500  0.4168 -0.0395
13125SOL    HW241053   5.557   3.753   1.218  1.6192 -0.0599 -4.4676
13126SOL     OW41054   1.027   7.158   3.457 -0.1882 -0.7292  0.1134
13126SOL    HW141055   1.082   7.228   3.490 -0.4954 -0.9228  1.0435
13126SOL    HW241056   1.083   7.109   3.397 -0.0686  0.4862 -0.7809
13127SOL     OW41057   1.462   7.008   7.929 -0.4331 -0.3403 -0.1882
13127SOL    HW141058   1.368   7.013   7.946 -0.4285  1.5743 -0.5924
13127SOL    HW241059   1.469   6.974   7.840 -0.7612 -0.1342 -0.2946
13128SOL     OW41060   5.454   5.680   0.870  0.2729 -0.0139 -0.0170
13128SOL    HW141061   5.364   5.704   0.846 -0.0570 -0.5934  0.6156
13128SOL    HW241062   5.508   5.751   0.835 -0.3672  0.0116 -0.9706
13129SOL     OW41063   8.576   7.731   0.521  0.4072 -0.3566  0.0386
13129SOL    HW141064   8.612   7.819   0.525  1.5714 -0.8044 -0.3136
13129SOL    HW241065   8.509   7.735   0.454 -1.3858  0.8940  1.8428
13130SOL     OW41066   1.017   1.979   5.880 -0.1006  0.0431 -0.4648
13130SOL    HW141067   0.945   1.919   5.899  0.0272 -0.1344 -0.5430
13130SOL    HW241068   1.008   2.048   5.946 -0.9084  0.5134 -1.0496
13131SOL     OW41069   8.141   8.592   6.455  0.3137  0.1173 -0.1587
13131SOL    HW141070   8.226   8.591   6.410  0.4392 -0.3866  0.0833
13131SOL    HW241071   8.085   8.535   6.402  0.4063 -0.3219  0.2165
13132SOL     OW41072   1.376   1.632   4.414  0.7335 -0.5147 -0.4107
13132SOL    HW141073   1.372   1.553   4.467  0.5810  0.1020  0.4984
13132SOL    HW241074   1.291   1.673   4.426  0.3646 -0.8283 -1.8516
13133SOL     OW41075   3.417   6.257   5.521  0.2413  0.3451  0.2326
13133SOL    HW141076   3.491   6.284   5.465 -1.1256  0.2598 -1.6473
13133SOL    HW241077   3.429   6.163   5.533 -0.6183 -0.0321 -1.7048
13134SOL     OW41078   5.305   3.504   4.190 -0.2996 -0.0083  0.2952
13134SOL    HW141079   5.343   3.488   4.276 -0.7454  2.1505  0.9300
13134SOL    HW241080   5.332   3.429   4.137  0.8137 -0.8638  2.0424
13135SOL     OW41081   5.588   5.067   8.926 -0.1027 -0.1763  0.6540
13135SOL    HW141082   5.523   5.137   8.922  0.6376  0.5656  1.6206
13135SOL    HW241083   5.553   4.999   8.868 -0.6191  1.1550 -0.6380
13136SOL     OW41084   8.567   1.044   1.708  0.4657 -0.2257 -0.4117
13136SOL    HW141085   8.643   1.093   1.674  1.3545 -1.3243 -0.0328
13136SOL    HW241086   8.559   0.969   1.648  1.4708 -1.6737  1.2072
13137SOL     OW41087   0.234   5.120   1.890  0.0513  0.3710 -1.4126
13137SOL    HW141088   0.304   5.114   1.824  0.6312  0.9445 -0.8567
13137SOL    HW241089   0.160   5.073   1.851  1.1259 -1.2936 -1.5182
13138SOL     OW41090   8.423   5.285   1.564 -0.3944 -0.6694  0.0318
13138SOL    HW141091   8.486   5.217   1.541 -1.4645 -1.9535  0.8006
13138SOL    HW241092   8.371   5.297   1.484 -0.1862 -0.7370 -0.1142
13139SOL     OW41093   0.729   3.912   7.933 -0.4973  0.3591  0.0520
13139SOL    HW141094   0.725   4.000   7.971  1.6685  0.4508  0.1161
13139SOL    HW241095   0.684   3.857   7.997 -1.2130  1.3073  0.3766
13140SOL     OW41096   1.260   4.515   8.762  0.4298  0.0656  0.2426
13140SOL    HW141097   1.207   4.585   8.802  0.5401 -0.0400  0.5777
13140SOL    HW241098   1.328   4.562   8.713  0.4978  0.1936  0.4584
13141SOL     OW41099   3.441   4.212   1.546  0.5980 -0.5504  0.4580
13141SOL    HW141100   3.443   4.304   1.518  0.6952 -0.5138  0.5856
13141SOL    HW241101   3.529   4.179   1.527 -0.3063 -1.4667 -2.4786
13142SOL     OW41102   5.351   6.075   4.856 -0.3584  0.0494  0.0428
13142SOL    HW141103   5.345   5.980   4.842 -0.1714  0.3230 -1.9841
13142SOL    HW241104   5.396   6.084   4.940  3.0742 -1.6152 -1.5351
13143SOL     OW41105   5.836   9.122   3.368 -0.1593 -0.0964 -0.0115
13143SOL    HW141106   5.783   9.069   3.309 -0.6224 -1.3879  1.5300
13143SOL    HW241107   5.908   9.065   3.394 -0.0879  0.3829  0.8531
13144SOL     OW41108   5.746   7.330   9.263  0.1516 -0.5862  0.3568
13144SOL    HW141109   5.799   7.403   9.231  1.6482 -1.2055  1.3720
13144SOL    HW241110   5.683   7.313   9.193  2.7031 -1.2518 -1.8233
13145SOL     OW41111   4.595   7.940   1.276  0.3278  0.2450 -0.4292
13145SOL    HW141112   4.562   7.851   1.279  0.4517  0.1365 -1.6637
13145SOL    HW241113   4.584   7.974   1.365 -0.6075 -0.6748 -0.1858
13146SOL     OW41114   3.332   4.792   7.527  0.4788 -0.2292 -0.4171
13146SOL    HW141115   3.422   4.763   7.541  0.3730 -0.1394  0.4493
13146SOL    HW241116   3.335   4.836   7.442  0.8779 -1.7687 -1.2120
13147SOL     OW41117   8.975   8.795   9.065 -0.8292  0.1171 -0.2964
13147SOL    HW141118   8.939   8.830   9.147 -0.0287  0.0936  0.0768
13147SOL    HW241119   9.058   8.756   9.091  0.4593  1.9709 -1.4651
13148SOL     OW41120   3.887   5.977   5.666 -0.0276  0.3626  0.8121
13148SOL    HW141121   3.897   6.070   5.650  2.4467  0.2658  1.6409
13148SOL    HW241122   3.958   5.936   5.617 -1.4527 -1.1469 -0.0301
13149SOL     OW41123   7.532   1.904   4.619  0.0091 -0.1542 -0.1410
13149SOL    HW141124   7.438   1.906   4.599  0.0646  0.1564 -0.3793
13149SOL    HW241125   7.537   1.922   4.713 -0.0992  1.1192 -0.3680
13150SOL     OW41126   2.208   4.949   5.405  0.7212 -0.3506  0.7478
13150SOL    HW141127   2.188   4.867   5.360 -0.4967  0.8868 -1.0650
13150SOL    HW241128   2.289   4.979   5.364  1.2092 -0.6924  1.4657
13151SOL     OW41129   2.909   4.098   3.127  0.5031  0.4221 -0.8027
13151SOL    HW141130   2.898   4.130   3.037 -0.2667 -0.4869 -1.0415
13151SOL    HW241131   2.993   4.053   3.126  0.7372  0.8558 -0.9350
13152SOL     OW41132   8.321   1.806   7.766 -1.0251 -0.1030  0.0415
13152SOL    HW141133   8.233   1.771   7.758 -0.8400 -0.9015  1.4045
13152SOL    HW241134   8.314   1.874   7.832 -0.4105 -0.8923  0.9252
13153SOL     OW41135   5.604   3.366   0.568 -0.1855 -0.5067  0.1348
13153SOL    HW141136   5.522   3.393   0.527 -0.2732  0.4910  0.9226
13153SOL    HW241137   5.637   3.295   0.513  0.1747  1.3941 -2.2114
13154SOL     OW41138   8.995   2.301   2.502 -0.0886  0.6021  0.3185
13154SOL    HW141139   9.066   2.330   2.559 -0.2179 -2.2965  2.0868
13154SOL    HW241140   8.916   2.339   2.540  0.3493  2.8658 -0.9666
13155SOL     OW41141   7.495   4.396   3.476 -0.3882  1.0782 -0.1118
13155SOL    HW141142   7.516   4.311   3.516 -0.5291  1.5505  0.9841
13155SOL    HW241143   7.414   4.424   3.519 -0.5276  1.6167 -0.7082
13156SOL     OW41144   4.664   8.489   2.556 -0.1608  0.0220 -0.7497
13156SOL    HW141145   4.711   8.534   2.486  2.3012 -0.5715  0.4570
13156SOL    HW241146   4.573   8.488   2.527  0.4409  1.8388 -2.8435
13157SOL     OW41147   3.206   2.288   0.089  0.1096  0.2771 -0.3720
13157SOL    HW141148   3.176   2.378   0.081 -0.6162  0.0570 -0.2145
13157SOL    HW241149   3.193   2.266   0.181 -0.1367 -0.1248 -0.4970
13158SOL     OW41150   0.675   3.710   4.626 -0.1490  0.2856  0.3897
13158SOL    HW141151   0.587   3.685   4.655 -0.3151  1.3370  0.7940
13158SOL    HW241152   0.733   3.643   4.665 -0.7200 -0.1726  0.4576
13159SOL     OW41153   6.239   6.943   8.219  0.2620 -0.1860 -0.0319
13159SOL    HW141154   6.227   6.970   8.311 -0.0277  0.0208 -0.1282
13159SOL    HW241155   6.324   6.980   8.195  0.4127 -0.3792  0.2046
13160SOL     OW41156   8.938   2.900   2.955  0.2152  0.0990  0.0229
13160SOL    HW141157   8.929   2.923   2.862  0.1092 -0.9801 -0.2445
13160SOL    HW241158   8.859   2.850   2.975  0.9796 -1.0141  0.2733
13161SOL     OW41159   2.613   8.095   2.032 -0.1365  0.2822 -0.1520
13161SOL    HW141160   2.689   8.060   1.985  0.0467  0.6421 -0.1252
13161SOL    HW241161   2.583   8.168   1.978 -0.2282  0.3842  0.0377
13162SOL     OW41162   1.904   2.611   0.818  0.6482 -0.4473  0.1972
13162SOL    HW141163   1.871   2.543   0.878  0.2275 -0.1893  0.2588
13162SOL    HW241164   1.859   2.691   0.845  1.5029 -0.0344  0.4383
13163SOL     OW41165   4.349   8.348   6.799 -0.2975 -0.5412 -0.1952
13163SOL    HW141166   4.430   8.393   6.819 -0.2986 -0.4440 -0.4105
13163SOL    HW241167   4.376   8.264   6.761 -0.3011 -0.2898 -0.7595
13164SOL     OW41168   6.810   1.108   1.719  0.2700  0.0010  0.3763
13164SOL    HW141169   6.901   1.136   1.727 -0.3990  1.6422  3.1014
13164SOL    HW241170   6.762   1.189   1.700 -0.6241 -0.9059 -1.4207
13165SOL     OW41171   3.690   4.684   1.722  0.1456 -0.0249 -0.1658
13165SOL    HW141172   3.640   4.724   1.794  1.0624 -2.3200  1.8211
13165SOL    HW241173   3.760   4.747   1.703 -0.8785  1.1998  0.0176
13166SOL     OW41174   6.781   7.896   6.054  0.4474  0.1598  0.2227
13166SOL    HW141175   6.726   7.823   6.024  0.5701  0.0453  0.2730
13166SOL    HW241176   6.865   7.881   6.010  0.3772  0.4430 -0.0032
13167SOL     OW41177   5.268   5.221   7.359 -0.4353  0.0578  0.3176
13167SOL    HW141178   5.258   5.167   7.438 -0.6313 -1.1850 -0.5522
13167SOL    HW241179   5.348   5.189   7.318  0.9344  2.2467  1.1913
13168SOL     OW41180   0.042   6.693   6.345 -0.5475 -0.2358  0.3445
13168SOL    HW141181   0.108   6.632   6.379  0.4691  0.4276 -0.4285
13168SOL    HW241182  -0.041   6.647   6.358  0.1843 -1.7162 -0.0588
13169SOL     OW41183   2.031   6.898   0.980  0.7362  0.4379 -0.1088
13169SOL    HW141184   2.039   6.992   0.964  0.1097  0.2775 -1.4792
13169SOL    HW241185   2.085   6.858   0.913 -1.4490 -0.2505 -1.5177
13170SOL     OW41186   3.335   0.092   7.773  0.1310  0.4990  0.1786
13170SOL    HW141187   3.333   0.053   7.860 -1.5328  0.2249  0.0206
13170SOL    HW241188   3.270   0.043   7.722 -1.7305  3.1696 -0.1314
13171SOL     OW41189   2.971   6.760   6.158 -0.2274  0.3100  0.0235
13171SOL    HW141190   3.048   6.730   6.109  0.0769 -0.8002  1.1489
13171SOL    HW241191   2.998   6.842   6.199  0.2118  0.1547  0.0468
13172SOL     OW41192   0.544   3.074   1.331  0.1972  0.1802  0.4516
13172SOL    HW141193   0.467   3.084   1.387 -1.1251 -0.7083 -1.1580
13172SOL    HW241194   0.549   3.156   1.281 -0.9919 -0.5803 -0.9678
13173SOL     OW41195   4.087   5.580   6.412 -0.5984 -0.4133 -0.2038
13173SOL    HW141196   4.069   5.489   6.435 -0.8250 -0.0759  0.9927
13173SOL    HW241197   4.114   5.621   6.494  1.1929  0.1968 -1.0568
13174SOL     OW41198   0.545   5.941   3.675 -0.2957  0.2221  0.2058
13174SOL    HW141199   0.528   5.896   3.757  0.4440  0.9992  0.8008
13174SOL    HW241200   0.466   5.992   3.658 -1.4802 -1.8995 -0.9087
13175SOL     OW41201   7.239   7.237   6.186  0.0253 -0.3539 -0.4433
13175SOL    HW141202   7.254   7.173   6.255 -0.3555 -1.4788 -1.3904
13175SOL    HW241203   7.299   7.211   6.116  0.1538  0.5577 -0.6798
13176SOL     OW41204   1.961   4.820   0.799  0.1812  1.1140  0.2021
13176SOL    HW141205   1.903   4.795   0.871 -1.1103  2.1176 -0.4546
13176SOL    HW241206   1.901   4.849   0.729  1.3207 -1.3627 -1.8957
13177SOL     OW41207   8.635   5.841   2.882 -0.1774 -0.1708  0.1558
13177SOL    HW141208   8.663   5.901   2.813  3.0637 -0.6132  0.9806
13177SOL    HW241209   8.640   5.755   2.842 -0.8576 -0.2283  0.1880
13178SOL     OW41210   6.777   9.249   4.572 -0.1575  0.0020  0.4558
13178SOL    HW141211   6.852   9.205   4.532 -1.4427 -1.4203 -0.4131
13178SOL    HW241212   6.815   9.325   4.616  1.5809  0.2688 -1.4353
13179SOL     OW41213   2.351   2.800   2.987 -0.3326  0.1654  0.1488
13179SOL    HW141214   2.260   2.826   2.997  0.2917  2.0996  0.9961
13179SOL    HW241215   2.347   2.706   2.968 -2.4577  0.1294  0.6329
13180SOL     OW41216   4.960   2.091   5.790 -0.7776 -0.4810 -0.1071
13180SOL    HW141217   5.036   2.042   5.760 -1.5982 -1.8599  0.0171
13180SOL    HW241218   4.996   2.166   5.837  0.4911 -0.9648 -0.2920
13181SOL     OW41219   0.475   4.602   3.098 -0.3579 -0.5518 -0.4234
13181SOL    HW141220   0.534   4.531   3.126 -3.2821 -2.9711 -0.2078
13181SOL    HW241221   0.406   4.558   3.049 -1.8400  2.2660 -0.9577
13182SOL     OW41222   8.132   4.052   0.458 -0.0591  0.0483 -0.0253
13182SOL    HW141223   8.040   4.078   0.453 -0.1586 -0.1211  0.7749
13182SOL    HW241224   8.180   4.120   0.410 -0.7671 -0.8004 -1.9521
13183SOL     OW41225   0.063   4.534   4.491  0.1728  0.1041 -0.3129
13183SOL    HW141226   0.054   4.476   4.567  1.2419 -1.1811 -1.1446
13183SOL    HW241227   0.157   4.533   4.472 -0.1091  0.2960 -1.7420
13184SOL     OW41228   3.410   3.290   2.301  0.5820  0.2762  0.2138
13184SOL    HW141229   3.376   3.200   2.308  0.5297  0.2842  0.0622
13184SOL    HW241230   3.504   3.281   2.315  0.5692  0.2055  0.2601
13185SOL     OW41231   1.428   8.170   4.162 -0.0733 -0.1562  0.1787
13185SOL    HW141232   1.424   8.119   4.243 -2.6091  0.0064  0.1951
13185SOL    HW241233   1.429   8.261   4.191  2.2694 -0.1180  0.0843
13186SOL     OW41234   9.017   1.035   3.005 -0.2705 -0.0717 -0.0289
13186SOL    HW141235   9.080   1.107   2.999 -0.7852  0.3258 -0.8633
13186SOL    HW241236   9.058   0.970   3.062  0.0387  1.0469  1.0312
13187SOL     OW41237   2.496   9.208   2.590  0.0359 -0.0066  0.1678
13187SOL    HW141238   2.458   9.120   2.587  0.4033 -0.1265 -1.4608
13187SOL    HW241239   2.499   9.230   2.683 -1.2489 -1.2032  0.5070
13188SOL     OW41240   2.706   8.809   5.089 -0.3569 -0.7118 -0.1122
13188SOL    HW141241   2.744   8.852   5.166  0.3634 -0.7021 -0.4643
13188SOL    HW241242   2.645   8.744   5.126  1.0476 -1.7087  0.5354
13189SOL     OW41243   6.325   3.428   4.679 -0.0604  0.4179 -0.5898
13189SOL    HW141244   6.303   3.445   4.587 -0.1011 -0.4016 -0.7314
13189SOL    HW241245   6.352   3.337   4.681 -1.6485 -0.0512  0.4980
13190SOL     OW41246   3.254   0.672   1.281  0.7511 -0.1459  0.0875
13190SOL    HW141247   3.216   0.676   1.193  0.0842  1.1291  0.4282
13190SOL    HW241248   3.245   0.761   1.316 -0.7191 -1.0723  2.1564
13191SOL     OW41249   1.573   8.924   4.216  0.1004 -0.0269 -0.2629
13191SOL    HW141250   1.523   8.936   4.297  2.8658 -0.9162  1.7002
13191SOL    HW241251   1.514   8.877   4.158 -0.4015 -3.8553  3.0695
13192SOL     OW41252   1.201   1.597   9.073  0.3792  0.3123 -0.4365
13192SOL    HW141253   1.279   1.541   9.071  0.0772 -0.1040 -0.7294
13192SOL    HW241254   1.149   1.568   8.999  0.1142  0.8399 -0.4572
13193SOL     OW41255   1.074   2.849   3.839 -0.3413  0.0867 -0.2385
13193SOL    HW141256   1.136   2.797   3.890  2.2276  2.3201 -0.9303
13193SOL    HW241257   1.091   2.826   3.748 -0.1218  1.1089 -0.4679
13194SOL     OW41258   6.210   4.757   8.077  0.3966 -0.2863  0.1863
13194SOL    HW141259   6.169   4.691   8.132  2.8193 -2.3948 -0.4415
13194SOL    HW241260   6.137   4.803   8.036 -1.3513 -2.1769  1.1140
13195SOL     OW41261   7.153   5.629   6.643 -0.1550  0.6270  0.1715
13195SOL    HW141262   7.110   5.550   6.612  0.2239  0.3616  0.3203
13195SOL    HW241263   7.146   5.625   6.738 -0.5378  1.0007  0.1624
13196SOL     OW41264   8.854   2.291   3.553  0.6031  0.0300  0.1086
13196SOL    HW141265   8.934   2.244   3.531 -0.1722 -1.2690 -0.0123
13196SOL    HW241266   8.823   2.250   3.634 -0.7302 -0.5152 -0.6467
13197SOL     OW41267   2.803   1.943   7.944  0.5100  0.6252  0.3640
13197SOL    HW141268   2.873   1.977   7.999 -0.7450  0.9318  1.8178
13197SOL    HW241269   2.848   1.900   7.871  2.2423 -1.0605  2.3798
13198SOL     OW41270   3.075   3.870   8.149  0.0081 -0.0487  0.2419
13198SOL    HW141271   3.047   3.864   8.240 -1.9617 -0.4249 -0.3684
13198SOL    HW241272   3.096   3.963   8.137  0.8432 -0.1015  1.2334
13199SOL     OW41273   3.891   4.804   7.720 -0.0009 -0.3611 -0.0976
13199SOL    HW141274   3.940   4.735   7.764  1.6636  0.5045 -0.5603
13199SOL    HW241275   3.953   4.877   7.713 -1.7965  1.2951  0.6388
13200SOL     OW41276   9.120   5.225   1.536 -0.6791 -0.2279 -0.4495
13200SOL    HW141277   9.041   5.278   1.535 -0.3680  0.2651  0.3872
13200SOL    HW241278   9.091   5.138   1.510 -1.4385  0.0253 -0.4600
13201SOL     OW41279   5.915   1.478   2.987 -1.1678  0.1641 -0.7442
13201SOL    HW141280   5.845   1.414   2.998  0.9413 -1.7038  2.8575
13201SOL    HW241281   5.923   1.521   3.073  0.8460  1.6114 -1.6028
13202SOL     OW41282   8.128   2.313   5.749 -0.2333  1.1155  0.6004
13202SOL    HW141283   8.154   2.392   5.701 -0.5667 -0.3956 -2.1429
13202SOL    HW241284   8.210   2.279   5.785  0.2137  1.5310 -0.0214
13203SOL     OW41285   6.410   0.554   7.980  0.5668  0.0133  0.0759
13203SOL    HW141286   6.390   0.632   7.929 -0.3477 -0.9608 -1.0729
13203SOL    HW241287   6.325   0.513   7.996  1.0395 -0.7513  0.6778
13204SOL     OW41288   5.710   7.298   2.634  0.2678  0.3124  0.1755
13204SOL    HW141289   5.743   7.257   2.713  0.8702  0.9753  0.2828
13204SOL    HW241290   5.635   7.245   2.607  0.3937 -0.2217  0.8867
13205SOL     OW41291   1.743   5.176   0.264  0.3472  0.3768 -0.0901
13205SOL    HW141292   1.785   5.261   0.251 -1.3456  1.1123 -0.9564
13205SOL    HW241293   1.736   5.140   0.176 -0.1658 -0.0517  0.1242
13206SOL     OW41294   6.637   2.814   1.032  0.5776  0.2055  0.1235
13206SOL    HW141295   6.555   2.765   1.025  0.6718 -0.1939  1.7039
13206SOL    HW241296   6.704   2.746   1.043  1.1006  0.5450 -0.8435
13207SOL     OW41297   4.283   8.499   6.412 -0.1104  0.0339  0.5154
13207SOL    HW141298   4.229   8.576   6.395 -0.2137  0.0077  0.7351
13207SOL    HW241299   4.225   8.439   6.459 -0.1124 -0.2825  0.1163
13208SOL     OW41300   2.548   2.469   4.847 -0.3763 -0.3629 -0.1974
13208SOL    HW141301   2.573   2.562   4.851  0.4523 -0.6659  3.3804
13208SOL    HW241302   2.453   2.470   4.862 -0.6012 -0.0329 -1.5562
13209SOL     OW41303   8.739   7.276   4.285 -0.2852  0.3078 -0.1578
13209SOL    HW141304   8.748   7.182   4.303 -0.5668  0.4286  0.6264
13209SOL    HW241305   8.675   7.280   4.214  0.3248 -0.1333 -0.7453
13210SOL     OW41306   3.581   5.085   0.163 -0.0962 -0.2413 -0.4177
13210SOL    HW141307   3.664   5.044   0.186  0.1494  0.4693 -0.0107
13210SOL    HW241308   3.605   5.156   0.104 -0.4279 -0.1284 -0.4190
13211SOL     OW41309   1.108   4.137   2.084 -0.7233 -0.3396 -0.1721
13211SOL    HW141310   1.041   4.072   2.062  0.1652 -1.2192 -0.3503
13211SOL    HW241311   1.154   4.153   2.001 -0.6264  0.1547 -0.0245
13212SOL     OW41312   8.492   5.735   0.524  0.3572 -0.3274 -0.0417
13212SOL    HW141313   8.512   5.818   0.482 -0.3740  0.2499  0.7395
13212SOL    HW241314   8.398   5.737   0.540  0.3511 -1.2476  0.1175
13213SOL     OW41315   3.625   8.690   2.080  0.3230 -0.2822  0.3843
13213SOL    HW141316   3.676   8.611   2.062  0.4189 -0.2525  0.5230
13213SOL    HW241317   3.588   8.675   2.167  0.2488 -0.2230  0.3624
13214SOL     OW41318   5.421   9.216   0.667 -0.4026 -0.1414  0.1787
13214SOL    HW141319   5.446   9.139   0.616  1.4132  0.9727 -0.6800
13214SOL    HW241320   5.444   9.193   0.757 -1.3374 -1.1830  0.1603
13215SOL     OW41321   8.909   4.812   1.125  0.1010 -0.2672 -0.6494
13215SOL    HW141322   8.900   4.796   1.031  0.5386 -1.3945 -0.5114
13215SOL    HW241323   8.932   4.905   1.132 -0.0398 -0.1537 -1.6445
13216SOL     OW41324   4.481   6.003   3.883 -0.0079 -0.4172 -1.0854
13216SOL    HW141325   4.499   5.976   3.973  0.9400  0.0231 -1.1360
13216SOL    HW241326   4.388   5.982   3.870  0.0177 -1.1030 -0.2331
13217SOL     OW41327   5.615   5.441   3.558 -0.0117  0.0372  0.4660
13217SOL    HW141328   5.648   5.355   3.530  2.5307  1.3136 -0.6226
13217SOL    HW241329   5.690   5.482   3.602 -1.3514  1.5123  1.4439
13218SOL     OW41330   5.709   0.517   3.324  0.3653  0.4446 -0.2912
13218SOL    HW141331   5.768   0.447   3.350  0.1699  0.0445 -0.9182
13218SOL    HW241332   5.764   0.594   3.317  0.4138  0.5551  1.3186
13219SOL     OW41333   4.533   4.769   3.534 -0.3875 -0.4913 -0.4935
13219SOL    HW141334   4.531   4.697   3.597 -0.8765  1.0966  1.3541
13219SOL    HW241335   4.614   4.817   3.554 -0.7694  0.2900 -0.7659
13220SOL     OW41336   3.030   4.396   7.958 -0.2136 -0.2980  0.1988
13220SOL    HW141337   2.983   4.468   8.000  0.1200  0.9211 -1.4829
13220SOL    HW241338   3.079   4.437   7.887  1.2087 -1.9685  0.1855
13221SOL     OW41339   5.604   2.088   2.520  0.0900 -0.1354 -0.3296
13221SOL    HW141340   5.642   2.093   2.607  1.3480  1.3904 -0.9504
13221SOL    HW241341   5.590   2.179   2.494 -2.4194 -0.6098 -0.8118
13222SOL     OW41342   7.785   2.789   4.689 -0.1008 -0.9565  0.3834
13222SOL    HW141343   7.714   2.827   4.742 -1.7661 -1.4686 -1.3961
13222SOL    HW241344   7.824   2.864   4.645 -0.2640 -0.7808  0.5334
13223SOL     OW41345   3.940   1.291   7.658  0.4452 -0.3516 -0.0612
13223SOL    HW141346   4.022   1.241   7.657 -0.0158 -1.0952 -1.0666
13223SOL    HW241347   3.871   1.225   7.660 -0.1834  0.2149 -1.8750
13224SOL     OW41348   2.211   7.871   2.607 -0.4964  0.1806 -0.3510
13224SOL    HW141349   2.170   7.831   2.530  1.2380 -2.0242 -0.2007
13224SOL    HW241350   2.139   7.887   2.668 -1.5598 -0.4189 -1.4263
13225SOL     OW41351   7.205   3.644   3.010  0.1186  0.7736  0.2265
13225SOL    HW141352   7.171   3.618   3.096  0.8868 -0.3188  0.1981
13225SOL    HW241353   7.261   3.571   2.983 -0.0268  1.1668 -1.1490
13226SOL     OW41354   2.120   1.305   8.842  0.3710  0.5510 -0.4557
13226SOL    HW141355   2.121   1.373   8.775  1.0797  0.5213 -0.4769
13226SOL    HW241356   2.042   1.324   8.894  1.0622  1.9393  0.1067
13227SOL     OW41357   8.441   9.144   6.286  0.3189 -0.1591 -0.3473
13227SOL    HW141358   8.403   9.198   6.217 -0.4461 -1.6916 -1.1398
13227SOL    HW241359   8.505   9.202   6.328 -0.1194  1.2039 -1.4929
13228SOL     OW41360   5.424   4.575   6.772 -0.0174  0.4955 -0.4842
13228SOL    HW141361   5.437   4.669   6.786  0.2800  0.5733 -1.2740
13228SOL    HW241362   5.457   4.559   6.684 -1.7609 -0.0139 -1.0531
13229SOL     OW41363   4.012   4.078   8.357  0.0293  0.4009 -0.2571
13229SOL    HW141364   3.948   4.007   8.351  1.6164 -1.1101  0.1795
13229SOL    HW241365   4.017   4.114   8.269 -0.1540 -0.6206 -0.6922
13230SOL     OW41366   0.708   4.606   5.959  0.4214  0.0413 -0.3078
13230SOL    HW141367   0.699   4.647   6.045 -2.3373 -2.3460  0.6333
13230SOL    HW241368   0.798   4.626   5.932  0.7919  2.2673  2.3620
13231SOL     OW41369   7.941   3.758   1.151  0.2683  0.1110  0.4027
13231SOL    HW141370   7.987   3.840   1.135 -1.3541  0.8064 -0.8279
13231SOL    HW241371   8.005   3.690   1.130  0.9747  1.0511 -0.5173
13232SOL     OW41372   9.217   3.115   0.062  0.2662 -0.4556  0.0803
13232SOL    HW141373   9.148   3.089   0.123 -0.7185 -1.2866 -1.3602
13232SOL    HW241374   9.235   3.207   0.084 -2.1679  0.1370 -0.3338
13233SOL     OW41375   7.514   1.639   1.878  0.2035 -0.0852  0.3483
13233SOL    HW141376   7.506   1.732   1.857 -1.4893 -0.0869  0.8717
13233SOL    HW241377   7.435   1.620   1.930  1.4527 -1.3789  1.8176
13234SOL     OW41378   0.837   5.507   1.545 -0.1719 -0.2902  0.2264
13234SOL    HW141379   0.762   5.452   1.523 -1.2047  0.9234  0.6746
13234SOL    HW241380   0.817   5.591   1.504  1.6682 -0.3889 -0.9518
13235SOL     OW41381   1.910   4.658   2.617 -0.8826  0.1708  0.3985
13235SOL    HW141382   1.854   4.581   2.626 -2.1958  1.2252  1.5690
13235SOL    HW241383   1.957   4.663   2.701 -1.5209  1.1730  0.7080
13236SOL     OW41384   8.690   0.954   4.430 -0.4058 -0.1461 -0.0622
13236SOL    HW141385   8.632   1.019   4.392  0.6623  0.2126 -1.1170
13236SOL    HW241386   8.776   0.975   4.394  0.1649 -1.3870  0.5523
13237SOL     OW41387   7.310   5.203   7.189 -0.5076 -0.4967  0.5228
13237SOL    HW141388   7.243   5.208   7.257  0.1913  2.4308  1.0296
13237SOL    HW241389   7.347   5.291   7.184  1.5609 -1.4249 -1.5296
13238SOL     OW41390   9.214   3.991   1.684 -0.1518  0.6078 -0.6363
13238SOL    HW141391   9.138   4.046   1.664 -1.5255 -1.3548 -1.0312
13238SOL    HW241392   9.183   3.930   1.750  1.7645  1.1995  0.8551
13239SOL     OW41393   6.002   0.665   5.170 -0.6375  0.0147  0.5608
13239SOL    HW141394   5.933   0.609   5.135 -0.0623 -1.3796  1.6099
13239SOL    HW241395   6.081   0.635   5.125 -0.7478  1.8838 -0.9542
13240SOL     OW41396   2.588   8.683   5.970  0.3578  0.2295  0.9574
13240SOL    HW141397   2.597   8.707   5.878 -2.8797  2.2473  1.0656
13240SOL    HW241398   2.652   8.614   5.984  1.9899  0.9847 -2.4033
13241SOL     OW41399   8.550   5.700   2.351  0.6256 -0.0613 -0.3138
13241SOL    HW141400   8.554   5.655   2.436  0.7481 -0.4387 -0.5199
13241SOL    HW241401   8.602   5.779   2.364 -0.0924  0.3288  0.2376
13242SOL     OW41402   0.970   0.627   8.069  0.0974  0.0800 -0.1858
13242SOL    HW141403   0.940   0.672   7.990 -0.2089  0.7382  0.2967
13242SOL    HW241404   1.020   0.693   8.117  0.9729 -0.5517 -0.2184
13243SOL     OW41405   7.506   2.680   3.051 -0.4309  0.7472 -0.6675
13243SOL    HW141406   7.414   2.701   3.030 -0.7849  1.0258  1.0679
13243SOL    HW241407   7.534   2.753   3.107  0.6189  0.2785 -0.5882
13244SOL     OW41408   5.281   7.823   7.567  0.4801  0.2415 -0.2962
13244SOL    HW141409   5.351   7.847   7.507  0.1144  0.3318 -0.6930
13244SOL    HW241410   5.259   7.733   7.543 -0.8396  0.8579 -1.4594
13245SOL     OW41411   5.095   9.170   2.534 -0.1265  0.2720 -0.1577
13245SOL    HW141412   5.047   9.142   2.456 -0.4934  1.4739 -0.3675
13245SOL    HW241413   5.169   9.221   2.500 -0.2319  0.7156  0.2669
13246SOL     OW41414   4.082   8.999   7.325 -0.4348  0.5192 -0.1322
13246SOL    HW141415   4.080   9.024   7.232 -0.9434 -0.1466 -0.2998
13246SOL    HW241416   4.054   8.908   7.326  1.0247  0.0786  0.5337
13247SOL     OW41417   1.633   1.555   6.460  0.0635 -0.3815  0.1388
13247SOL    HW141418   1.630   1.471   6.507 -0.7931 -0.9486 -0.9017
13247SOL    HW241419   1.547   1.562   6.418  0.6858  0.2810 -1.0458
13248SOL     OW41420   8.521   5.269   2.804 -0.2560 -0.0332 -0.1586
13248SOL    HW141421   8.587   5.315   2.857 -2.1927  1.7556  0.7762
13248SOL    HW241422   8.558   5.269   2.716  1.1024  0.7761  0.3885
13249SOL     OW41423   2.086   5.785   1.259 -0.0440 -0.2422 -0.1798
13249SOL    HW141424   2.014   5.757   1.314  0.5048  0.1649  0.7708
13249SOL    HW241425   2.068   5.747   1.173  0.1602 -2.6069  0.8045
13250SOL     OW41426   8.598   5.167   9.166 -0.0695  0.1857 -0.2730
13250SOL    HW141427   8.521   5.125   9.129 -0.8730  0.8717  0.5979
13250SOL    HW241428   8.567   5.207   9.247  0.9764  1.3167 -0.4144
13251SOL     OW41429   2.315   3.139   4.262  0.0217 -0.2306  0.4273
13251SOL    HW141430   2.349   3.053   4.238  0.8703  0.3775 -0.5944
13251SOL    HW241431   2.257   3.162   4.189 -2.1168 -0.9736  1.8337
13252SOL     OW41432   8.111   8.510   4.298  0.4456 -0.1798 -0.2126
13252SOL    HW141433   8.172   8.447   4.261 -0.4280 -0.5986 -0.9846
13252SOL    HW241434   8.038   8.512   4.235 -0.2919  0.3628  0.6464
13253SOL     OW41435   4.691   4.831   8.094 -0.5262  0.1096  0.0388
13253SOL    HW141436   4.621   4.768   8.109  0.3965 -1.3685 -1.7999
13253SOL    HW241437   4.737   4.837   8.179 -1.7999 -0.1881  0.7601
13254SOL     OW41438   9.053   5.572   8.602 -0.0822 -0.2987  0.1396
13254SOL    HW141439   9.010   5.521   8.671  0.3021  0.5955  1.0385
13254SOL    HW241440   8.981   5.603   8.547 -0.3740 -1.1779  0.0202
13255SOL     OW41441   4.793   5.186   6.622 -0.6122 -0.3461  0.1851
13255SOL    HW141442   4.711   5.162   6.665 -1.7964  0.2959 -1.6597
13255SOL    HW241443   4.785   5.280   6.605  0.0143 -0.5021 -1.0261
13256SOL     OW41444   6.185   5.505   0.518 -0.4443  0.1461 -0.2194
13256SOL    HW141445   6.098   5.478   0.547 -0.4028 -1.1170 -1.1930
13256SOL    HW241446   6.245   5.445   0.563 -0.1925 -0.0214 -0.7701
13257SOL     OW41447   8.272   8.223   4.527 -0.0523 -0.3643 -0.2710
13257SOL    HW141448   8.302   8.168   4.600 -0.0600  1.0201  0.8052
13257SOL    HW241449   8.353   8.256   4.488 -0.0960  1.1483  0.8905
13258SOL     OW41450   4.495   2.356   6.542 -0.0956  0.6768 -0.1633
13258SOL    HW141451   4.413   2.350   6.493  0.3634 -1.1597 -0.7379
13258SOL    HW241452   4.563   2.337   6.477  0.6911  0.7983  0.6167
13259SOL     OW41453   7.368   6.578   6.035 -0.0031 -0.6205 -0.0676
13259SOL    HW141454   7.273   6.564   6.028 -0.4715  2.2599 -0.2324
13259SOL    HW241455   7.406   6.522   5.968 -1.5856 -1.9605  0.1338
13260SOL     OW41456   9.153   7.208   4.739 -0.0983 -0.1103 -0.2267
13260SOL    HW141457   9.113   7.174   4.820 -1.1115  0.2605 -0.5589
13260SOL    HW241458   9.080   7.247   4.691  0.5874  0.1256 -1.0945
13261SOL     OW41459   8.459   7.971   1.836  0.0695  0.7066  0.0669
13261SOL    HW141460   8.538   7.990   1.887 -0.3404 -1.2588  1.5203
13261SOL    HW241461   8.394   7.946   1.901 -1.2131  0.5303 -1.2529
13262SOL     OW41462   2.625   4.754   8.190 -0.2473  0.7392 -0.5704
13262SOL    HW141463   2.622   4.848   8.169  0.6770  0.8346 -0.2879
13262SOL    HW241464   2.537   4.735   8.224 -0.8697  1.1914 -1.9056
13263SOL     OW41465   4.220   9.184   8.208  0.2367  0.0297  0.2159
13263SOL    HW141466   4.257   9.272   8.212  1.2701 -0.4598  2.0493
13263SOL    HW241467   4.136   9.192   8.253  0.6470 -0.0584  1.0097
13264SOL     OW41468   5.609   2.662   3.956 -0.2689 -0.2781  0.6933
13264SOL    HW141469   5.648   2.636   3.872  0.1024  1.3453  0.3424
13264SOL    HW241470   5.532   2.607   3.964 -1.2066  0.6302 -1.5091
13265SOL     OW41471   0.599   3.599   1.916  0.5278  0.1865  0.0039
13265SOL    HW141472   0.515   3.619   1.874  1.3022  1.5200 -0.9418
13265SOL    HW241473   0.598   3.504   1.927 -1.3076  0.2378  0.4497
13266SOL     OW41474   2.324   1.712   7.829 -0.6239 -0.3931  0.6944
13266SOL    HW141475   2.274   1.712   7.748 -0.5503  0.0329  0.6458
13266SOL    HW241476   2.349   1.804   7.842  0.3290 -0.6265  0.6033
13267SOL     OW41477   2.733   1.191   5.422  0.5611  0.4806  0.7714
13267SOL    HW141478   2.754   1.199   5.329  0.4596  1.1748  0.8049
13267SOL    HW241479   2.808   1.144   5.459  1.6152  2.0830  0.7108
13268SOL     OW41480   7.168   8.040   3.808 -0.4685 -0.0434  0.0833
13268SOL    HW141481   7.111   8.114   3.789  0.3129  0.5765  0.1373
13268SOL    HW241482   7.194   8.053   3.899 -0.1033 -0.2252  0.0063
13269SOL     OW41483   8.183   9.069   9.184  0.0886 -0.0463  0.4547
13269SOL    HW141484   8.244   9.115   9.242 -0.4176  0.4837  0.5710
13269SOL    HW241485   8.232   8.993   9.153  0.6686  0.1545  0.8743
13270SOL     OW41486   8.617   8.735   6.987 -0.0793 -0.4395 -0.3280
13270SOL    HW141487   8.673   8.761   7.060 -1.6343 -0.3645  0.8577
13270SOL    HW241488   8.630   8.803   6.921  0.4561  0.1083  0.3412
13271SOL     OW41489   7.886   4.703   4.492  0.2203 -0.5942 -0.0064
13271SOL    HW141490   7.825   4.687   4.564  0.8162  0.5906  0.7785
13271SOL    HW241491   7.859   4.788   4.456  2.1106  0.4945  1.0945
13272SOL     OW41492   1.863   4.622   8.113  0.1724  0.1027  0.2300
13272SOL    HW141493   1.768   4.627   8.106  0.1206 -0.6436  0.3331
13272SOL    HW241494   1.895   4.700   8.067 -0.4879  0.3919  0.2547
13273SOL     OW41495   2.034   7.452   2.194 -0.3490 -0.0803  0.2922
13273SOL    HW141496   2.114   7.448   2.142 -0.1137  0.0228  0.6431
13273SOL    HW241497   1.988   7.529   2.161 -0.0591  0.1594  0.4295
13274SOL     OW41498   0.480   5.447   5.774  0.0338 -0.5569 -0.2400
13274SOL    HW141499   0.474   5.479   5.684  1.9283 -0.8057 -0.4925
13274SOL    HW241500   0.538   5.510   5.818 -2.2228  0.5265  1.2972
13275SOL     OW41501   0.014   2.579   2.430  0.5478 -0.5070  0.4813
13275SOL    HW141502  -0.038   2.603   2.353  1.7824  1.1809  0.1380
13275SOL    HW241503   0.032   2.485   2.419  0.1792 -0.4241 -0.9729
13276SOL     OW41504   8.542   0.136   5.596  0.4376 -0.7624 -0.4190
13276SOL    HW141505   8.592   0.196   5.541 -0.3561  0.0464 -0.2766
13276SOL    HW241506   8.450   0.155   5.574  0.2041 -2.8817 -1.3725
13277SOL     OW41507   4.720   9.261   6.957 -0.0655  0.4360  0.0467
13277SOL    HW141508   4.813   9.251   6.978 -0.2002 -0.7436  0.1302
13277SOL    HW241509   4.698   9.183   6.906 -1.4345 -0.1833  1.5303
13278SOL     OW41510   4.268   1.625   7.228  0.0090 -0.6372  0.1574
13278SOL    HW141511   4.293   1.612   7.137 -0.7201 -0.3995 -0.0851
13278SOL    HW241512   4.267   1.536   7.266  1.2941 -0.6358  0.2085
13279SOL     OW41513   5.226   4.839   5.177  0.2629  0.3574  0.3364
13279SOL    HW141514   5.321   4.834   5.173  0.2634  1.4506 -1.4530
13279SOL    HW241515   5.196   4.751   5.153  0.7939  0.2162  0.1889
13280SOL     OW41516   6.340   1.841   8.770 -0.0738 -0.6905 -0.5516
13280SOL    HW141517   6.399   1.804   8.705  1.2443  1.0164 -0.3860
13280SOL    HW241518   6.291   1.908   8.723 -0.1098 -0.4046 -0.1101
13281SOL     OW41519   0.725   3.194   4.865 -0.0126  0.3594 -0.1757
13281SOL    HW141520   0.715   3.250   4.788 -0.4083 -0.6660 -0.8742
13281SOL    HW241521   0.814   3.159   4.858 -0.1387  0.0620 -0.3115
13282SOL     OW41522   8.643   0.881   5.634  0.4253  0.1266  0.2322
13282SOL    HW141523   8.557   0.913   5.607  0.6171  1.4569  1.1561
13282SOL    HW241524   8.654   0.799   5.586 -1.2642  0.0479 -0.0469
13283SOL     OW41525   2.662   2.164   4.335  0.4821 -0.3688  0.2049
13283SOL    HW141526   2.584   2.154   4.280  0.9714 -1.4211 -0.2982
13283SOL    HW241527   2.627   2.181   4.423 -0.3020  0.5929 -0.2830
13284SOL     OW41528   2.269   7.151   7.487  0.1855 -0.0813 -0.1185
13284SOL    HW141529   2.338   7.213   7.466  0.5453 -0.2894  0.4167
13284SOL    HW241530   2.208   7.200   7.543 -0.1341  0.1217 -0.6472
13285SOL     OW41531   3.958   3.738   1.799  0.4200  0.2031 -0.2871
13285SOL    HW141532   3.982   3.670   1.737  0.6916  0.9607 -1.0274
13285SOL    HW241533   3.987   3.705   1.884 -2.8261 -2.2993 -0.0507
13286SOL     OW41534   1.666   2.350   6.242 -0.2619 -0.2382 -0.4329
13286SOL    HW141535   1.757   2.377   6.227 -0.6525  0.8103 -0.9216
13286SOL    HW241536   1.615   2.431   6.237 -1.3396 -0.9430 -1.1326
13287SOL     OW41537   1.709   0.917   3.778  0.2565 -0.0022  0.2313
13287SOL    HW141538   1.731   0.836   3.825 -3.5581 -1.6609 -0.6748
13287SOL    HW241539   1.780   0.926   3.714  1.6281 -1.7088  1.4238
13288SOL     OW41540   0.528   8.503   1.007 -0.1306  0.0594  0.3634
13288SOL    HW141541   0.558   8.488   1.097  3.5948 -0.3234 -0.8603
13288SOL    HW241542   0.487   8.420   0.982 -1.7440  0.3568  1.8399
13289SOL     OW41543   1.755   0.806   1.176 -0.0391  0.1754 -0.0627
13289SOL    HW141544   1.765   0.725   1.227  1.3570 -0.9184 -2.0178
13289SOL    HW241545   1.717   0.777   1.093  1.0725  1.4400 -1.0315
13290SOL     OW41546   0.034   1.477   7.343 -0.2225  0.3611  0.1868
13290SOL    HW141547  -0.057   1.507   7.347 -1.2050 -2.5563  0.7210
13290SOL    HW241548   0.035   1.413   7.272  1.2685 -0.1578  0.6650
13291SOL     OW41549   6.542   7.363   5.923  0.1546  0.5371  0.2178
13291SOL    HW141550   6.580   7.328   6.003 -2.5772 -1.1965  0.8440
13291SOL    HW241551   6.489   7.437   5.952 -2.1904 -1.1159  0.3208
13292SOL     OW41552   8.547   2.146   1.243  0.0763  0.0780  0.0217
13292SOL    HW141553   8.570   2.060   1.206  0.2517  0.3872 -0.6001
13292SOL    HW241554   8.630   2.180   1.275 -0.0476 -0.1197  0.5607
13293SOL     OW41555   1.207   7.905   4.640 -0.1171 -0.1888 -0.7200
13293SOL    HW141556   1.112   7.909   4.634 -0.2736 -2.1725  0.1094
13293SOL    HW241557   1.227   7.938   4.727 -0.0928 -0.3470 -0.6653
13294SOL     OW41558   6.195   2.552   8.896 -0.7736  0.7565 -0.6626
13294SOL    HW141559   6.122   2.560   8.958  0.3182  4.8440  0.2816
13294SOL    HW241560   6.267   2.601   8.937  1.4278 -0.2800 -3.1301
13295SOL     OW41561   0.795   7.487   4.395 -0.2323  0.2255 -0.9448
13295SOL    HW141562   0.713   7.471   4.348 -0.8914  1.4464 -0.2460
13295SOL    HW241563   0.849   7.536   4.333 -0.7188  0.9716 -0.7832
13296SOL     OW41564   4.088   6.266   2.214  0.5782  0.8352 -0.5600
13296SOL    HW141565   4.117   6.192   2.268 -2.0175  1.0061  1.1135
13296SOL    HW241566   4.169   6.299   2.174  2.4257  0.0885  2.4363
13297SOL     OW41567   3.183   1.277   0.824  0.3144 -0.4078 -0.0939
13297SOL    HW141568   3.274   1.293   0.849  0.0744 -0.1359  0.6176
13297SOL    HW241569   3.156   1.203   0.879  0.2650 -0.8344 -0.6839
13298SOL     OW41570   3.584   3.262   3.359 -0.1682  0.8869  0.3909
13298SOL    HW141571   3.666   3.290   3.399  0.7536 -0.2609 -0.6597
13298SOL    HW241572   3.531   3.229   3.432  0.9741  0.0694  0.8603
13299SOL     OW41573   4.440   3.009   2.306 -0.3604  0.4291  0.2304
13299SOL    HW141574   4.449   3.065   2.382 -0.4121 -0.3982  0.8534
13299SOL    HW241575   4.475   2.924   2.334  1.2886  0.6009 -1.2293
13300SOL     OW41576   0.810   8.932   4.560 -0.3700  0.0544 -0.2791
13300SOL    HW141577   0.796   8.870   4.633 -1.5076 -1.4888 -1.7784
13300SOL    HW241578   0.728   8.930   4.511 -0.1386  2.2381 -0.7725
13301SOL     OW41579   1.126   0.598   2.270  0.4252 -0.2391  0.1484
13301SOL    HW141580   1.146   0.526   2.330  2.0903 -0.3883 -0.5498
13301SOL    HW241581   1.162   0.676   2.314  2.3856 -0.4651 -0.9749
13302SOL     OW41582   5.388   0.776   1.012  0.2780  0.0479  0.4110
13302SOL    HW141583   5.468   0.782   1.065  0.5106  0.7599 -0.0173
13302SOL    HW241584   5.383   0.683   0.988  1.3453  0.1114 -0.1115
13303SOL     OW41585   8.919   2.519   2.018 -0.5441  0.0938  0.4358
13303SOL    HW141586   8.856   2.582   2.054 -1.2617 -0.7522  0.6739
13303SOL    HW241587   8.869   2.469   1.954 -0.4370 -1.3780  1.4838
13304SOL     OW41588   1.415   7.119   4.006  0.1806 -0.3846  0.0162
13304SOL    HW141589   1.453   7.197   3.967  0.8989 -0.7243  0.0282
13304SOL    HW241590   1.359   7.151   4.077 -0.2082  0.1632 -0.5369
13305SOL     OW41591   0.215   5.668   3.675 -0.4734 -0.0320 -0.0861
13305SOL    HW141592   0.144   5.711   3.722 -0.1811 -0.1287  0.4530
13305SOL    HW241593   0.211   5.704   3.586  0.0387  1.4431  0.4638
13306SOL     OW41594   5.784   7.005   7.850  0.1526 -0.2882 -0.0692
13306SOL    HW141595   5.873   7.040   7.843  0.2437 -0.8044 -1.5568
13306SOL    HW241596   5.740   7.064   7.912  1.5049  0.0003  0.6383
13307SOL     OW41597   5.235   6.280   1.675  0.8457  0.3918 -0.1197
13307SOL    HW141598   5.209   6.370   1.652  1.0861  0.4614 -0.1214
13307SOL    HW241599   5.329   6.287   1.694  1.6025 -0.4744 -3.3520
13308SOL     OW41600   8.127   6.364   5.046 -0.0377  0.1533  0.3380
13308SOL    HW141601   8.088   6.425   5.108 -0.9344  0.6284 -0.6904
13308SOL    HW241602   8.166   6.296   5.101 -1.5565  0.1278  1.4091
13309SOL     OW41603   6.108   3.840   3.141  0.2010  0.8301  0.4961
13309SOL    HW141604   6.166   3.767   3.162  0.0925  0.1903 -1.3783
13309SOL    HW241605   6.161   3.918   3.158  1.8978  0.2518 -1.9471
13310SOL     OW41606   4.640   4.493   8.945  0.0351 -0.2040  0.6053
13310SOL    HW141607   4.564   4.496   9.002 -0.6510  0.1828 -0.3180
13310SOL    HW241608   4.618   4.427   8.879 -1.1978  2.6707 -1.9997
13311SOL     OW41609   2.728   0.429   6.057  0.5299 -1.2774  0.0872
13311SOL    HW141610   2.667   0.469   5.996 -0.7708 -2.3958  0.6379
13311SOL    HW241611   2.771   0.360   6.006  0.2858 -1.4467  0.1111
13312SOL     OW41612   0.049   7.067   6.451 -0.2973  0.0522  0.2500
13312SOL    HW141613   0.116   7.136   6.442  1.2409 -1.4186  0.2175
13312SOL    HW241614   0.045   7.026   6.365 -1.5237  0.3559  0.1510
13313SOL     OW41615   4.345   7.252   4.559  0.4451 -0.1829 -0.6758
13313SOL    HW141616   4.402   7.244   4.482  2.3098 -2.4145  0.8971
13313SOL    HW241617   4.304   7.338   4.548  4.1390  1.5676 -1.8432
13314SOL     OW41618   5.465   4.618   9.026  0.3118  0.3785 -0.1384
13314SOL    HW141619   5.484   4.606   9.119  0.4488  2.4526  0.1172
13314SOL    HW241620   5.450   4.529   8.993 -1.0145 -0.2811  2.1326
13315SOL     OW41621   2.091   5.694   0.984  0.1320  0.1727 -0.4719
13315SOL    HW141622   2.175   5.698   1.031 -0.7688  0.7830  1.1247
13315SOL    HW241623   2.106   5.745   0.904  0.4348  2.8848  1.2279
13316SOL     OW41624   8.267   6.697   5.118 -0.5485  0.2101  0.4128
13316SOL    HW141625   8.328   6.739   5.179 -0.3371 -0.5835  0.7475
13316SOL    HW241626   8.298   6.722   5.032  1.1829 -1.4555  0.5300
13317SOL     OW41627   7.961   3.712   2.277 -0.0328  0.5456  0.2564
13317SOL    HW141628   7.886   3.720   2.217 -0.7763  1.7994  1.3214
13317SOL    HW241629   7.921   3.698   2.363  1.0467 -1.9393  0.3848
13318SOL     OW41630   6.939   4.717   8.341 -0.4042 -0.4578 -0.1012
13318SOL    HW141631   7.029   4.685   8.345 -0.2362 -0.2187 -1.7031
13318SOL    HW241632   6.928   4.768   8.421  1.6339  1.4033 -0.9399
13319SOL     OW41633   8.173   8.878   2.079 -0.3838 -0.3262  0.2811
13319SOL    HW141634   8.204   8.848   2.164  1.3716 -1.0243 -0.5735
13319SOL    HW241635   8.102   8.819   2.057  0.5035 -1.4334  0.3496
13320SOL     OW41636   7.141   5.216   1.041  0.7470 -0.7752 -0.0588
13320SOL    HW141637   7.092   5.182   1.115  1.1398 -0.7044  0.2306
13320SOL    HW241638   7.129   5.151   0.972  1.1685 -1.3003  0.3652
13321SOL     OW41639   5.076   6.892   3.389  0.3749 -0.0864  0.1256
13321SOL    HW141640   5.019   6.817   3.372  0.8448 -0.6614  1.0524
13321SOL    HW241641   5.083   6.937   3.304  0.6106 -1.4436 -0.5876
13322SOL     OW41642   8.074   3.863   1.540  0.0129  0.2135 -0.4834
13322SOL    HW141643   8.133   3.792   1.516  1.1990  1.1961 -0.5259
13322SOL    HW241644   8.053   3.906   1.457 -1.8090 -0.9034 -0.6365
13323SOL     OW41645   3.733   8.314   7.564 -0.0276 -0.0263 -0.0611
13323SOL    HW141646   3.657   8.271   7.604  1.0109 -2.4387 -0.5945
13323SOL    HW241647   3.798   8.244   7.555  1.9363  1.7926 -0.4646
13324SOL     OW41648   5.220   4.318   0.351  0.7617  0.2384 -0.3335
13324SOL    HW141649   5.315   4.325   0.345  0.7751 -0.1488 -0.6202
13324SOL    HW241650   5.203   4.224   0.348  0.4074  0.2810  0.3487
13325SOL     OW41651   4.858   4.613   6.406 -0.1844  0.2587 -0.3735
13325SOL    HW141652   4.793   4.677   6.432 -0.5068 -0.2008 -0.0304
13325SOL    HW241653   4.934   4.665   6.379 -0.9933  0.8126 -1.6099
13326SOL     OW41654   3.169   0.868   0.416 -0.1139  0.0946 -0.5143
13326SOL    HW141655   3.226   0.851   0.341  1.0251  2.7022 -0.2615
13326SOL    HW241656   3.220   0.839   0.491 -0.5408 -0.8290 -0.5693
13327SOL     OW41657   6.553   2.091   4.284 -0.6482  0.4016  0.0065
13327SOL    HW141658   6.460   2.112   4.284 -0.6641  0.3312  0.8965
13327SOL    HW241659   6.560   2.012   4.337 -0.1907 -0.0873 -0.7688
13328SOL     OW41660   2.307   3.012   2.003  0.0645  0.2708 -0.2959
13328SOL    HW141661   2.235   3.074   1.996  1.8860  2.3611 -0.7352
13328SOL    HW241662   2.356   3.021   1.921  2.0348  0.3997  0.8686
13329SOL     OW41663   6.285   2.233   7.862 -0.7975 -0.6202 -0.0500
13329SOL    HW141664   6.221   2.260   7.795  0.6215 -0.0667 -1.2247
13329SOL    HW241665   6.303   2.142   7.841 -0.2834 -0.4204 -0.4967
13330SOL     OW41666   4.843   3.308   4.896  0.1015 -0.1505  0.4599
13330SOL    HW141667   4.756   3.275   4.917  0.1717  0.3251  1.5118
13330SOL    HW241668   4.894   3.230   4.875 -1.0277 -0.2995 -1.8673
13331SOL     OW41669   6.797   4.805   3.049  0.2508 -0.1248  0.3659
13331SOL    HW141670   6.809   4.841   2.961  0.2710  1.7209  1.0973
13331SOL    HW241671   6.780   4.712   3.034 -2.0471  0.5575 -1.7482
13332SOL     OW41672   6.268   9.090   2.010  0.6806  0.0941  0.1173
13332SOL    HW141673   6.194   9.140   2.046  0.3793 -0.2728  0.0035
13332SOL    HW241674   6.334   9.092   2.079  0.7242  0.7762  0.0581
13333SOL     OW41675   2.801   4.106   1.564 -0.5836  0.3319  0.1837
13333SOL    HW141676   2.841   4.181   1.606  1.8073 -2.0485  2.3359
13333SOL    HW241677   2.852   4.093   1.484 -0.3623  0.3989  0.3141
13334SOL     OW41678   8.461   3.595   5.805 -0.5601  0.1045 -0.6286
13334SOL    HW141679   8.530   3.543   5.763  0.9090  1.6854 -0.2218
13334SOL    HW241680   8.507   3.669   5.845 -2.4855  1.1460 -0.2636
13335SOL     OW41681   7.152   4.364   7.701 -0.5160 -0.0858  0.2288
13335SOL    HW141682   7.228   4.345   7.646  0.0985 -0.9015  1.3422
13335SOL    HW241683   7.185   4.358   7.791 -1.5371  1.0885  0.6929
13336SOL     OW41684   4.696   3.390   8.822 -0.5094 -0.2891 -0.3066
13336SOL    HW141685   4.686   3.384   8.727  0.2006 -1.0796 -0.3359
13336SOL    HW241686   4.757   3.320   8.844  0.3158  0.6966  0.5852
13337SOL     OW41687   5.738   4.905   8.102  0.5452  0.1397  0.1100
13337SOL    HW141688   5.697   4.939   8.182  0.7906  1.0664 -0.1590
13337SOL    HW241689   5.717   4.811   8.103 -1.0635  0.4847  0.2880
13338SOL     OW41690   0.013   4.103   4.439  0.0654 -0.2145  0.0238
13338SOL    HW141691   0.053   4.084   4.524  0.3280 -0.5420 -0.1733
13338SOL    HW241692  -0.079   4.078   4.450 -0.0404  0.3221  0.4025
13339SOL     OW41693   0.906   0.777   9.191  0.0280 -0.2532  0.5679
13339SOL    HW141694   0.885   0.804   9.102 -0.0252  0.4573  0.7934
13339SOL    HW241695   0.952   0.693   9.181  2.2062  1.0022 -0.2985
13340SOL     OW41696   1.778   3.056   7.079 -0.7871  0.1850  0.2076
13340SOL    HW141697   1.833   3.068   7.156 -0.6257 -1.3540  0.3375
13340SOL    HW241698   1.792   3.136   7.027 -0.1582  0.7881  1.2938
13341SOL     OW41699   0.631   1.467   0.030 -0.1778  0.1160 -0.6590
13341SOL    HW141700   0.549   1.505  -0.002  0.2850  0.8326 -0.9956
13341SOL    HW241701   0.694   1.485  -0.039  0.1597 -0.8374 -0.5988
13342SOL     OW41702   2.926   9.210   0.761 -0.2406 -0.5127 -0.2536
13342SOL    HW141703   2.952   9.123   0.792 -3.1090 -1.2656  0.1440
13342SOL    HW241704   2.961   9.215   0.672  0.0450 -2.0310 -0.2396
13343SOL     OW41705   9.224   0.648   0.664 -0.1388 -0.6129  0.1651
13343SOL    HW141706   9.203   0.731   0.622 -0.4966 -0.8583 -0.1397
13343SOL    HW241707   9.285   0.605   0.605  0.3411 -0.4021  0.5036
13344SOL     OW41708   8.110   1.150   2.535 -0.1869 -0.3473  0.0629
13344SOL    HW141709   8.182   1.124   2.477  0.5587 -1.3966  1.4421
13344SOL    HW241710   8.131   1.239   2.561 -0.3117 -0.0152 -0.9485
13345SOL     OW41711   3.032   0.073   9.096 -0.0648  0.2529 -0.2482
13345SOL    HW141712   2.980   0.103   9.170  0.1324  0.4276 -0.1789
13345SOL    HW241713   2.968   0.051   9.029 -0.2416  0.1803 -0.0583
13346SOL     OW41714   6.654   8.116   5.112  0.1641  0.3211 -0.2802
13346SOL    HW141715   6.731   8.072   5.078 -0.3472 -0.2349 -0.7173
13346SOL    HW241716   6.662   8.107   5.207  0.2854 -0.3368 -0.3483
13347SOL     OW41717   4.389   4.241   7.916 -0.4265  0.1606 -0.1640
13347SOL    HW141718   4.380   4.330   7.952 -0.0839  0.8635 -1.7484
13347SOL    HW241719   4.473   4.211   7.949 -1.1560 -0.1175  1.4883
13348SOL     OW41720   5.048   8.071   5.722 -0.2434  0.7246 -0.3320
13348SOL    HW141721   4.988   8.129   5.768  0.9322 -0.4117  2.8030
13348SOL    HW241722   5.096   8.128   5.662 -1.3387  2.3796  0.3241
13349SOL     OW41723   6.791   2.403   6.638  0.6824 -0.1887 -0.2780
13349SOL    HW141724   6.721   2.468   6.648 -0.1234 -1.2953  1.7217
13349SOL    HW241725   6.747   2.319   6.646  2.1012 -0.9227  0.0589
13350SOL     OW41726   8.036   5.241   5.117 -0.0146  0.0850  0.0930
13350SOL    HW141727   7.980   5.294   5.173 -0.8476  0.6104 -1.1944
13350SOL    HW241728   8.123   5.249   5.156 -0.3226  1.5699  0.5195
13351SOL     OW41729   7.254   8.053   4.064  0.0458 -0.4431  0.1718
13351SOL    HW141730   7.341   8.045   4.103 -0.2002  0.2649  0.8875
13351SOL    HW241731   7.194   8.033   4.136 -0.3565 -2.6187 -0.7543
13352SOL     OW41732   4.473   6.522   2.041 -0.3411  0.4402 -0.0003
13352SOL    HW141733   4.431   6.598   2.000 -0.9980 -0.8005 -1.6475
13352SOL    HW241734   4.402   6.462   2.060  0.1751  0.2373  1.3571
13353SOL     OW41735   8.328   9.058   5.655  0.5785 -0.2098  0.9264
13353SOL    HW141736   8.373   8.996   5.711  0.5247 -1.3938 -0.3224
13353SOL    HW241737   8.363   9.042   5.567  0.4845  1.4414  0.5711
13354SOL     OW41738   2.779   1.887   1.035 -0.1890  0.3399 -0.2149
13354SOL    HW141739   2.865   1.929   1.037 -0.6817  1.3744 -1.0100
13354SOL    HW241740   2.782   1.829   0.959  0.3140 -0.7454  0.6024
13355SOL     OW41741   4.663   3.659   0.934  0.7908  0.1978 -0.3880
13355SOL    HW141742   4.730   3.626   0.873  2.5675  2.3214  0.3557
13355SOL    HW241743   4.629   3.738   0.892  0.3682  0.3813  0.2980
13356SOL     OW41744   4.400   5.386   8.019 -0.5938 -0.0666  1.2644
13356SOL    HW141745   4.377   5.414   8.107 -1.8423 -0.7216  1.1498
13356SOL    HW241746   4.324   5.408   7.966 -0.5159 -1.2086  0.6652
13357SOL     OW41747   6.355   5.631   1.366 -0.1391 -0.0526 -0.0385
13357SOL    HW141748   6.442   5.665   1.387 -0.3183  1.1248 -1.1933
13357SOL    HW241749   6.372   5.556   1.308  0.1161 -0.1615  0.1728
13358SOL     OW41750   6.406   1.407   7.086 -0.7749 -0.6996  0.4715
13358SOL    HW141751   6.342   1.388   7.017 -0.7786  0.5644  0.1218
13358SOL    HW241752   6.362   1.382   7.167 -1.2297 -1.0446  0.1259
13359SOL     OW41753   0.748   2.575   2.157  0.0489  0.0788 -0.4388
13359SOL    HW141754   0.692   2.651   2.143  0.7221  0.6959  0.1570
13359SOL    HW241755   0.690   2.508   2.192 -0.5664  0.2941 -1.0340
13360SOL     OW41756   8.853   8.185   5.424 -0.5766  0.2973 -0.5771
13360SOL    HW141757   8.939   8.142   5.427  0.1506  1.7385 -0.4281
13360SOL    HW241758   8.792   8.113   5.406  0.4538 -1.0077  0.9646
13361SOL     OW41759   4.439   1.908   3.488 -0.1167  0.5925 -0.3994
13361SOL    HW141760   4.510   1.878   3.545 -0.9380  0.5742  0.6374
13361SOL    HW241761   4.388   1.968   3.542 -1.1654  0.2359 -0.9680
13362SOL     OW41762   0.422   3.025   4.658  0.3261  0.1403  0.3984
13362SOL    HW141763   0.435   2.931   4.648  0.2666  0.2367 -0.6470
13362SOL    HW241764   0.354   3.046   4.594  0.3813  0.9056  0.5897
13363SOL     OW41765   6.367   0.903   5.275  0.3512 -0.1918 -0.8956
13363SOL    HW141766   6.407   0.963   5.212 -0.3721  0.6988 -0.5072
13363SOL    HW241767   6.312   0.845   5.223 -1.2596  1.3597 -0.9661
13364SOL     OW41768   6.689   6.520   4.640 -0.1475 -0.1526 -0.2529
13364SOL    HW141769   6.744   6.467   4.698  1.7351  0.2038 -1.6707
13364SOL    HW241770   6.655   6.589   4.696  0.9215 -0.3370  0.6432
13365SOL     OW41771   1.871   8.443   1.300 -0.1243  0.4074 -0.6034
13365SOL    HW141772   1.896   8.532   1.326 -1.5716  1.2401 -1.9532
13365SOL    HW241773   1.776   8.448   1.288 -0.5872 -1.9176  1.5773
13366SOL     OW41774   2.068   0.123   0.314  0.2956  0.2133  0.4721
13366SOL    HW141775   2.162   0.107   0.315  0.5790  1.8245  0.4404
13366SOL    HW241776   2.049   0.156   0.402 -0.0890  0.7344  0.1925
13367SOL     OW41777   4.271   2.063   4.593 -0.2731  0.2267 -0.2420
13367SOL    HW141778   4.252   2.010   4.515  1.7198  1.1352 -1.4159
13367SOL    HW241779   4.356   2.030   4.623 -0.1781  1.1030  0.4590
13368SOL     OW41780   1.625   6.525   4.373  0.1138  0.4965 -0.2746
13368SOL    HW141781   1.610   6.586   4.301 -0.2527  1.5748  0.7019
13368SOL    HW241782   1.631   6.580   4.451  1.1130 -0.6057  0.4515
13369SOL     OW41783   4.371   7.797   1.727 -0.3659  0.3126  0.1640
13369SOL    HW141784   4.356   7.860   1.797  1.3639  1.4802 -0.4683
13369SOL    HW241785   4.335   7.838   1.648  1.8510  1.1021 -0.4811
13370SOL     OW41786   3.016   1.991   2.606 -0.3342  0.1125  0.4477
13370SOL    HW141787   2.947   2.049   2.574  0.0662  1.4225  1.9246
13370SOL    HW241788   2.969   1.920   2.650 -0.8225 -0.6392 -1.2561
13371SOL     OW41789   7.042   4.058   0.703 -0.7804 -1.0438 -0.0891
13371SOL    HW141790   7.011   4.140   0.665 -1.1764 -1.4635 -0.6578
13371SOL    HW241791   7.115   4.032   0.648 -1.5383 -1.8031 -0.7398
13372SOL     OW41792   8.466   7.034   2.902  0.1815  0.1387 -0.8271
13372SOL    HW141793   8.438   6.989   2.983 -0.0831 -0.1568 -1.0795
13372SOL    HW241794   8.423   6.985   2.832  0.6221  0.2376 -1.1645
13373SOL     OW41795   8.875   6.226   2.047  0.5873  0.0669 -0.4559
13373SOL    HW141796   8.951   6.238   2.104  0.8700 -1.0295 -0.5875
13373SOL    HW241797   8.845   6.137   2.065 -0.9826  0.6561 -0.0376
13374SOL     OW41798   0.159   1.158   1.924 -0.3499  0.2345  0.1818
13374SOL    HW141799   0.143   1.194   1.837 -1.4933 -0.6491  0.0176
13374SOL    HW241800   0.175   1.235   1.980  0.3585  0.8008 -0.7863
13375SOL     OW41801   0.745   4.825   5.039  0.0165 -0.0966  0.3823
13375SOL    HW141802   0.742   4.830   5.135 -0.4880  0.1236  0.3575
13375SOL    HW241803   0.687   4.753   5.016 -0.4356  0.3208  0.2052
13376SOL     OW41804   0.263   1.708   8.137  0.3267  0.8708 -0.3218
13376SOL    HW141805   0.241   1.710   8.044  3.4040  0.3914 -1.1010
13376SOL    HW241806   0.288   1.798   8.158  0.8293  0.7197 -0.2658
13377SOL     OW41807   6.698   4.368   3.291 -0.5406  0.2760  0.5444
13377SOL    HW141808   6.762   4.309   3.252 -1.3367  0.0789 -0.4796
13377SOL    HW241809   6.741   4.402   3.369  0.8195  0.1563 -0.1396
13378SOL     OW41810   4.766   4.403   3.461  0.0445  0.0876 -0.0236
13378SOL    HW141811   4.831   4.407   3.391  0.5610 -1.4127  0.3708
13378SOL    HW241812   4.751   4.310   3.475 -0.4959  0.3921  1.4735
13379SOL     OW41813   6.621   6.394   8.933  0.0059 -0.1338 -0.4697
13379SOL    HW141814   6.536   6.399   8.889  0.2757 -0.6514 -1.0452
13379SOL    HW241815   6.650   6.304   8.921 -0.1587 -0.4489  1.2391
13380SOL     OW41816   0.080   8.777   8.848 -0.0615 -0.6054  0.1282
13380SOL    HW141817   0.080   8.818   8.935  1.7368 -0.4207  0.0489
13380SOL    HW241818   0.086   8.683   8.866  1.8231 -0.4944  0.2005
13381SOL     OW41819   3.668   1.916   9.054  0.3033 -0.4530  0.1370
13381SOL    HW141820   3.626   1.907   9.140  0.0173  1.8981  0.2772
13381SOL    HW241821   3.687   2.010   9.046 -0.2749 -0.5251 -2.6432
13382SOL     OW41822   0.910   8.570   2.434 -0.0909 -0.2451  0.6279
13382SOL    HW141823   0.892   8.657   2.469  1.2625 -0.3901  1.7272
13382SOL    HW241824   1.000   8.552   2.459 -0.1435 -1.6919 -0.1712
13383SOL     OW41825   5.614   1.265   8.751  0.3294  0.2142  0.1424
13383SOL    HW141826   5.558   1.302   8.818  2.3429 -0.4805  2.2652
13383SOL    HW241827   5.695   1.242   8.797  1.8746  0.0031 -2.5661
13384SOL     OW41828   5.309   4.064   5.492 -0.4712 -0.1851 -0.1633
13384SOL    HW141829   5.214   4.074   5.493 -0.2681  2.0435 -0.8690
13384SOL    HW241830   5.330   4.048   5.399 -0.2493 -1.8800  0.1605
13385SOL     OW41831   8.850   4.371   6.184  0.2862 -0.2004  0.1211
13385SOL    HW141832   8.922   4.310   6.199  0.0970 -0.6611 -0.8012
13385SOL    HW241833   8.784   4.346   6.247  0.2921 -0.8286 -0.1135
13386SOL     OW41834   1.065   4.689   8.797 -0.3491  0.0251  0.1973
13386SOL    HW141835   1.057   4.757   8.729 -3.2260 -0.6609 -0.2379
13386SOL    HW241836   1.049   4.736   8.879 -2.9488 -0.1803 -0.1549
13387SOL     OW41837   2.274   3.829   7.445  0.1288 -0.4554  0.4655
13387SOL    HW141838   2.355   3.853   7.400 -0.6386  1.0035 -0.1778
13387SOL    HW241839   2.204   3.859   7.386 -0.8747 -1.1244  1.3039
13388SOL     OW41840   6.639   5.798   7.489  0.1655 -0.3251 -0.3008
13388SOL    HW141841   6.639   5.886   7.526 -1.3943 -0.3961 -0.0945
13388SOL    HW241842   6.618   5.810   7.397 -0.0115 -0.4766 -0.2818
13389SOL     OW41843   3.356   3.233   4.967  0.3271  0.7953  0.0833
13389SOL    HW141844   3.436   3.191   4.935  0.5144  2.2653 -1.4807
13389SOL    HW241845   3.290   3.163   4.965  0.8974  0.2662 -1.4020
13390SOL     OW41846   0.695   8.328   0.020  0.5483  0.4114 -0.2476
13390SOL    HW141847   0.638   8.264  -0.023  1.5008  0.0662 -1.0414
13390SOL    HW241848   0.757   8.275   0.070 -0.3624  0.8048  1.3225
13391SOL     OW41849   8.882   2.989   3.868  0.2267 -0.4952  0.3953
13391SOL    HW141850   8.940   2.934   3.816 -0.2850  0.2782 -1.0370
13391SOL    HW241851   8.794   2.963   3.841 -0.0204  0.9925 -0.2843
13392SOL     OW41852   0.044   1.603   4.933  0.6134  0.3250 -0.0199
13392SOL    HW141853   0.067   1.624   5.024  0.7805  1.3129 -0.2800
13392SOL    HW241854   0.002   1.683   4.900 -2.7015 -1.2096  0.2507
13393SOL     OW41855   7.871   5.963   2.707 -0.5182 -0.0194  0.0798
13393SOL    HW141856   7.935   5.895   2.726  0.7646  1.0293 -0.3960
13393SOL    HW241857   7.787   5.925   2.730  0.2566 -1.5226  0.4321
13394SOL     OW41858   2.822   6.857   7.525 -0.1023  0.3325 -0.6319
13394SOL    HW141859   2.883   6.787   7.547 -1.4664  0.3316  3.6463
13394SOL    HW241860   2.877   6.931   7.503  1.4891 -0.0731  1.8080
13395SOL     OW41861   6.901   6.332   1.272  0.8820 -0.0281  0.3684
13395SOL    HW141862   6.931   6.421   1.293  0.1306 -0.0218  1.4694
13395SOL    HW241863   6.888   6.291   1.357  0.4316 -0.9271 -0.1316
13396SOL     OW41864   5.210   4.659   3.278 -0.1426  0.3267 -0.4633
13396SOL    HW141865   5.137   4.597   3.270  0.0616 -0.1209  0.9950
13396SOL    HW241866   5.268   4.618   3.342  1.4287  0.6455 -1.6756
13397SOL     OW41867   5.999   8.994   8.675 -0.2661 -0.3193 -0.1066
13397SOL    HW141868   6.071   8.994   8.738 -0.6747 -0.1521  0.3667
13397SOL    HW241869   6.021   8.926   8.612  0.6543  0.2101 -0.3556
13398SOL     OW41870   1.762   0.225   0.171  0.1915 -0.3470 -0.4420
13398SOL    HW141871   1.819   0.269   0.108 -1.1658 -1.2056 -2.3173
13398SOL    HW241872   1.704   0.294   0.203  1.1263  0.1672  0.1762
13399SOL     OW41873   1.181   7.908   3.763  0.3053 -0.3582 -0.5157
13399SOL    HW141874   1.122   7.982   3.777  1.1416 -0.0426  1.5944
13399SOL    HW241875   1.259   7.930   3.814  1.0513 -2.1377 -0.8522
13400SOL     OW41876   2.785   2.403   8.635  0.2264 -0.2175  0.1680
13400SOL    HW141877   2.748   2.483   8.673  2.2587  0.6458  0.3858
13400SOL    HW241878   2.713   2.341   8.635 -2.0990  2.3181 -2.1330
13401SOL     OW41879   6.059   1.239   8.860 -0.6664  0.5554 -0.5693
13401SOL    HW141880   6.034   1.233   8.768  0.4761  1.3662 -0.9487
13401SOL    HW241881   5.982   1.272   8.905 -0.5656  2.1614 -1.5650
13402SOL     OW41882   5.718   6.002   4.674 -0.3628  0.0746 -0.3286
13402SOL    HW141883   5.765   5.919   4.678 -1.2072 -0.3401  1.2948
13402SOL    HW241884   5.626   5.978   4.661 -1.0333  0.5842  2.9387
13403SOL     OW41885   0.623   6.830   2.416 -0.0839 -0.2896 -0.1196
13403SOL    HW141886   0.564   6.787   2.478 -0.7317  1.3760  0.4508
13403SOL    HW241887   0.710   6.794   2.436 -0.5316 -0.9258  0.6937
13404SOL     OW41888   4.305   3.768   0.266  0.4260  0.3871  0.0606
13404SOL    HW141889   4.357   3.777   0.346  0.3212  0.2622  0.1433
13404SOL    HW241890   4.323   3.679   0.236 -1.0826 -0.2663  1.0353
13405SOL     OW41891   3.502   5.300   6.125  0.1419 -0.5745 -0.2784
13405SOL    HW141892   3.524   5.355   6.201 -0.7660 -1.6615  0.7909
13405SOL    HW241893   3.501   5.211   6.159 -3.7830 -0.7709 -0.7302
13406SOL     OW41894   8.746   1.142   8.349 -0.5853  0.3674 -0.0015
13406SOL    HW141895   8.833   1.112   8.324 -1.3251 -1.3133 -0.5994
13406SOL    HW241896   8.716   1.193   8.275 -0.0662  1.0497  0.2539
13407SOL     OW41897   7.474   8.902   2.499  0.5934 -0.1200 -0.6855
13407SOL    HW141898   7.510   8.840   2.563 -0.9855  0.9061  1.2466
13407SOL    HW241899   7.468   8.984   2.547 -0.9467  0.5901 -2.0676
13408SOL     OW41900   2.662   0.068   0.697 -0.5310 -0.2328 -0.4887
13408SOL    HW141901   2.661   0.087   0.603  0.2962  0.8930 -0.2781
13408SOL    HW241902   2.754   0.054   0.719 -0.7939 -1.1916  0.0207
13409SOL     OW41903   4.129   8.100   0.036 -0.4878  0.0913  0.0211
13409SOL    HW141904   4.161   8.082   0.125  1.0695  0.7264 -0.3971
13409SOL    HW241905   4.096   8.015   0.005  0.4742 -0.5020  0.5988
13410SOL     OW41906   9.192   0.245   7.728  0.1696  0.0754  0.2555
13410SOL    HW141907   9.217   0.322   7.677 -1.5938 -0.7591 -1.9652
13410SOL    HW241908   9.158   0.184   7.663 -1.8420 -1.1693  2.4173
13411SOL     OW41909   0.568   2.461   4.134  0.0205 -0.2747  0.4418
13411SOL    HW141910   0.485   2.457   4.086 -0.7524 -0.3876  1.7693
13411SOL    HW241911   0.634   2.467   4.065 -1.1932  1.9788 -0.5982
13412SOL     OW41912   4.112   5.267   6.693 -0.0396  0.0550  0.9120
13412SOL    HW141913   4.140   5.331   6.627 -1.1713  0.8495  1.1913
13412SOL    HW241914   4.104   5.185   6.644 -0.0724  0.4557  0.2317
13413SOL     OW41915   9.060   7.905   0.551 -0.4791 -0.6045  0.0890
13413SOL    HW141916   9.152   7.928   0.565 -0.1335 -1.4038 -0.7610
13413SOL    HW241917   9.035   7.857   0.630 -0.4740  0.4947  0.7716
13414SOL     OW41918   0.833   6.177   7.234 -0.0973  0.3971  0.2309
13414SOL    HW141919   0.779   6.102   7.258  1.0956 -0.0911  1.4452
13414SOL    HW241920   0.917   6.161   7.278  1.8454 -0.0235 -3.4237
13415SOL     OW41921   7.878   4.720   7.824 -0.2160  0.2152 -0.4789
13415SOL    HW141922   7.954   4.673   7.856 -0.4247 -1.2815 -2.1096
13415SOL    HW241923   7.863   4.685   7.736 -1.2527  2.3021 -1.1662
13416SOL     OW41924   0.702   0.455   3.014  0.2882  0.2457 -0.4815
13416SOL    HW141925   0.646   0.533   3.019  1.6730  1.1774  1.0832
13416SOL    HW241926   0.725   0.437   3.105  1.0365 -1.2312 -0.9555
13417SOL     OW41927   2.329   5.309   3.065 -0.3740  0.3444 -0.3307
13417SOL    HW141928   2.366   5.292   3.151 -0.2491 -0.9391 -0.6394
13417SOL    HW241929   2.405   5.325   3.009 -0.3831 -0.4479 -0.5628
13418SOL     OW41930   8.697   5.328   2.373 -0.1219  0.0746 -0.0063
13418SOL    HW141931   8.757   5.277   2.426 -1.2818  0.5720  1.8185
13418SOL    HW241932   8.691   5.280   2.290  1.5883 -0.7766  0.3374
13419SOL     OW41933   8.286   3.565   7.071 -0.2842 -0.0708 -0.3580
13419SOL    HW141934   8.231   3.631   7.112 -3.1579 -2.7683  0.2828
13419SOL    HW241935   8.259   3.566   6.979  0.5804  0.4838 -0.6175
13420SOL     OW41936   4.119   8.971   6.453  0.3284 -0.0411 -0.2159
13420SOL    HW141937   4.053   8.927   6.399  0.4208  0.7842 -1.0034
13420SOL    HW241938   4.185   9.001   6.390  2.2194 -2.1451  0.6829
13421SOL     OW41939   1.639   3.082   1.948 -0.6185 -0.0952  0.4626
13421SOL    HW141940   1.686   3.041   1.875  0.6679 -0.1093  1.2711
13421SOL    HW241941   1.675   3.040   2.026 -0.6006  1.2614  1.2058
13422SOL     OW41942   1.864   3.804   4.638  0.1998  0.8009 -0.2548
13422SOL    HW141943   1.829   3.789   4.551 -1.6615 -0.9575  0.7610
13422SOL    HW241944   1.907   3.722   4.661 -0.6193  0.7276  1.0672
13423SOL     OW41945   8.426   5.684   6.982 -0.0971 -0.1166 -0.0148
13423SOL    HW141946   8.461   5.736   7.054 -1.1429  1.1033 -0.3647
13423SOL    HW241947   8.417   5.746   6.910 -0.5200 -0.9820 -0.7156
13424SOL     OW41948   1.329   2.955   0.812 -0.3397 -0.2466  0.4465
13424SOL    HW141949   1.265   2.983   0.878  0.4656 -0.2520  1.2408
13424SOL    HW241950   1.316   2.861   0.803  0.3340 -0.4477  1.4708
13425SOL     OW41951   3.288   3.574   4.132  0.1656  0.4843 -0.0849
13425SOL    HW141952   3.236   3.638   4.180  1.2825  1.7737 -0.5664
13425SOL    HW241953   3.377   3.610   4.131  0.8504 -1.1270 -0.2664
13426SOL     OW41954   4.661   2.772   2.880 -0.2662 -0.2740  0.2106
13426SOL    HW141955   4.581   2.815   2.911  0.2109  0.0414  0.9941
13426SOL    HW241956   4.670   2.695   2.936 -1.2847 -1.5971 -1.3752
13427SOL     OW41957   0.199   3.612   1.829  0.0949  0.2332 -0.2464
13427SOL    HW141958   0.178   3.593   1.737  0.4353  1.0303 -0.4934
13427SOL    HW241959   0.151   3.545   1.879  0.2300 -0.4520 -1.0206
13428SOL     OW41960   2.556   5.062   9.055 -0.2479 -0.2927 -0.1353
13428SOL    HW141961   2.491   4.994   9.069 -0.3779  0.0763  1.0965
13428SOL    HW241962   2.530   5.133   9.113  0.9948  0.0429  0.0273
13429SOL     OW41963   4.484   4.565   7.383 -0.7331 -0.1081  0.2191
13429SOL    HW141964   4.502   4.659   7.386 -1.0054 -0.0690  0.6372
13429SOL    HW241965   4.445   4.551   7.296 -0.6347  0.1553  0.1313
13430SOL     OW41966   4.938   1.209   6.199  0.0592 -0.4140 -0.3848
13430SOL    HW141967   4.961   1.161   6.119 -2.0658 -2.5362  0.2089
13430SOL    HW241968   4.985   1.162   6.269 -1.6580 -1.4151  0.1380
13431SOL     OW41969   7.793   8.677   3.590  0.0601 -0.1219  0.7572
13431SOL    HW141970   7.735   8.689   3.666  1.3353 -0.4403  1.8026
13431SOL    HW241971   7.736   8.641   3.522 -0.6447 -2.0482  2.3131
13432SOL     OW41972   2.124   1.248   1.619 -0.0268 -0.0252  0.1976
13432SOL    HW141973   2.132   1.203   1.703  0.4888 -0.2084  0.0486
13432SOL    HW241974   2.204   1.298   1.610 -0.0570 -0.0476 -0.2106
13433SOL     OW41975   3.153   0.145   1.304 -0.2019 -0.2963  0.5032
13433SOL    HW141976   3.166   0.210   1.372  1.2181 -0.0613  0.0204
13433SOL    HW241977   3.170   0.191   1.222 -0.1168 -1.0265  0.0987
13434SOL     OW41978   2.779   8.187   2.246  0.3524  0.5676  0.4416
13434SOL    HW141979   2.832   8.265   2.224 -0.0551  0.9448  0.7896
13434SOL    HW241980   2.735   8.165   2.164  0.5349  0.6508  0.3185
13435SOL     OW41981   2.778   3.747   5.404 -0.0984 -0.4779 -0.5050
13435SOL    HW141982   2.687   3.765   5.380 -0.8170 -3.5157 -0.2127
13435SOL    HW241983   2.786   3.778   5.494 -0.3842  1.1420 -1.0088
13436SOL     OW41984   4.025   6.196   7.404  0.0441  0.4416 -0.3637
13436SOL    HW141985   4.066   6.141   7.337  0.7307 -0.1144  0.4953
13436SOL    HW241986   4.098   6.241   7.446 -0.3396  0.4572  0.3008
13437SOL     OW41987   6.899   5.309   1.859  0.2962 -0.1230  0.0902
13437SOL    HW141988   6.921   5.275   1.772  1.7103 -0.3497  0.5318
13437SOL    HW241989   6.806   5.289   1.869 -0.2442  1.2454 -1.9796
13438SOL     OW41990   0.048   3.706   7.934 -0.8994  0.3491  0.2681
13438SOL    HW141991   0.139   3.728   7.954 -0.9903 -0.1694  1.2697
13438SOL    HW241992   0.044   3.610   7.942 -1.8545  0.4871  1.6239
13439SOL     OW41993   1.123   3.771   0.445  0.2559  0.9772  0.3269
13439SOL    HW141994   1.109   3.862   0.421 -1.2023  0.6332 -0.1560
13439SOL    HW241995   1.214   3.754   0.421  0.4464  2.2146  0.1459
13440SOL     OW41996   2.502   3.483   4.538 -0.4316  0.3320  0.1083
13440SOL    HW141997   2.510   3.388   4.528  1.8670  0.5120 -0.0614
13440SOL    HW241998   2.411   3.497   4.564 -1.2045 -1.7864 -1.3279
13441SOL     OW41999   7.874   8.079   3.590  0.4917  0.2385 -0.5389
13441SOL    HW142000   7.930   8.125   3.652 -0.5492 -0.5203  0.9991
13441SOL    HW242001   7.924   8.002   3.564  0.6902  0.2502 -0.1872
13442SOL     OW42002   7.700   1.823   7.916 -0.4973 -0.1371  0.7737
13442SOL    HW142003   7.621   1.790   7.873  0.0467  0.4491 -0.7027
13442SOL    HW242004   7.772   1.779   7.872  0.0188 -0.6784  2.1224
13443SOL     OW42005   2.716   8.581   2.966  0.5432 -0.7313  0.2205
13443SOL    HW142006   2.622   8.598   2.978  0.6340  0.1535 -0.3057
13443SOL    HW242007   2.759   8.645   3.024  0.8797  0.6301 -1.5076
13444SOL     OW42008   4.230   8.979   1.427 -0.0874 -0.0557 -0.1050
13444SOL    HW142009   4.312   8.933   1.447  0.2700  0.0080 -1.3776
13444SOL    HW242010   4.217   9.039   1.500  0.7104 -0.4658  0.3746
13445SOL     OW42011   7.501   8.024   8.912 -0.3063  0.1310  0.0387
13445SOL    HW142012   7.486   7.966   8.837  2.3927 -0.5084 -0.0590
13445SOL    HW242013   7.419   8.022   8.960 -1.5451 -0.7443 -2.0226
13446SOL     OW42014   5.242   2.827   3.598  0.1883 -0.0827  0.4105
13446SOL    HW142015   5.242   2.783   3.513  0.2294  1.7034 -0.5513
13446SOL    HW242016   5.215   2.760   3.660  0.8461 -1.6149 -0.9115
13447SOL     OW42017   5.629   0.467   2.725  0.3325  0.4274 -0.6418
13447SOL    HW142018   5.678   0.527   2.780 -0.5609  1.7475 -1.2628
13447SOL    HW242019   5.674   0.468   2.640 -0.8689  1.8145 -1.2817
13448SOL     OW42020   6.475   1.249   2.245 -0.3442 -0.4465 -0.0809
13448SOL    HW142021   6.429   1.177   2.203  0.0556 -0.3351 -0.7166
13448SOL    HW242022   6.567   1.221   2.246 -0.4099 -0.6727  1.1849
13449SOL     OW42023   8.806   1.200   2.510 -0.0088  0.2068 -0.0093
13449SOL    HW142024   8.823   1.144   2.587 -1.1682 -1.1860 -0.7388
13449SOL    HW242025   8.832   1.287   2.538  0.4970 -0.4507  1.6578
13450SOL     OW42026   2.346   3.171   6.785  0.0361 -0.0521 -0.1297
13450SOL    HW142027   2.337   3.109   6.713  0.3652 -0.2030 -0.0430
13450SOL    HW242028   2.266   3.223   6.782 -0.3847 -0.6881 -0.0095
13451SOL     OW42029   2.189   5.753   6.930 -0.0822 -0.3403 -0.4806
13451SOL    HW142030   2.255   5.695   6.892  0.6083 -0.4944  0.9367
13451SOL    HW242031   2.116   5.695   6.954 -0.7460 -0.1721 -2.0283
13452SOL     OW42032   5.965   2.715   4.896 -0.1418  0.4204 -0.2819
13452SOL    HW142033   6.034   2.766   4.939  0.0402 -0.4007  0.4092
13452SOL    HW242034   5.898   2.704   4.963 -0.8606  1.0294 -0.8877
13453SOL     OW42035   7.156   2.495   4.291  0.0319  0.0725 -1.0692
13453SOL    HW142036   7.185   2.478   4.380  0.2337 -2.9970 -1.6837
13453SOL    HW242037   7.228   2.544   4.251  1.2729 -1.2171 -0.4546
13454SOL     OW42038   3.422   5.146   1.911  0.1568 -0.1804  0.5551
13454SOL    HW142039   3.448   5.055   1.919  2.2190  0.2275 -1.0388
13454SOL    HW242040   3.478   5.192   1.974 -2.2865 -0.1976  2.8526
13455SOL     OW42041   1.368   4.784   1.602 -0.0930 -0.4982 -0.0862
13455SOL    HW142042   1.335   4.753   1.686  1.9150 -0.1474  0.8564
13455SOL    HW242043   1.328   4.870   1.590 -1.7883 -1.3054 -0.3615
13456SOL     OW42044   5.197   2.671   3.878 -0.0879 -1.0201 -0.6694
13456SOL    HW142045   5.231   2.680   3.967  0.7518 -1.5671 -0.9314
13456SOL    HW242046   5.211   2.579   3.857 -0.0487 -0.8310 -1.4682
13457SOL     OW42047   5.589   8.438   0.597  0.5619  0.3433 -0.0214
13457SOL    HW142048   5.641   8.373   0.645  0.1128  0.1220  0.1671
13457SOL    HW242049   5.604   8.418   0.505 -3.5005 -3.2365 -0.0606
13458SOL     OW42050   1.187   2.981   0.581  0.0494  0.2654 -0.2349
13458SOL    HW142051   1.276   3.003   0.610  0.5914  0.5267 -2.0395
13458SOL    HW242052   1.198   2.901   0.530 -1.2187 -1.5146  2.1649
13459SOL     OW42053   7.493   0.480   8.297  0.6666 -0.5304 -0.0065
13459SOL    HW142054   7.415   0.483   8.242  0.7416 -0.6631 -0.1240
13459SOL    HW242055   7.556   0.428   8.247  1.2322  0.5379 -0.4174
13460SOL     OW42056   6.707   1.345   1.698  0.0985  0.0983 -0.6323
13460SOL    HW142057   6.767   1.387   1.635  0.1725 -0.1036 -0.6958
13460SOL    HW242058   6.649   1.416   1.725 -1.3460 -0.2966 -2.5872
13461SOL     OW42059   0.104   3.140   0.873 -0.1410 -0.0416  0.3208
13461SOL    HW142060   0.169   3.075   0.847 -0.2190 -0.2033  0.5255
13461SOL    HW242061   0.151   3.223   0.869  1.2370 -0.5317  4.1731
13462SOL     OW42062   3.063   8.464   7.348 -0.0833  0.0134 -0.1397
13462SOL    HW142063   3.059   8.379   7.305  0.7178  0.2438 -0.6913
13462SOL    HW242064   3.157   8.485   7.350 -0.3436  1.2273 -0.6886
13463SOL     OW42065   4.027   1.433   1.206 -0.1461  0.3454 -0.3091
13463SOL    HW142066   4.034   1.529   1.206  2.2670  0.2102 -0.4350
13463SOL    HW242067   4.081   1.405   1.280  0.4754 -0.9730 -1.2310
13464SOL     OW42068   4.421   0.419   8.381  0.0969 -0.0812  0.1305
13464SOL    HW142069   4.406   0.359   8.454  0.8847 -0.2767  0.1425
13464SOL    HW242070   4.510   0.451   8.395  0.3636 -0.3667 -0.9289
13465SOL     OW42071   2.036   2.860   1.712  0.5038  0.3577  0.4119
13465SOL    HW142072   2.035   2.773   1.671 -0.4810 -0.2358  1.6817
13465SOL    HW242073   2.091   2.913   1.653 -0.2471 -0.6712 -1.2687
13466SOL     OW42074   4.688   0.695   8.591  0.1574  0.4628  0.6618
13466SOL    HW142075   4.724   0.653   8.669  1.0210  0.5951  0.3355
13466SOL    HW242076   4.719   0.642   8.518  0.3460  1.0267  0.3251
13467SOL     OW42077   6.682   4.682   8.372 -0.3641 -0.0148  0.2775
13467SOL    HW142078   6.671   4.611   8.436  0.3705  2.2447  3.0364
13467SOL    HW242079   6.773   4.675   8.344 -0.3469 -0.2850  0.4014
13468SOL     OW42080   4.692   5.760   2.963  0.2214  0.1583  0.0524
13468SOL    HW142081   4.635   5.796   2.895 -1.1206  1.2341  1.7087
13468SOL    HW242082   4.734   5.684   2.921 -0.1315  1.1245 -2.1333
13469SOL     OW42083   7.395   5.774   3.186  0.1516 -0.2834  0.0522
13469SOL    HW142084   7.345   5.710   3.135  1.2075 -0.4418 -0.7908
13469SOL    HW242085   7.425   5.724   3.263 -0.6216 -0.2990  0.3454
13470SOL     OW42086   8.970   5.683   2.406  0.4199  0.0395 -0.0510
13470SOL    HW142087   8.896   5.673   2.345  1.1472 -2.2340 -0.6167
13470SOL    HW242088   9.047   5.680   2.351  0.9963  1.4410  0.6519
13471SOL     OW42089   3.868   6.348   7.215  0.5712 -0.0883  0.6387
13471SOL    HW142090   3.854   6.436   7.249  0.0535 -1.0609  3.0767
13471SOL    HW242091   3.906   6.299   7.289 -0.5441 -2.2796 -0.1797
13472SOL     OW42092   6.606   2.641   7.104  0.0060  0.1939  0.8553
13472SOL    HW142093   6.672   2.698   7.067  1.7304 -1.0641  1.9239
13472SOL    HW242094   6.575   2.588   7.031  0.0295  0.9020  0.3270
13473SOL     OW42095   1.702   7.107   7.834 -0.0047  0.0779  0.0560
13473SOL    HW142096   1.616   7.076   7.862 -0.3067 -1.0254 -1.9918
13473SOL    HW242097   1.684   7.165   7.760  1.1004 -1.6313 -1.5908
13474SOL     OW42098   2.498   6.580   3.082 -0.4670  0.3192  0.0831
13474SOL    HW142099   2.562   6.559   3.014  0.6338 -0.1439  1.2486
13474SOL    HW242100   2.425   6.520   3.065  0.2858 -0.5831  0.0048
13475SOL     OW42101   6.961   1.953   6.878 -0.0880 -0.2344  0.6484
13475SOL    HW142102   7.042   2.002   6.889  0.1341 -0.6741  1.0010
13475SOL    HW242103   6.927   1.943   6.967  0.3073 -1.4461  0.6766
13476SOL     OW42104   0.246   1.675   9.006 -0.2919  0.3263  0.7966
13476SOL    HW142105   0.236   1.592   8.958  1.1061 -0.2852  1.5173
13476SOL    HW242106   0.187   1.667   9.081  0.2526 -0.2657  1.1706
13477SOL     OW42107   6.204   3.680   3.984  0.0030 -0.3328 -0.3533
13477SOL    HW142108   6.194   3.629   3.904  0.7838 -0.1532 -0.5718
13477SOL    HW242109   6.206   3.771   3.954  0.0173 -0.2503 -0.1011
13478SOL     OW42110   0.952   9.193   7.969  0.3696  0.2795  0.2933
13478SOL    HW142111   0.914   9.115   8.010  0.4031  0.0222 -0.1742
13478SOL    HW242112   0.914   9.195   7.882  0.7184  0.5375  0.1501
13479SOL     OW42113   6.440   0.049   1.385  0.6476 -0.4115 -0.0708
13479SOL    HW142114   6.372   0.116   1.378 -0.5796 -1.7250 -0.9396
13479SOL    HW242115   6.521   0.098   1.389 -0.3005  1.1713  0.3277
13480SOL     OW42116   6.960   1.908   8.411  0.2010  0.2166  0.2888
13480SOL    HW142117   6.905   1.830   8.398  0.2057  0.5294 -1.7658
13480SOL    HW242118   7.040   1.874   8.450 -0.1722 -0.6950  0.2882
13481SOL     OW42119   2.942   9.022   2.357  0.0185 -0.4653  0.4641
13481SOL    HW142120   2.875   8.991   2.296  0.1958 -0.6892  0.3826
13481SOL    HW242121   2.908   9.106   2.389  0.0943 -0.1739 -0.2204
13482SOL     OW42122   7.928   4.449   4.466 -0.7105 -0.4259 -0.2173
13482SOL    HW142123   7.913   4.542   4.480  1.3351 -0.2942  1.3673
13482SOL    HW242124   7.876   4.406   4.534 -0.0592 -0.3403  0.3365
13483SOL     OW42125   4.869   1.706   1.300 -0.0670  0.5264  0.2931
13483SOL    HW142126   4.872   1.787   1.351  0.1028  0.6180  0.1375
13483SOL    HW242127   4.913   1.727   1.217 -0.7680  0.5119 -0.0845
13484SOL     OW42128   0.651   4.602   1.858  0.0127  0.0274  0.2266
13484SOL    HW142129   0.626   4.605   1.950 -0.3030 -1.4712  0.2063
13484SOL    HW242130   0.579   4.555   1.815  0.3376  0.3763 -0.7223
13485SOL     OW42131   6.897   2.390   2.923  0.5119  0.5366  0.0969
13485SOL    HW142132   6.925   2.384   2.832 -1.2556 -0.6420 -0.4055
13485SOL    HW242133   6.873   2.300   2.947 -0.3389  1.0617  1.2878
13486SOL     OW42134   0.575   0.610   2.376 -0.2255  0.2500  0.6399
13486SOL    HW142135   0.536   0.651   2.453 -2.1408 -4.1901  2.2073
13486SOL    HW242136   0.665   0.591   2.403 -1.2740 -2.5408  2.4290
13487SOL     OW42137   2.533   3.026   8.864 -0.2447 -0.2786  0.0705
13487SOL    HW142138   2.578   3.089   8.808  1.7860 -2.3353 -0.6807
13487SOL    HW242139   2.507   3.076   8.941  2.1385  1.2967 -0.1012
13488SOL     OW42140   3.012   0.804   6.721  0.5592 -0.1541 -0.1335
13488SOL    HW142141   3.024   0.719   6.764 -1.4197 -0.9765 -1.1451
13488SOL    HW242142   2.917   0.813   6.711  0.6886  2.5408  0.6482
13489SOL     OW42143   1.090   9.250   4.286  0.1730 -0.2229 -0.4354
13489SOL    HW142144   1.068   9.212   4.371  2.1095  1.1698  0.7378
13489SOL    HW242145   1.106   9.175   4.229  1.4487 -1.1793  1.1536
13490SOL     OW42146   1.114   2.110   7.088 -0.1776 -0.1069 -0.5765
13490SOL    HW142147   1.044   2.064   7.134 -1.4908 -1.1016 -3.4088
13490SOL    HW242148   1.185   2.046   7.081  0.0303  0.0525  0.0641
13491SOL     OW42149   9.026   0.385   5.882  0.2102 -0.5238  0.3408
13491SOL    HW142150   9.073   0.320   5.830 -0.7471 -0.2871 -0.8467
13491SOL    HW242151   8.947   0.403   5.831  0.2696  1.2716  0.8664
13492SOL     OW42152   9.091   2.372   1.555 -0.3411 -0.2130 -0.2180
13492SOL    HW142153   9.172   2.415   1.581 -0.4182  0.4785 -1.0778
13492SOL    HW242154   9.070   2.410   1.469 -1.1072 -1.0167 -0.3993
13493SOL     OW42155   0.788   3.502   4.426  0.0153 -0.5100  0.2346
13493SOL    HW142156   0.716   3.539   4.375  1.4462  0.4711 -1.1199
13493SOL    HW242157   0.866   3.520   4.374  1.2930 -1.2606  1.8429
13494SOL     OW42158   0.754   6.493   0.467 -0.6246 -0.4044  0.6189
13494SOL    HW142159   0.736   6.587   0.467  2.3571  0.2204  0.9388
13494SOL    HW242160   0.728   6.463   0.380  0.8084  1.2503 -0.4147
13495SOL     OW42161   4.744   0.814   5.505 -0.5187 -0.2579 -0.1436
13495SOL    HW142162   4.753   0.719   5.510 -1.2048 -0.3933 -1.3224
13495SOL    HW242163   4.833   0.847   5.507 -0.2559 -0.9583 -0.4268
13496SOL     OW42164   8.017   3.316   7.800  0.3252 -0.3660  0.3347
13496SOL    HW142165   8.035   3.395   7.749  0.2869 -0.0595  0.7976
13496SOL    HW242166   8.006   3.247   7.734 -1.7252  0.4302 -0.1828
13497SOL     OW42167   5.102   1.360   3.112 -0.3271  0.4822 -0.6944
13497SOL    HW142168   5.148   1.376   3.194  0.1718 -1.3164 -0.5762
13497SOL    HW242169   5.096   1.445   3.070 -3.7180  2.0355  2.7569
13498SOL     OW42170   8.798   8.777   4.805 -0.0976 -0.3209 -0.5533
13498SOL    HW142171   8.861   8.826   4.858 -1.7738  1.8110 -0.4539
13498SOL    HW242172   8.770   8.705   4.861 -1.5042  1.6447  1.3827
13499SOL     OW42173   5.301   4.907   8.423  0.2545  0.0297 -0.2524
13499SOL    HW142174   5.237   4.856   8.473  0.0617 -1.2521 -1.7682
13499SOL    HW242175   5.330   4.847   8.354  2.5507  0.8352 -0.0273
13500SOL     OW42176   2.071   4.447   1.527  0.2031  0.4118 -0.3789
13500SOL    HW142177   2.039   4.415   1.611  1.6950  1.8484  0.7637
13500SOL    HW242178   2.163   4.419   1.524  0.0827  0.0922 -1.6898
13501SOL     OW42179   0.310   7.225   1.623  0.0700  0.0881  0.5677
13501SOL    HW142180   0.313   7.298   1.684  1.0702  1.3197 -0.8995
13501SOL    HW242181   0.262   7.259   1.547  2.4488 -0.0286 -1.0454
13502SOL     OW42182   4.308   2.200   5.647 -0.2133  0.6055  0.2727
13502SOL    HW142183   4.215   2.193   5.666 -0.4393 -0.8109 -1.3373
13502SOL    HW242184   4.344   2.113   5.666  0.3708  0.4883 -1.2662
13503SOL     OW42185   8.971   0.594   9.053  0.1483  0.1232  0.1424
13503SOL    HW142186   8.967   0.689   9.066 -2.1971  0.0480  0.2631
13503SOL    HW242187   9.037   0.564   9.114  2.5875  1.9231 -1.4991
13504SOL     OW42188   7.108   7.101   9.289  0.3450 -0.8378  0.1493
13504SOL    HW142189   7.183   7.113   9.346 -0.7008  2.9609  0.9179
13504SOL    HW242190   7.133   7.144   9.207 -0.9788  0.5756  0.4597
13505SOL     OW42191   3.168   5.567   0.143  0.2341  0.1660 -0.0668
13505SOL    HW142192   3.163   5.521   0.060 -0.5209  1.9989 -1.0768
13505SOL    HW242193   3.077   5.567   0.176  0.3264  0.4376  0.1966
13506SOL     OW42194   3.778   0.090   0.780 -0.4132  0.8236 -0.2093
13506SOL    HW142195   3.771   0.079   0.685  0.6689 -0.3550 -0.1548
13506SOL    HW242196   3.871   0.107   0.795  0.1323 -2.7861  0.9973
13507SOL     OW42197   4.340   4.438   2.426  0.1562  0.0581  0.1570
13507SOL    HW142198   4.416   4.495   2.438  0.0762  0.3982 -0.8849
13507SOL    HW242199   4.264   4.497   2.432 -0.0246 -0.2925  1.2700
13508SOL     OW42200   2.417   6.938   7.416 -0.6704 -0.2997 -0.5448
13508SOL    HW142201   2.349   7.005   7.423 -0.2939  0.0204  0.0680
13508SOL    HW242202   2.472   6.950   7.494  1.3473  0.8597 -2.0819
13509SOL     OW42203   8.886   8.715   2.035 -0.0396 -0.5433  0.6876
13509SOL    HW142204   8.819   8.653   2.008  0.6332 -1.1028  0.2954
13509SOL    HW242205   8.871   8.729   2.128  0.3940 -2.0206  0.9827
13510SOL     OW42206   8.284   5.159   4.460 -0.1367  0.3374 -0.2731
13510SOL    HW142207   8.220   5.088   4.454  0.7622 -0.5260  0.0784
13510SOL    HW242208   8.232   5.239   4.465 -1.1433 -0.1488 -2.6436
13511SOL     OW42209   2.789   8.089   6.491 -0.5175 -0.8179 -0.4462
13511SOL    HW142210   2.763   8.143   6.565 -1.1726 -0.6409 -0.8032
13511SOL    HW242211   2.711   8.038   6.470  0.3084 -2.4475  0.3527
13512SOL     OW42212   8.124   4.446   3.575 -0.3639  0.1292  0.5299
13512SOL    HW142213   8.030   4.439   3.558 -0.3880 -0.9625  1.0138
13512SOL    HW242214   8.130   4.455   3.671 -0.0114  1.0238  0.4282
13513SOL     OW42215   8.574   3.320   4.441 -0.8726 -0.1268  0.5723
13513SOL    HW142216   8.545   3.406   4.473 -2.3454 -0.5653  0.4705
13513SOL    HW242217   8.574   3.264   4.519 -0.6484 -0.2235  0.5028
13514SOL     OW42218   7.931   2.510   1.514 -0.1344  0.1488  0.2369
13514SOL    HW142219   7.952   2.471   1.599  1.1271  0.8264  0.2487
13514SOL    HW242220   7.970   2.450   1.451 -2.0322 -0.9508  0.0724
13515SOL     OW42221   2.181   8.677   3.991  0.0134  0.0072  0.2648
13515SOL    HW142222   2.178   8.739   4.064  1.2079 -0.8104  1.0198
13515SOL    HW242223   2.264   8.695   3.947  0.7946 -1.6215  1.0149
13516SOL     OW42224   0.883   6.606   2.105 -0.5211 -0.3783  0.3725
13516SOL    HW142225   0.880   6.555   2.024  3.3441  4.1159 -2.8581
13516SOL    HW242226   0.933   6.552   2.166 -1.3100 -2.7775 -1.0428
13517SOL     OW42227   3.482   8.606   7.776  0.3958 -0.2315 -0.0106
13517SOL    HW142228   3.515   8.683   7.729  2.0460 -0.9272 -0.0432
13517SOL    HW242229   3.418   8.567   7.716  0.1605  0.6457 -0.3382
13518SOL     OW42230   0.359   8.582   0.190  0.4262  0.3248 -0.2216
13518SOL    HW142231   0.313   8.659   0.223 -0.1562 -0.0083 -0.2611
13518SOL    HW242232   0.419   8.617   0.124 -1.3485  0.5136 -1.7907
13519SOL     OW42233   8.089   1.040   4.826 -0.0786  0.4259  0.2984
13519SOL    HW142234   8.065   1.133   4.818 -0.9212  0.1730 -0.1343
13519SOL    HW242235   8.006   0.994   4.823  0.4711 -0.4836 -1.4695
13520SOL     OW42236   7.712   6.463   6.305 -0.2097  0.3136  0.1169
13520SOL    HW142237   7.763   6.450   6.225 -1.7629  0.5501 -0.9529
13520SOL    HW242238   7.757   6.533   6.352 -1.0628  2.4784 -2.1409
13521SOL     OW42239   7.159   4.480   6.148 -0.6600 -0.8019  0.3385
13521SOL    HW142240   7.114   4.542   6.206  0.1655  1.2770 -1.1736
13521SOL    HW242241   7.244   4.465   6.191  0.4897  1.7640 -0.8947
13522SOL     OW42242   2.337   4.270   3.976 -0.1895  0.4001 -0.1555
13522SOL    HW142243   2.419   4.241   3.936 -0.6747 -0.7937 -0.3129
13522SOL    HW242244   2.306   4.340   3.918  0.7301  0.8804 -0.0752
13523SOL     OW42245   1.327   0.625   1.319  0.6259  0.2438  0.2473
13523SOL    HW142246   1.336   0.708   1.272  0.5720 -0.3691 -0.8446
13523SOL    HW242247   1.386   0.634   1.394  1.7630  0.6760 -0.6891
13524SOL     OW42248   2.314   5.303   4.874  0.3332 -0.0190 -0.4742
13524SOL    HW142249   2.317   5.282   4.967  1.0704 -3.2990 -1.1907
13524SOL    HW242250   2.403   5.284   4.842 -0.2869 -0.2744 -2.1004
13525SOL     OW42251   3.371   3.632   9.128  0.5080 -0.1784 -0.2775
13525SOL    HW142252   3.382   3.538   9.145  0.4842 -0.2768 -0.7798
13525SOL    HW242253   3.409   3.644   9.041 -0.2021  0.1322 -0.5466
13526SOL     OW42254   5.324   7.658   4.300 -0.5421  0.5872  0.4305
13526SOL    HW142255   5.412   7.668   4.335 -0.3545 -1.4176  0.5725
13526SOL    HW242256   5.267   7.657   4.378 -0.5543  0.5795  0.4221
13527SOL     OW42257   4.183   8.508   0.015 -0.1740 -0.0237  0.0511
13527SOL    HW142258   4.221   8.442  -0.043  0.4949 -0.0029  0.4557
13527SOL    HW242259   4.191   8.470   0.102  0.3277  0.6361  0.2996
13528SOL     OW42260   5.217   4.252   1.482  0.1163 -0.0434  0.1532
13528SOL    HW142261   5.244   4.222   1.396 -0.5714  0.7618 -0.3553
13528SOL    HW242262   5.297   4.283   1.523  0.4855 -0.6528 -0.1010
13529SOL     OW42263   2.523   8.980   5.657 -0.8898 -0.3882 -0.3254
13529SOL    HW142264   2.522   9.067   5.618  2.2357 -0.1880 -0.1229
13529SOL    HW242265   2.533   8.996   5.751  0.1283 -0.9396 -0.3306
13530SOL     OW42266   0.986   0.800   5.417 -0.1697  0.1342  0.3782
13530SOL    HW142267   1.021   0.888   5.430  2.0909 -0.6474 -0.1751
13530SOL    HW242268   1.001   0.782   5.324 -0.2630 -0.9645  0.5690
13531SOL     OW42269   6.758   5.659   0.068  0.8626  0.0626 -0.0902
13531SOL    HW142270   6.707   5.659  -0.013  0.5208  0.6028  0.1174
13531SOL    HW242271   6.706   5.712   0.128 -0.2094 -2.5433  1.3409
13532SOL     OW42272   0.189   5.612   7.678  0.2920  0.1720 -0.1374
13532SOL    HW142273   0.194   5.645   7.768  0.3145  0.3683 -0.2086
13532SOL    HW242274   0.130   5.673   7.634 -2.0321 -1.6043  0.4592
13533SOL     OW42275   1.095   9.022   5.881 -0.2506  1.0165 -0.0825
13533SOL    HW142276   1.136   9.099   5.920  0.8582 -0.5808  2.0195
13533SOL    HW242277   1.009   9.018   5.922  0.3067  0.2308  1.0086
13534SOL     OW42278   7.785   2.300   3.293  0.1064 -0.1810  0.0088
13534SOL    HW142279   7.815   2.292   3.203  2.5054 -1.7090  0.8859
13534SOL    HW242280   7.862   2.329   3.342 -1.2096  0.8462  1.5468
13535SOL     OW42281   3.331   2.930   2.673 -0.9129 -0.3627 -0.1060
13535SOL    HW142282   3.366   2.926   2.762 -0.1167  0.7323 -0.3671
13535SOL    HW242283   3.407   2.936   2.616 -1.4557  0.2536 -0.7860
13536SOL     OW42284   7.381   4.220   5.782 -0.1272  0.2051  0.1048
13536SOL    HW142285   7.369   4.201   5.688 -0.6217 -0.3853  0.2823
13536SOL    HW242286   7.416   4.309   5.784  1.0397 -0.2214 -0.7006
13537SOL     OW42287   1.198   1.919   4.634  0.1579  0.0980 -0.4977
13537SOL    HW142288   1.145   1.980   4.685  1.0596  0.2772  0.2476
13537SOL    HW242289   1.243   1.973   4.570  0.3725  0.1207 -0.3307
13538SOL     OW42290   0.103   4.864   5.293 -0.2070  0.0261 -0.4685
13538SOL    HW142291   0.163   4.839   5.223  1.0940  0.3994  0.4792
13538SOL    HW242292   0.074   4.781   5.331 -0.0174 -0.1481 -0.7027
13539SOL     OW42293   8.674   9.272   7.841  0.0999  0.0323 -0.2046
13539SOL    HW142294   8.667   9.246   7.749 -1.1694  0.8778 -0.3615
13539SOL    HW242295   8.660   9.191   7.890 -0.6700 -0.1659 -0.7388
13540SOL     OW42296   4.299   2.396   2.247 -0.5394 -0.9404 -0.4138
13540SOL    HW142297   4.330   2.381   2.158  2.2870 -0.3522  0.4313
13540SOL    HW242298   4.247   2.318   2.267  1.0339 -2.3518 -1.6465
13541SOL     OW42299   5.847   2.171   7.363  1.1274  0.3566  0.4789
13541SOL    HW142300   5.924   2.124   7.332  0.7146 -0.1406  0.1917
13541SOL    HW242301   5.800   2.196   7.282 -0.1079 -1.2020  0.6937
13542SOL     OW42302   0.809   9.064   3.787 -0.3558  0.9377 -0.3131
13542SOL    HW142303   0.792   9.004   3.860  0.2728  0.8581 -0.2224
13542SOL    HW242304   0.787   9.150   3.822  0.0552  0.9120  0.0183
13543SOL     OW42305   9.269   3.824   6.585 -0.6135  0.2460 -0.3422
13543SOL    HW142306   9.187   3.798   6.626 -1.9357  1.0829 -2.3599
13543SOL    HW242307   9.284   3.914   6.616  0.3955 -0.4803  1.2934
13544SOL     OW42308   2.335   2.992   7.784  0.3500 -0.1404  0.4418
13544SOL    HW142309   2.427   2.966   7.776  0.6937  0.6829  1.6447
13544SOL    HW242310   2.319   2.999   7.878 -0.6581  0.7175  0.2227
13545SOL     OW42311   7.468   7.866   2.894  0.6342  0.7763 -0.1711
13545SOL    HW142312   7.532   7.809   2.938  1.4480  1.8672  0.0974
13545SOL    HW242313   7.458   7.828   2.807  0.4845 -0.2925  0.3007
13546SOL     OW42314   4.420   0.903   7.514 -0.6992  0.2082 -0.1457
13546SOL    HW142315   4.448   0.812   7.514  0.0837  0.4373 -1.9690
13546SOL    HW242316   4.488   0.950   7.466 -1.5548  1.6073 -0.0329
13547SOL     OW42317   1.208   4.014   3.144  0.1502 -0.0369 -0.4468
13547SOL    HW142318   1.302   3.995   3.145  0.4658  1.4981  0.5023
13547SOL    HW242319   1.190   4.049   3.232 -1.1877  0.2259 -0.8232
13548SOL     OW42320   2.391   6.798   2.730 -0.1561 -0.1095  0.3283
13548SOL    HW142321   2.437   6.722   2.695 -0.8851 -0.1960 -0.4496
13548SOL    HW242322   2.317   6.811   2.671  0.2875  1.5711  0.1044
13549SOL     OW42323   8.753   4.036   1.214  0.1993  0.1652  0.1934
13549SOL    HW142324   8.739   4.106   1.150  0.3501  0.2021  0.1994
13549SOL    HW242325   8.758   3.956   1.162 -1.5842 -0.0442  0.3302
13550SOL     OW42326   5.363   8.992   8.843 -0.4273 -0.2109  0.8394
13550SOL    HW142327   5.450   8.976   8.880  0.5309 -3.9480 -2.6532
13550SOL    HW242328   5.314   8.911   8.861 -1.5185 -0.1236 -1.5724
13551SOL     OW42329   0.530   7.528   0.887  0.0099  0.3140 -0.5490
13551SOL    HW142330   0.556   7.442   0.921  0.8338  0.9032  0.3523
13551SOL    HW242331   0.490   7.510   0.803 -0.2274 -1.0053 -0.1637
13552SOL     OW42332   0.193   2.912   3.588 -0.4374  0.3792  0.4272
13552SOL    HW142333   0.244   2.844   3.544 -0.0084  0.4192  0.8611
13552SOL    HW242334   0.258   2.969   3.628 -0.8098  0.7787  0.4667
13553SOL     OW42335   9.067   2.680   7.138 -0.2769  0.2205  0.3849
13553SOL    HW142336   9.091   2.637   7.057  1.3087  2.5071 -0.4246
13553SOL    HW242337   8.980   2.716   7.122  0.6873  2.0423 -0.9058
13554SOL     OW42338   6.962   2.041   5.514  0.5573 -0.0546 -0.0566
13554SOL    HW142339   6.983   1.955   5.478  2.4430  0.1312  0.5755
13554SOL    HW242340   7.002   2.103   5.453  0.1051  0.3657  0.0686
13555SOL     OW42341   0.479   5.273   3.381  0.6008 -0.1671 -0.1619
13555SOL    HW142342   0.423   5.339   3.422 -0.0474  0.1720 -1.5888
13555SOL    HW242343   0.469   5.196   3.437  0.4257  0.5510  0.8278
13556SOL     OW42344   2.092   3.259   6.854 -0.3948 -0.3602 -0.4437
13556SOL    HW142345   2.036   3.184   6.832 -0.9154 -0.4458  1.1553
13556SOL    HW242346   2.068   3.281   6.944  1.3376  0.3405 -0.1456
13557SOL     OW42347   1.360   4.220   8.567  0.0770  0.3221 -0.1107
13557SOL    HW142348   1.267   4.223   8.545 -0.7606 -2.2672  2.6434
13557SOL    HW242349   1.395   4.148   8.514  0.2480  0.5080 -0.2519
13558SOL     OW42350   8.849   5.764   3.820  0.0390  0.4094  0.9180
13558SOL    HW142351   8.815   5.800   3.902 -0.5077 -1.1190  1.3715
13558SOL    HW242352   8.943   5.759   3.834  0.1371  1.7471  0.8125
13559SOL     OW42353   8.939   9.192   1.948 -0.5769  0.0442  0.3163
13559SOL    HW142354   8.925   9.287   1.941 -0.9094  0.0583  1.1602
13559SOL    HW242355   9.031   9.180   1.925 -1.1417  0.2898 -2.2304
13560SOL     OW42356   6.435   4.304   6.175  0.0525 -0.2194  0.6870
13560SOL    HW142357   6.409   4.306   6.267  0.1330  0.6264  0.6954
13560SOL    HW242358   6.385   4.374   6.134 -1.0317 -1.5073 -0.2071
13561SOL     OW42359   4.464   7.018   5.391  0.2606 -0.3280  0.1223
13561SOL    HW142360   4.559   7.019   5.405  0.2334 -2.1546  0.5528
13561SOL    HW242361   4.454   7.030   5.297  1.1758 -4.7973 -0.6777
13562SOL     OW42362   8.929   6.701   8.683  0.5332 -0.3187  0.3701
13562SOL    HW142363   8.873   6.674   8.611 -0.2047  0.0544  0.8065
13562SOL    HW242364   8.870   6.739   8.748  1.5517  2.6942 -0.3735
13563SOL     OW42365   2.892   7.168   8.890 -0.0066  0.5357 -0.2223
13563SOL    HW142366   2.986   7.176   8.878  0.1819  0.0785  0.8880
13563SOL    HW242367   2.856   7.246   8.848  0.9971  1.5767  0.8137
13564SOL     OW42368   3.697   0.667   1.085  0.3253  0.1818  0.1631
13564SOL    HW142369   3.675   0.687   1.176  0.7733  1.3471  0.0190
13564SOL    HW242370   3.636   0.598   1.060  0.0310  0.0399  1.2657
13565SOL     OW42371   3.500   5.744   5.097 -0.3712  0.1677 -0.0825
13565SOL    HW142372   3.413   5.784   5.090 -2.2875 -3.8254 -0.9481
13565SOL    HW242373   3.526   5.727   5.007  0.1706 -0.8703  0.2551
13566SOL     OW42374   8.156   4.708   7.530  0.2304 -0.3072 -0.3032
13566SOL    HW142375   8.072   4.738   7.494 -0.1384 -1.0887 -0.1124
13566SOL    HW242376   8.216   4.711   7.456  0.3404  1.4274 -0.1577
13567SOL     OW42377   2.492   6.200   5.684 -0.0457  0.1822  0.2345
13567SOL    HW142378   2.547   6.262   5.635 -2.7897  1.5043 -1.2652
13567SOL    HW242379   2.499   6.229   5.775 -0.7680  2.3657 -0.3632
13568SOL     OW42380   2.212   1.671   2.132 -0.5109 -0.0083 -0.2727
13568SOL    HW142381   2.303   1.654   2.158 -0.4312 -0.0771 -0.5969
13568SOL    HW242382   2.211   1.654   2.038 -0.7916  0.2815 -0.3192
13569SOL     OW42383   0.111   8.487   5.718  0.7954  0.6251  0.4308
13569SOL    HW142384   0.192   8.442   5.694  0.8058  0.8174  0.0834
13569SOL    HW242385   0.091   8.541   5.641  0.4935  0.7964  0.6276
13570SOL     OW42386   1.478   4.429   4.241  0.1033 -0.2386 -0.1095
13570SOL    HW142387   1.406   4.490   4.230  0.3158 -0.1044 -0.7576
13570SOL    HW242388   1.440   4.356   4.291 -0.2066  0.3094  0.4610
13571SOL     OW42389   5.039   0.814   5.420 -0.3271  0.0233  0.4693
13571SOL    HW142390   5.069   0.898   5.454  1.5112 -0.9892  1.4427
13571SOL    HW242391   5.087   0.802   5.338 -0.0313 -0.4091  0.7052
13572SOL     OW42392   5.516   4.066   0.562 -0.1657  0.4098  0.6667
13572SOL    HW142393   5.531   4.110   0.478  2.6828 -1.5295  0.0828
13572SOL    HW242394   5.449   4.000   0.542 -0.0911  0.4992  0.0989
13573SOL     OW42395   4.756   5.187   0.697  0.1501  0.0904  0.5417
13573SOL    HW142396   4.696   5.215   0.628  1.3452  1.9184  0.2050
13573SOL    HW242397   4.744   5.092   0.703 -1.1294  0.1401 -1.0639
13574SOL     OW42398   5.921   0.046   5.825  0.0660 -0.4102  0.0499
13574SOL    HW142399   5.841   0.073   5.871 -0.3353  1.6089 -1.7998
13574SOL    HW242400   5.892   0.024   5.737  1.3158 -1.2990 -0.1548
13575SOL     OW42401   8.668   9.286   1.447 -0.1785 -0.4991 -0.6776
13575SOL    HW142402   8.746   9.335   1.420 -1.0996  3.3978  3.0746
13575SOL    HW242403   8.703   9.204   1.483  2.0705  0.5210 -0.4339
13576SOL     OW42404   4.085   6.681   3.715 -0.5295 -0.0030 -0.2027
13576SOL    HW142405   4.139   6.632   3.776 -0.9669 -0.8785 -0.5133
13576SOL    HW242406   4.121   6.661   3.629 -1.0167 -0.1817 -0.3703
13577SOL     OW42407   3.278   0.568   0.033 -0.0669  0.1252  0.1198
13577SOL    HW142408   3.194   0.541   0.069  0.2930 -1.8449 -0.4333
13577SOL    HW242409   3.341   0.550   0.102  0.1092  0.0546 -0.0570
13578SOL     OW42410   7.352   5.769   2.314  0.0654 -0.5827  0.5101
13578SOL    HW142411   7.413   5.801   2.247 -0.4854  1.9272  1.1250
13578SOL    HW242412   7.269   5.757   2.268 -0.1143  0.3955  0.5641
13579SOL     OW42413   6.879   6.425   5.660 -0.1940 -0.4672 -0.5860
13579SOL    HW142414   6.856   6.336   5.633 -0.7405 -0.1488 -1.1957
13579SOL    HW242415   6.840   6.434   5.747  1.3203 -1.3987  0.1987
13580SOL     OW42416   5.132   8.520   5.916  0.1959  0.2176 -0.0264
13580SOL    HW142417   5.054   8.520   5.972  0.5784 -0.1172  0.5133
13580SOL    HW242418   5.172   8.434   5.931  0.3718  0.1789 -0.7196
13581SOL     OW42419   7.176   7.824   9.241  0.3186  0.4338  0.3438
13581SOL    HW142420   7.217   7.851   9.323 -0.8432 -0.8091  1.3635
13581SOL    HW242421   7.123   7.898   9.214  2.4547  1.6938 -0.4795
13582SOL     OW42422   5.738   0.804   0.091  0.1618  0.5424  0.0292
13582SOL    HW142423   5.804   0.870   0.113 -0.6764  1.1098  0.8934
13582SOL    HW242424   5.687   0.845   0.020  0.3775  0.3366 -0.2458
13583SOL     OW42425   1.107   1.451   1.887 -0.2642 -0.2003  0.2953
13583SOL    HW142426   1.175   1.488   1.830  0.8233 -2.1457  0.2889
13583SOL    HW242427   1.056   1.394   1.828 -1.2436  0.4201  0.5367
13584SOL     OW42428   3.898   8.580   1.725  0.5699  0.2653 -0.1349
13584SOL    HW142429   3.846   8.540   1.655  1.1052 -0.8045  0.0745
13584SOL    HW242430   3.867   8.670   1.729 -0.2181  0.0406 -1.0303
13585SOL     OW42431   5.183   6.998   0.789 -0.0454 -0.1168  0.5260
13585SOL    HW142432   5.170   6.915   0.743 -1.4508  1.5147 -2.1776
13585SOL    HW242433   5.246   6.978   0.858  0.5299 -3.1539 -0.7979
13586SOL     OW42434   8.490   4.207   8.351 -0.3431 -0.1183  0.0389
13586SOL    HW142435   8.400   4.233   8.333 -1.1197 -1.8239  1.3663
13586SOL    HW242436   8.543   4.260   8.291 -2.3046 -0.1747 -1.7641
13587SOL     OW42437   4.284   3.300   6.164  0.2407 -0.1596 -0.2421
13587SOL    HW142438   4.338   3.230   6.200 -0.2043 -0.0286  0.7023
13587SOL    HW242439   4.335   3.380   6.177  0.0588 -0.1059  0.1551
13588SOL     OW42440   4.769   2.578   2.251 -0.2431  0.0029 -0.4651
13588SOL    HW142441   4.784   2.484   2.238 -1.9603 -0.1126 -1.8150
13588SOL    HW242442   4.796   2.595   2.341  0.1405 -1.7780 -0.2322
13589SOL     OW42443   6.412   0.197   3.544  0.4131  0.1538  0.2036
13589SOL    HW142444   6.345   0.175   3.608 -1.0434  3.7247  0.0311
13589SOL    HW242445   6.455   0.274   3.581 -1.1424  2.9487 -3.5061
13590SOL     OW42446   9.135   8.988   3.455  0.0925  0.0785 -0.6833
13590SOL    HW142447   9.041   9.004   3.449  0.1314  0.6553  0.1815
13590SOL    HW242448   9.173   9.039   3.383 -0.4063 -1.5955 -2.1813
13591SOL     OW42449   3.331   2.212   8.269  0.6462  0.3260 -0.3952
13591SOL    HW142450   3.241   2.187   8.249  1.1030 -1.0381 -0.7711
13591SOL    HW242451   3.323   2.290   8.324 -0.7251  1.2945 -1.9252
13592SOL     OW42452   4.668   0.634   3.522  0.4611  0.4979  0.1006
13592SOL    HW142453   4.634   0.715   3.560 -0.0009  0.9285 -1.1887
13592SOL    HW242454   4.730   0.663   3.455  0.4828 -0.2233 -0.1959
13593SOL     OW42455   8.384   4.580   3.282 -0.8128 -0.0412 -0.0587
13593SOL    HW142456   8.452   4.618   3.338  1.1580 -2.7451 -0.4699
13593SOL    HW242457   8.308   4.572   3.339  0.2125  0.0991  1.3758
13594SOL     OW42458   0.901   9.218   2.284  0.6566 -0.3161  0.2473
13594SOL    HW142459   0.824   9.275   2.276  0.3207 -0.7426  0.4301
13594SOL    HW242460   0.884   9.167   2.363  1.0091 -0.5946  0.1389
13595SOL     OW42461   3.472   0.769   0.325  0.2963  0.0476 -0.4653
13595SOL    HW142462   3.486   0.846   0.380 -0.5812  0.0218 -0.2110
13595SOL    HW242463   3.463   0.804   0.236 -2.2763  0.4343 -0.0743
13596SOL     OW42464   3.474   8.167   5.115  0.2659  0.0513  0.3648
13596SOL    HW142465   3.569   8.178   5.109  0.0508  2.3728  0.8839
13596SOL    HW242466   3.443   8.174   5.025  0.4068  1.1045  0.3964
13597SOL     OW42467   5.004   0.931   7.640 -0.2340 -0.5456 -0.7590
13597SOL    HW142468   5.072   0.886   7.690  0.2076 -1.7664 -2.3955
13597SOL    HW242469   4.940   0.863   7.621 -0.7895  0.0874 -1.1694
13598SOL     OW42470   0.753   3.198   4.372  0.2646 -0.2254 -0.1628
13598SOL    HW142471   0.793   3.146   4.442 -0.3556 -0.0563  0.3276
13598SOL    HW242472   0.763   3.288   4.401 -0.6126 -0.1895  0.0476
13599SOL     OW42473   3.688   2.802   7.322  0.1285  0.1348 -0.8314
13599SOL    HW142474   3.638   2.768   7.248 -1.5817 -0.2079  0.4728
13599SOL    HW242475   3.755   2.857   7.281 -0.7554 -0.0767 -2.6345
13600SOL     OW42476   1.943   3.986   3.274  0.5528 -1.3614  0.1820
13600SOL    HW142477   1.901   4.064   3.310 -0.1689 -2.0764  0.9373
13600SOL    HW242478   1.907   3.977   3.186 -0.7251 -1.8282  0.7371
13601SOL     OW42479   6.404   2.382   8.230  1.1031  0.7236 -0.6203
13601SOL    HW142480   6.376   2.295   8.259 -0.5321  0.6133 -2.3914
13601SOL    HW242481   6.376   2.441   8.300  0.9296 -0.0197 -0.0603
13602SOL     OW42482   5.226   8.036   2.591  0.2266  0.1065 -0.3823
13602SOL    HW142483   5.162   8.021   2.521 -1.3051 -0.8731  1.1997
13602SOL    HW242484   5.311   8.038   2.545 -0.7882  0.0421 -2.3270
13603SOL     OW42485   7.962   0.533   1.936  0.2322  0.4579  0.3247
13603SOL    HW142486   7.970   0.515   2.030 -3.9543  0.9480  0.8893
13603SOL    HW242487   7.956   0.446   1.896 -0.2144  0.2743  0.7803
13604SOL     OW42488   0.928   4.108   5.397  0.2483 -0.4697  0.4977
13604SOL    HW142489   0.959   4.045   5.461  1.4100  0.3108  0.7260
13604SOL    HW242490   0.862   4.061   5.346 -2.4153 -0.4326  3.7277
13605SOL     OW42491   5.255   5.767   8.327  0.2008  0.3730  0.2938
13605SOL    HW142492   5.189   5.772   8.257  0.6923  1.0011 -0.1250
13605SOL    HW242493   5.237   5.843   8.382 -0.7621 -0.6148  1.3676
13606SOL     OW42494   0.338   3.135   1.535  0.1202  0.3629  0.9678
13606SOL    HW142495   0.243   3.125   1.530 -0.0162  1.7387  0.3861
13606SOL    HW242496   0.361   3.106   1.623 -0.5642 -1.9626  0.4158
13607SOL     OW42497   5.883   9.121   8.426 -0.8897 -0.0966  0.1784
13607SOL    HW142498   5.931   9.100   8.506  1.3312  0.6922 -0.9007
13607SOL    HW242499   5.926   9.201   8.393 -1.9525 -0.2434 -1.6334
13608SOL     OW42500   6.388   2.840   2.831  0.2004 -0.0234 -0.7761
13608SOL    HW142501   6.319   2.810   2.890  0.1962 -0.7667 -1.1427
13608SOL    HW242502   6.374   2.790   2.750  0.6863  0.3966 -1.1276
13609SOL     OW42503   0.559   2.795   2.113 -0.1240  1.2599 -0.2475
13609SOL    HW142504   0.545   2.821   2.203  3.2892 -0.3647  0.8406
13609SOL    HW242505   0.571   2.877   2.065 -0.8198  2.0737  0.9594
13610SOL     OW42506   8.194   0.123   6.313 -0.8722  0.0411  0.2968
13610SOL    HW142507   8.252   0.111   6.388  0.0546 -0.5902 -0.5189
13610SOL    HW242508   8.108   0.096   6.345 -0.4036 -0.6100  1.0183
13611SOL     OW42509   6.604   5.208   3.801 -0.0286  0.2089  0.0272
13611SOL    HW142510   6.580   5.211   3.709  0.6624  0.7327 -0.1407
13611SOL    HW242511   6.699   5.198   3.801 -0.2947 -2.5833  0.6751
13612SOL     OW42512   3.100   4.929   7.586  0.1623  0.2440  0.0834
13612SOL    HW142513   3.015   4.884   7.582  0.6534 -0.6953  0.0910
13612SOL    HW242514   3.163   4.863   7.558  0.7234  1.4314 -1.4672
13613SOL     OW42515   3.892   5.055   2.074 -0.4780  0.3945 -0.1151
13613SOL    HW142516   3.874   5.145   2.046 -0.7170  0.3301 -0.1699
13613SOL    HW242517   3.841   5.001   2.015  1.7383  0.0746 -1.7982
13614SOL     OW42518   0.051   8.833   2.202 -0.0571  0.1310 -0.2418
13614SOL    HW142519   0.081   8.804   2.288 -1.7386  0.7612  0.5681
13614SOL    HW242520   0.029   8.925   2.214  1.9455  0.8793 -1.9507
13615SOL     OW42521   6.107   1.866   0.711  0.2000 -0.4730 -0.1902
13615SOL    HW142522   6.152   1.838   0.631  0.4022  0.6268 -0.4739
13615SOL    HW242523   6.014   1.866   0.688  0.1786 -1.1485 -0.1093
13616SOL     OW42524   0.016   4.974   7.104  0.0511  0.5524 -0.6470
13616SOL    HW142525   0.057   4.963   7.189 -1.9913  0.4762  0.3684
13616SOL    HW242526   0.088   4.968   7.041  1.2882 -1.6523  0.9161
13617SOL     OW42527   5.496   2.069   4.271 -0.3361 -0.1291  0.2483
13617SOL    HW142528   5.589   2.071   4.293 -0.7306 -1.3531  2.1258
13617SOL    HW242529   5.458   2.145   4.315 -0.2484  0.3638 -0.5077
13618SOL     OW42530   7.766   5.979   0.427 -1.0901 -0.9479 -0.7858
13618SOL    HW142531   7.803   5.901   0.469 -1.1174 -1.0233 -0.9042
13618SOL    HW242532   7.747   5.952   0.338  0.9690 -0.1932 -1.4959
13619SOL     OW42533   3.274   7.571   4.515 -0.3644  0.1682  0.2666
13619SOL    HW142534   3.292   7.542   4.425 -0.8138 -0.7174  0.4517
13619SOL    HW242535   3.179   7.573   4.520 -0.3674  2.8262 -0.0839
13620SOL     OW42536   5.421   1.246   5.934  0.0941  0.1920  0.1042
13620SOL    HW142537   5.442   1.239   6.027 -0.8752  0.9468  0.3950
13620SOL    HW242538   5.500   1.280   5.893  0.7958 -0.9245  0.5257
13621SOL     OW42539   6.991   0.479   4.354 -0.3339  0.3617 -0.1308
13621SOL    HW142540   6.967   0.454   4.444  0.8967 -1.9441 -0.3814
13621SOL    HW242541   6.913   0.462   4.303 -1.0365  1.6601  0.4973
13622SOL     OW42542   1.318   5.549   7.904  0.0511 -0.1635 -0.3311
13622SOL    HW142543   1.237   5.563   7.855  0.7805 -0.6885 -1.7208
13622SOL    HW242544   1.353   5.468   7.869  0.6292 -0.5151  1.0462
13623SOL     OW42545   0.443   4.491   6.616 -0.5727  0.6620 -0.0807
13623SOL    HW142546   0.440   4.512   6.523 -0.6460 -1.8317 -0.6553
13623SOL    HW242547   0.504   4.418   6.623  0.4894  1.6923  2.0314
13624SOL     OW42548   8.894   5.188   2.527 -0.0189 -0.1706 -0.5731
13624SOL    HW142549   8.871   5.107   2.572 -0.3152 -0.1174 -0.6292
13624SOL    HW242550   8.988   5.180   2.510 -0.2572 -0.9720 -1.5367
13625SOL     OW42551   7.654   6.576   6.996  0.0485  0.1651  0.1537
13625SOL    HW142552   7.632   6.591   7.088 -2.1236  0.4237 -0.3770
13625SOL    HW242553   7.599   6.638   6.948  0.8182 -0.2955 -1.3493
13626SOL     OW42554   3.011   5.908   4.006  0.2851  0.0431  0.0665
13626SOL    HW142555   3.001   5.825   4.052  2.6017 -0.8281 -0.9258
13626SOL    HW242556   2.990   5.974   4.072  0.8069 -1.2702  1.5938
13627SOL     OW42557   1.264   1.450   4.812  0.2059 -0.6017  0.6445
13627SOL    HW142558   1.325   1.493   4.871 -0.8106  0.4445  0.9479
13627SOL    HW242559   1.197   1.516   4.793  0.0523 -1.1930 -0.9906
13628SOL     OW42560   6.453   0.653   4.977 -0.0509 -0.4707 -0.3662
13628SOL    HW142561   6.541   0.672   5.009  0.2826 -0.7318 -1.1342
13628SOL    HW242562   6.406   0.735   4.987  0.7837  0.1658 -1.6506
13629SOL     OW42563   5.448   5.467   5.075  0.0574 -0.3168  0.7185
13629SOL    HW142564   5.426   5.455   5.167  0.4249  2.3866  1.2003
13629SOL    HW242565   5.540   5.495   5.076 -0.7584  2.5107 -0.2311
13630SOL     OW42566   6.783   2.953   3.350  0.0135  0.0234 -1.0049
13630SOL    HW142567   6.762   2.921   3.438 -0.7058  1.9856 -0.4443
13630SOL    HW242568   6.698   2.959   3.306  0.2776 -0.0385 -1.5304
13631SOL     OW42569   0.686   7.976   4.761  0.4037 -0.0771  0.5818
13631SOL    HW142570   0.637   7.894   4.753  0.1540  0.1726 -0.4654
13631SOL    HW242571   0.758   7.955   4.821  0.9458 -1.3504 -0.4836
13632SOL     OW42572   6.100   0.824   0.337 -0.1300 -0.1094  0.0334
13632SOL    HW142573   6.126   0.753   0.279 -0.0441 -0.7344  0.8285
13632SOL    HW242574   6.149   0.808   0.418 -0.8829  0.2747  0.5751
13633SOL     OW42575   8.709   2.359   1.047  0.3021  0.1909 -0.2582
13633SOL    HW142576   8.616   2.339   1.058  0.1343  0.7582 -0.5867
13633SOL    HW242577   8.755   2.279   1.072 -0.2701 -0.0439  0.0405
13634SOL     OW42578   5.459   1.532   0.911 -0.0475 -0.1224 -0.0816
13634SOL    HW142579   5.400   1.461   0.884 -0.0442  0.1610 -0.8420
13634SOL    HW242580   5.547   1.496   0.895  0.0819 -1.4085  3.1774
13635SOL     OW42581   1.316   8.183   2.163 -0.0658 -0.1555 -0.3212
13635SOL    HW142582   1.368   8.244   2.111 -0.0722 -1.1532 -1.5027
13635SOL    HW242583   1.360   8.099   2.153 -0.2072 -0.4102  1.0909
13636SOL     OW42584   8.274   5.363   1.337  0.1895 -0.0193  0.1907
13636SOL    HW142585   8.180   5.374   1.350  0.1698 -0.3579  0.3464
13636SOL    HW242586   8.298   5.430   1.273 -0.0900  0.3161  0.4365
13637SOL     OW42587   4.928   4.978   7.931  0.2920 -0.4368 -0.3086
13637SOL    HW142588   4.833   4.982   7.924  0.2619 -1.6657 -0.6678
13637SOL    HW242589   4.944   4.933   8.014  0.5642  0.0959 -0.0708
13638SOL     OW42590   5.613   0.501   5.991 -0.3301 -0.1585  0.3080
13638SOL    HW142591   5.574   0.435   5.933  1.2876 -2.8911  2.2158
13638SOL    HW242592   5.677   0.546   5.935 -0.0201 -1.5808 -0.5243
13639SOL     OW42593   8.875   5.765   1.563 -0.3241  0.5717  0.2836
13639SOL    HW142594   8.878   5.799   1.653 -0.3806 -1.3140  1.0191
13639SOL    HW242595   8.944   5.699   1.561  0.4801  1.4356 -1.4344
13640SOL     OW42596   6.095   5.285   5.298 -0.3255  0.5640  0.4243
13640SOL    HW142597   6.164   5.272   5.363  0.1210 -2.1816 -0.5488
13640SOL    HW242598   6.136   5.338   5.230  0.7241 -0.6773  0.0673
13641SOL     OW42599   0.440   3.849   8.306  0.0874 -0.1304 -0.0400
13641SOL    HW142600   0.437   3.922   8.368 -0.2007 -0.3758  0.2358
13641SOL    HW242601   0.389   3.780   8.348 -3.9590  1.1847 -2.5129
13642SOL     OW42602   9.195   0.968   7.049  0.2430 -0.3933  0.1255
13642SOL    HW142603   9.220   0.989   7.139 -0.8874 -0.1997  0.4019
13642SOL    HW242604   9.186   0.873   7.048 -0.4467 -0.3332  0.4070
13643SOL     OW42605   2.050   5.469   6.128  0.5618 -0.6298 -0.2336
13643SOL    HW142606   1.982   5.486   6.063 -0.8615  0.0829  1.4043
13643SOL    HW242607   2.009   5.411   6.192  0.9624  1.0129  1.5842
13644SOL     OW42608   5.251   7.638   0.626  0.1113 -0.6317 -0.2172
13644SOL    HW142609   5.312   7.707   0.600 -0.3018  0.0184  0.5044
13644SOL    HW242610   5.177   7.648   0.565 -1.4769  1.7821  1.9908
13645SOL     OW42611   2.564   4.094   7.166  0.3845 -0.2559  0.2875
13645SOL    HW142612   2.529   4.024   7.112 -1.5108  0.8430  0.0653
13645SOL    HW242613   2.577   4.054   7.252  0.9361 -1.3080 -0.2697
13646SOL     OW42614   5.256   9.104   2.781 -0.4471 -0.1905 -0.1953
13646SOL    HW142615   5.188   9.129   2.843  2.2452 -0.3723  2.9583
13646SOL    HW242616   5.303   9.033   2.824  0.9622 -0.9355 -2.8517
13647SOL     OW42617   3.982   7.956   4.660  0.2643  0.2960 -0.3721
13647SOL    HW142618   3.895   7.979   4.629 -1.0836 -0.2597  2.7755
13647SOL    HW242619   4.027   8.039   4.672 -0.6852  0.7233  0.2594
13648SOL     OW42620   8.297   3.304   5.080 -0.5107 -0.8553  0.0310
13648SOL    HW142621   8.242   3.226   5.079 -0.5571 -0.8412  0.9433
13648SOL    HW242622   8.294   3.337   4.990 -0.8098 -1.6737 -0.2682
13649SOL     OW42623   0.764   3.031   8.796  0.0115 -0.1565  0.5159
13649SOL    HW142624   0.692   3.095   8.803  0.3081  0.2209  0.0939
13649SOL    HW242625   0.769   3.011   8.703  0.0248 -0.6780  0.6302
13650SOL     OW42626   7.813   9.288   5.282 -0.0988 -0.4851  0.1556
13650SOL    HW142627   7.778   9.203   5.309  0.9460 -0.0803  2.9744
13650SOL    HW242628   7.837   9.331   5.364 -1.8966  3.1214 -1.0804
13651SOL     OW42629   2.336   1.301   0.506 -0.4012  0.6855  0.0294
13651SOL    HW142630   2.346   1.372   0.442 -0.3345  1.2380  0.6553
13651SOL    HW242631   2.285   1.339   0.577 -0.1621  0.1787  0.4739
13652SOL     OW42632   3.134   0.639   5.523  0.6048  0.0142 -0.2517
13652SOL    HW142633   3.146   0.545   5.534  0.3159 -0.1439 -1.2307
13652SOL    HW242634   3.112   0.649   5.430 -0.5000  0.9277  0.1118
13653SOL     OW42635   2.756   6.982   2.670  0.0171 -0.5631  0.5817
13653SOL    HW142636   2.812   6.927   2.725  0.9907  0.8095  0.9788
13653SOL    HW242637   2.807   7.062   2.656 -1.0914 -0.0462 -0.5818
13654SOL     OW42638   8.825   2.863   1.220 -0.7636 -0.5758  0.2964
13654SOL    HW142639   8.894   2.817   1.267 -0.5304 -1.7292 -1.1543
13654SOL    HW242640   8.810   2.943   1.271 -0.1537 -1.5414  2.0238
13655SOL     OW42641   5.075   3.340   2.279  0.1924 -0.0397  0.2392
13655SOL    HW142642   5.050   3.367   2.191  1.3132  0.5474  0.0951
13655SOL    HW242643   4.992   3.318   2.322 -0.2525 -1.8441 -1.4488
13656SOL     OW42644   3.291   4.180   7.112 -0.6231 -0.1246 -0.7097
13656SOL    HW142645   3.262   4.248   7.050 -1.8140 -0.3249 -0.3755
13656SOL    HW242646   3.386   4.193   7.118 -0.7096  0.9034 -1.3763
13657SOL     OW42647   0.442   1.706   7.418  0.1188 -0.5638  0.5039
13657SOL    HW142648   0.413   1.622   7.382 -0.3465 -0.9682  1.7802
13657SOL    HW242649   0.493   1.747   7.348 -0.0260 -1.7163 -0.2778
13658SOL     OW42650   4.725   7.180   7.401 -0.1445 -0.2182 -0.0467
13658SOL    HW142651   4.735   7.252   7.338 -1.2757 -0.7936 -0.8918
13658SOL    HW242652   4.786   7.113   7.371  1.4081  0.6474  1.1339
13659SOL     OW42653   2.431   7.721   5.588  0.4620  0.3488 -0.9014
13659SOL    HW142654   2.369   7.794   5.580  0.5751  0.8317  2.2016
13659SOL    HW242655   2.377   7.647   5.617  0.9656  0.2106 -0.3076
13660SOL     OW42656   4.696   7.523   5.654 -0.5623  0.4590 -0.1745
13660SOL    HW142657   4.717   7.511   5.561  2.2581 -0.2375  0.5073
13660SOL    HW242658   4.717   7.439   5.694  0.5330  1.4919  1.4699
13661SOL     OW42659   5.824   6.201   5.113 -0.7207 -0.3228 -0.0007
13661SOL    HW142660   5.902   6.179   5.164 -0.8002  0.3054  0.4007
13661SOL    HW242661   5.789   6.117   5.086  0.5323 -0.5896 -0.8428
13662SOL     OW42662   6.818   7.148   3.119 -0.1185  0.1264 -0.7410
13662SOL    HW142663   6.883   7.184   3.179 -0.0337 -0.7142 -0.3182
13662SOL    HW242664   6.868   7.129   3.039 -0.0366  0.3627 -0.7458
13663SOL     OW42665   6.256   4.017   6.964 -0.1340 -0.4251 -0.3566
13663SOL    HW142666   6.338   4.061   6.985 -0.0539 -1.6349  2.0298
13663SOL    HW242667   6.282   3.933   6.927 -0.2891 -0.1774 -1.0260
13664SOL     OW42668   6.424   2.804   3.674  0.0040 -0.7240 -0.0051
13664SOL    HW142669   6.354   2.741   3.692 -0.0046 -1.2200 -1.6959
13664SOL    HW242670   6.419   2.867   3.746 -1.6246 -1.2408  0.3532
13665SOL     OW42671   0.479   2.026   2.807  0.1151  0.4822  0.3697
13665SOL    HW142672   0.509   2.070   2.887  1.3065  0.5240 -0.0886
13665SOL    HW242673   0.398   1.982   2.833 -0.3612  1.8029  1.1934
13666SOL     OW42674   0.730   0.483   2.009 -0.1674  0.2439  0.1515
13666SOL    HW142675   0.688   0.433   2.079 -0.4181 -0.9603 -0.8338
13666SOL    HW242676   0.779   0.551   2.054 -0.2947 -0.5379  1.4969
13667SOL     OW42677   4.855   4.212   3.960 -0.8338 -0.9159  0.2864
13667SOL    HW142678   4.840   4.186   4.051  2.0695 -1.3746  0.7014
13667SOL    HW242679   4.950   4.227   3.956 -1.1468  0.4755 -2.3150
13668SOL     OW42680   0.146   6.036   5.241 -0.5992 -0.2763 -0.1257
13668SOL    HW142681   0.211   5.977   5.280 -0.7088 -0.0769  0.3555
13668SOL    HW242682   0.104   6.079   5.315  0.0373  1.0110 -0.4981
13669SOL     OW42683   3.148   3.060   3.814 -0.0341  0.8721  0.5136
13669SOL    HW142684   3.141   3.079   3.907 -0.5564  0.5687  0.5426
13669SOL    HW242685   3.059   3.071   3.780 -0.2949 -1.1020  0.4691
13670SOL     OW42686   1.688   5.268   2.774  0.4411  0.5680  0.6725
13670SOL    HW142687   1.612   5.250   2.720  2.4387 -1.6779 -1.4903
13670SOL    HW242688   1.664   5.236   2.861 -0.8988 -0.5587 -0.1047
13671SOL     OW42689   1.641   8.871   5.849 -0.0687  0.1580 -0.7042
13671SOL    HW142690   1.550   8.875   5.821 -0.9575 -3.0056  1.3467
13671SOL    HW242691   1.654   8.949   5.902 -2.1073 -0.1536  0.2893
13672SOL     OW42692   3.302   6.190   0.288  0.6845  0.2588 -0.5052
13672SOL    HW142693   3.384   6.157   0.327  0.0609 -1.6373 -0.7311
13672SOL    HW242694   3.330   6.232   0.207  1.6452  1.3212  0.3655
13673SOL     OW42695   6.156   3.973   2.418 -0.1178  0.5311  0.1385
13673SOL    HW142696   6.188   3.888   2.386  0.2269  0.9011 -0.5006
13673SOL    HW242697   6.094   4.002   2.352 -1.0923  0.2578  0.9129
13674SOL     OW42698   8.012   5.062   4.890  0.5051 -0.0225  0.0774
13674SOL    HW142699   8.030   5.131   4.953  0.3759  0.6049 -0.5740
13674SOL    HW242700   8.021   5.104   4.805  0.8355 -0.9073 -0.3251
13675SOL     OW42701   9.226   5.613   5.527 -0.0628  0.0163  0.1928
13675SOL    HW142702   9.248   5.583   5.615  0.0541  0.2812  0.2559
13675SOL    HW242703   9.245   5.538   5.471 -2.3839 -0.9722  0.6712
13676SOL     OW42704   4.196   8.610   1.654  0.1949  0.2482  0.1907
13676SOL    HW142705   4.186   8.569   1.568  1.1154 -0.7019  0.5211
13676SOL    HW242706   4.108   8.639   1.677 -0.5795 -1.9489  0.1390
13677SOL     OW42707   8.560   1.228   6.575 -0.0281 -0.7194  0.5572
13677SOL    HW142708   8.650   1.198   6.577 -0.0736 -1.0828 -1.5249
13677SOL    HW242709   8.566   1.323   6.565  0.1300 -0.8621 -0.7231
13678SOL     OW42710   3.219   1.426   8.017 -0.1376  0.3187 -0.1090
13678SOL    HW142711   3.206   1.520   8.008 -1.3743  0.2045  0.3608
13678SOL    HW242712   3.144   1.396   8.069 -0.7047 -1.1850 -1.7269
13679SOL     OW42713   3.603   2.126   7.154  0.3595 -0.2412  0.0927
13679SOL    HW142714   3.509   2.146   7.153  0.7856  1.8546 -0.9686
13679SOL    HW242715   3.614   2.059   7.087 -0.4363 -0.8841  0.5858
13680SOL     OW42716   2.680   9.268   1.810 -0.5226  0.0586 -0.2420
13680SOL    HW142717   2.616   9.247   1.741  0.3553 -0.0999 -1.0151
13680SOL    HW242718   2.710   9.356   1.788 -0.2576  0.0154 -0.0485
13681SOL     OW42719   4.335   1.592   4.115 -0.0841  0.5720  0.2975
13681SOL    HW142720   4.335   1.617   4.023 -1.0506 -0.7212 -0.0674
13681SOL    HW242721   4.425   1.604   4.144  0.4690 -0.1114 -1.1140
13682SOL     OW42722   5.901   2.224   2.420  0.2570 -0.2078  0.1944
13682SOL    HW142723   5.834   2.281   2.459 -0.7322 -0.7945 -0.6071
13682SOL    HW242724   5.851   2.149   2.386  1.1185  0.1140 -1.8617
13683SOL     OW42725   8.775   6.251   9.139  0.0579 -0.1657 -0.0150
13683SOL    HW142726   8.849   6.234   9.080  1.1588  1.0686  0.9989
13683SOL    HW242727   8.772   6.346   9.148 -1.2288 -0.2400  0.5189
13684SOL     OW42728   5.138   4.223   5.348  0.1618  0.3636 -0.0779
13684SOL    HW142729   5.083   4.297   5.320  0.4960  0.5077 -0.3715
13684SOL    HW242730   5.076   4.159   5.383 -0.0370  1.2601  1.2639
13685SOL     OW42731   6.719   1.120   0.877 -0.3007 -0.6576  0.2091
13685SOL    HW142732   6.625   1.140   0.880 -0.3972 -1.3097  2.9648
13685SOL    HW242733   6.733   1.060   0.951  2.6402  1.1446  1.2004
13686SOL     OW42734   6.909   2.682   1.365  0.4666 -0.2345  0.7582
13686SOL    HW142735   6.847   2.644   1.427 -0.1663  0.6000  0.6496
13686SOL    HW242736   6.890   2.776   1.367  0.1032 -0.2534 -1.0484
13687SOL     OW42737   3.214   3.169   3.359 -0.2261 -0.2125  0.2407
13687SOL    HW142738   3.267   3.134   3.430  0.1591 -1.7188 -0.7416
13687SOL    HW242739   3.136   3.113   3.358 -0.4133  0.0500 -0.2577
13688SOL     OW42740   5.279   3.555   6.646  0.0228  0.1014  0.0906
13688SOL    HW142741   5.262   3.582   6.555 -0.2853 -0.9811 -0.1837
13688SOL    HW242742   5.202   3.504   6.671  0.5007 -0.3555  0.6567
13689SOL     OW42743   5.568   7.371   4.274  0.0649  0.2225 -0.6557
13689SOL    HW142744   5.592   7.363   4.367  1.5385 -2.1288 -1.1936
13689SOL    HW242745   5.652   7.372   4.228 -0.6748  0.8081 -1.9929
13690SOL     OW42746   1.344   1.832   4.134 -0.4432  0.2803 -0.3368
13690SOL    HW142747   1.432   1.833   4.096  0.1406  1.2938  0.9787
13690SOL    HW242748   1.313   1.743   4.121  1.5460 -0.6161  0.8647
13691SOL     OW42749   7.078   7.289   3.534  0.2336  0.4100 -0.0724
13691SOL    HW142750   7.054   7.219   3.594  1.3104  0.3726  0.3325
13691SOL    HW242751   7.081   7.368   3.589 -0.9527  0.7710 -0.5199
13692SOL     OW42752   1.412   8.040   8.485  0.5776 -0.1793  0.0330
13692SOL    HW142753   1.463   8.024   8.406  0.3505  0.0651 -0.1656
13692SOL    HW242754   1.448   8.121   8.520  0.5988 -0.2248  0.1139
13693SOL     OW42755   3.024   8.453   2.379 -0.2894  0.1755  0.0961
13693SOL    HW142756   3.112   8.482   2.356 -0.2160  0.8114  1.1465
13693SOL    HW242757   3.036   8.398   2.456 -0.5856 -1.5411 -1.0504
13694SOL     OW42758   8.268   0.876   0.110 -0.6052 -0.1091  0.1182
13694SOL    HW142759   8.289   0.850   0.020 -1.2078  1.5943 -0.5348
13694SOL    HW242760   8.202   0.813   0.139 -0.6953 -0.4298 -0.7775
13695SOL     OW42761   7.937   3.831   4.732  0.5728 -0.2876  0.6652
13695SOL    HW142762   7.958   3.804   4.643  3.2933 -0.9898  1.4734
13695SOL    HW242763   7.843   3.851   4.730  0.2384 -1.9440 -1.9195
13696SOL     OW42764   2.060   8.539   8.949 -0.1035 -0.1713 -0.3413
13696SOL    HW142765   2.029   8.626   8.972  0.9077  0.2506 -0.5533
13696SOL    HW242766   2.141   8.554   8.900  0.5750 -1.2651  0.4286
13697SOL     OW42767   1.479   4.493   8.532 -0.8468  0.1143  0.5932
13697SOL    HW142768   1.441   4.407   8.516  0.5411 -0.6817  1.4471
13697SOL    HW242769   1.564   4.474   8.574 -1.0894  1.9150  1.9509
13698SOL     OW42770   2.290   5.108   3.292 -0.5111 -0.0354 -0.3855
13698SOL    HW142771   2.285   5.116   3.197  0.0513 -0.0471 -0.4208
13698SOL    HW242772   2.320   5.018   3.306 -1.1570 -0.2174 -0.1812
13699SOL     OW42773   6.316   5.307   2.720 -0.0295  0.8322 -0.3519
13699SOL    HW142774   6.227   5.314   2.684 -0.3698 -0.0486  0.3204
13699SOL    HW242775   6.304   5.314   2.815  0.3829 -1.5341 -0.1088
13700SOL     OW42776   1.060   8.914   8.346  0.0122 -0.5086 -0.2228
13700SOL    HW142777   1.013   8.887   8.267 -0.0015  0.7112 -0.6555
13700SOL    HW242778   0.991   8.930   8.410  0.0150 -1.3809 -0.0005
13701SOL     OW42779   5.753   5.736   2.044  0.2490 -0.3008  0.1006
13701SOL    HW142780   5.810   5.678   1.994 -2.3515 -0.0053 -3.5028
13701SOL    HW242781   5.804   5.816   2.056  0.9980 -0.3648 -2.2741
13702SOL     OW42782   5.638   6.967   8.354  0.4189 -0.3201  0.7074
13702SOL    HW142783   5.583   6.891   8.374 -2.1323  1.3636  0.2834
13702SOL    HW242784   5.631   7.023   8.432  1.0908  0.1532  0.4282
13703SOL     OW42785   2.082   1.417   5.644  0.2307 -0.0669  0.2930
13703SOL    HW142786   2.112   1.494   5.692  3.0977 -0.1083 -1.3300
13703SOL    HW242787   2.024   1.453   5.576  0.6147  0.5230  0.2754
13704SOL     OW42788   8.882   2.145   7.225  0.1581  0.3034 -0.7661
13704SOL    HW142789   8.872   2.060   7.268  3.1399  0.5313  0.5327
13704SOL    HW242790   8.832   2.205   7.280  2.2259  0.2271  1.2854
13705SOL     OW42791   7.078   8.235   8.914 -0.1850  0.1579  0.1340
13705SOL    HW142792   7.001   8.292   8.920 -0.5437 -0.1999 -0.9117
13705SOL    HW242793   7.147   8.292   8.880 -0.2949  0.2054 -0.0131
13706SOL     OW42794   6.770   2.926   4.549 -0.0176 -0.0362 -0.4796
13706SOL    HW142795   6.841   2.959   4.495 -0.5014  1.9014  0.0506
13706SOL    HW242796   6.735   2.852   4.499  0.6507  0.6494 -1.9912
13707SOL     OW42797   5.715   1.588   0.137 -0.8632  0.0382 -0.2386
13707SOL    HW142798   5.664   1.507   0.143 -0.3497 -0.3144 -0.5906
13707SOL    HW242799   5.673   1.638   0.066 -1.4465  0.2796  0.2665
13708SOL     OW42800   0.382   8.380   1.231 -0.0297  0.0168  0.2803
13708SOL    HW142801   0.305   8.359   1.284 -0.4084  2.3908  0.7350
13708SOL    HW242802   0.437   8.433   1.289  0.1491  1.5656 -1.2609
13709SOL     OW42803   7.093   1.229   7.434  0.1207 -0.0195  0.2121
13709SOL    HW142804   7.133   1.201   7.516  0.9422  1.5933  0.3995
13709SOL    HW242805   7.091   1.325   7.440 -1.3905  0.0445 -0.9167
13710SOL     OW42806   0.587   2.306   5.149  0.1816  0.2829 -0.4030
13710SOL    HW142807   0.553   2.226   5.188 -0.7529  0.7079 -0.3525
13710SOL    HW242808   0.606   2.363   5.224  1.7124 -0.2187 -0.3805
13711SOL     OW42809   9.138   1.713   8.939 -0.2295 -0.2139  0.4859
13711SOL    HW142810   9.073   1.767   8.982  0.7044 -0.2010  1.9234
13711SOL    HW242811   9.186   1.671   9.011 -0.1068 -1.9411 -0.5780
13712SOL     OW42812   4.993   9.081   1.189  0.2812 -0.1091 -0.1536
13712SOL    HW142813   5.032   9.062   1.104  0.0318  1.1673 -0.5491
13712SOL    HW242814   5.057   9.047   1.252  1.1584  0.2950 -0.8232
13713SOL     OW42815   3.738   8.931   6.161  0.4577 -0.7916 -0.1467
13713SOL    HW142816   3.717   8.962   6.249  0.6233 -0.8184 -0.0968
13713SOL    HW242817   3.741   9.010   6.107  2.4865 -0.5305  0.3018
13714SOL     OW42818   8.590   3.960   1.747 -0.7404 -0.2053 -0.0675
13714SOL    HW142819   8.520   3.910   1.705  1.0890  0.0569 -3.5784
13714SOL    HW242820   8.670   3.911   1.730  0.3885  1.1701  1.0459
13715SOL     OW42821   1.569   7.091   1.191 -0.0656 -0.7927 -0.3062
13715SOL    HW142822   1.640   7.104   1.128  0.4047 -1.0456  0.1716
13715SOL    HW242823   1.553   7.177   1.229  0.5483 -0.9022  0.1912
13716SOL     OW42824   3.022   2.037   8.943  0.7993  0.3720 -0.4445
13716SOL    HW142825   3.063   2.112   8.985 -0.5776  0.8192  0.1147
13716SOL    HW242826   2.969   1.996   9.012 -2.6424  1.9551 -2.0532
13717SOL     OW42827   8.145   6.000   3.896  0.5534  0.1319 -1.0996
13717SOL    HW142828   8.219   5.939   3.892  1.3568  0.9474  0.5115
13717SOL    HW242829   8.181   6.083   3.862  0.3889  0.5233 -0.3383
13718SOL     OW42830   5.348   3.227   9.020 -0.0914  0.0091  0.2396
13718SOL    HW142831   5.262   3.183   9.015 -0.2727  0.2298  1.2762
13718SOL    HW242832   5.327   3.320   9.018  0.2576  0.0622 -1.3730
13719SOL     OW42833   7.531   5.958   3.054  0.5113 -0.1685  0.5553
13719SOL    HW142834   7.481   5.887   3.094  1.6797 -1.4218 -0.1559
13719SOL    HW242835   7.556   5.924   2.968  0.7741  1.2509  0.0548
13720SOL     OW42836   8.858   3.395   5.295  0.5965  0.3424 -1.0524
13720SOL    HW142837   8.771   3.407   5.333  0.9028  0.2730 -0.3236
13720SOL    HW242838   8.862   3.459   5.224 -0.0699  0.3088 -1.1215
13721SOL     OW42839   4.396   8.620   8.477 -0.3407  0.9556 -0.9483
13721SOL    HW142840   4.391   8.698   8.533 -2.2181  0.6743 -0.6829
13721SOL    HW242841   4.308   8.584   8.478  1.0685 -2.7180  1.1132
13722SOL     OW42842   9.203   9.251   1.655 -0.3051  0.3407  0.0929
13722SOL    HW142843   9.112   9.278   1.643 -0.8809 -0.6057  1.9512
13722SOL    HW242844   9.207   9.163   1.617 -0.0497  0.5774 -0.4227
13723SOL     OW42845   0.265   6.093   0.696  0.0992 -0.7696  0.1296
13723SOL    HW142846   0.225   6.017   0.738  1.1410 -0.0894  2.4949
13723SOL    HW242847   0.347   6.060   0.659  1.0852 -0.6277  2.1093
13724SOL     OW42848   4.717   4.988   8.627  0.1366 -0.1798  0.0617
13724SOL    HW142849   4.695   4.900   8.597  0.6795 -0.3722  0.2077
13724SOL    HW242850   4.805   4.979   8.663 -0.0002  0.3201  0.5278
13725SOL     OW42851   9.193   7.344   5.173  0.4214  0.5606  0.3429
13725SOL    HW142852   9.273   7.296   5.194 -0.4403 -1.2459 -0.4832
13725SOL    HW242853   9.158   7.370   5.258  1.4729  0.7332  0.7397
13726SOL     OW42854   1.576   5.406   8.569 -0.3661 -0.0942 -0.2215
13726SOL    HW142855   1.624   5.469   8.622 -0.9374  0.5497 -0.4613
13726SOL    HW242856   1.492   5.397   8.613  0.0100 -1.3251  0.2763
13727SOL     OW42857   7.939   1.248   3.266 -0.1022 -0.1176  0.7662
13727SOL    HW142858   7.864   1.225   3.320 -0.8988 -1.4669 -0.8816
13727SOL    HW242859   7.976   1.326   3.308 -0.2916 -1.5054  3.6209
13728SOL     OW42860   8.848   3.495   7.010 -0.9545 -0.2660  0.0923
13728SOL    HW142861   8.939   3.519   7.028 -0.3429 -3.2886  1.3275
13728SOL    HW242862   8.800   3.577   7.020  1.4882  1.1925  0.3984
13729SOL     OW42863   6.251   6.349   6.549  0.5046  0.3901 -0.0532
13729SOL    HW142864   6.300   6.295   6.486  2.4095  1.3638  0.5514
13729SOL    HW242865   6.315   6.368   6.619 -1.0227  0.9086  1.2280
13730SOL     OW42866   3.249   7.808   2.204  0.3657 -0.4225  0.8754
13730SOL    HW142867   3.180   7.769   2.258  0.0652 -0.9778  0.0874
13730SOL    HW242868   3.329   7.764   2.231  0.2437 -0.5664  1.0029
13731SOL     OW42869   7.397   0.062   4.683  0.0640 -0.1385 -0.2900
13731SOL    HW142870   7.400  -0.025   4.721  0.5017  0.3962  0.9498
13731SOL    HW242871   7.372   0.049   4.592 -1.3541 -1.4178  0.2797
13732SOL     OW42872   5.590   7.458   0.448  0.6488 -0.3264  0.4528
13732SOL    HW142873   5.505   7.431   0.413 -0.3843  0.0240  2.5939
13732SOL    HW242874   5.570   7.536   0.500  2.4450  0.3253  0.1838
13733SOL     OW42875   8.172   0.903   5.788 -0.4101 -0.1822  0.1668
13733SOL    HW142876   8.080   0.927   5.777 -0.7375 -1.7634 -0.6766
13733SOL    HW242877   8.187   0.836   5.722  1.5943  0.6723 -0.2758
13734SOL     OW42878   8.626   8.022   3.647  0.0542 -0.0069 -0.2841
13734SOL    HW142879   8.580   8.008   3.564 -1.3683  0.0760  0.4724
13734SOL    HW242880   8.695   8.085   3.625 -0.0456 -0.2962 -1.4881
13735SOL     OW42881   6.986   5.891   8.647 -0.1725 -0.1195 -0.0648
13735SOL    HW142882   6.910   5.834   8.632 -0.6570  0.7445 -1.0274
13735SOL    HW242883   7.025   5.859   8.728 -2.6454  0.5644  1.4619
13736SOL     OW42884   7.951   3.421   9.195  0.2126  0.5297 -0.6099
13736SOL    HW142885   8.026   3.440   9.251  0.5787 -2.2216 -0.0778
13736SOL    HW242886   7.988   3.414   9.107  0.8243 -1.7584 -0.2275
13737SOL     OW42887   2.260   6.290   5.585  0.1912 -0.2029 -0.0098
13737SOL    HW142888   2.254   6.363   5.648 -0.2444 -0.0731 -0.1943
13737SOL    HW242889   2.340   6.244   5.609 -0.2111 -0.4332  0.9511
13738SOL     OW42890   0.522   6.091   1.749  0.1633 -0.4729 -0.0698
13738SOL    HW142891   0.494   6.143   1.673 -1.0475 -0.2267  0.5327
13738SOL    HW242892   0.450   6.030   1.764  0.1174 -0.0963  1.2699
13739SOL     OW42893   2.369   8.220   6.242  0.3765 -0.5372  0.0846
13739SOL    HW142894   2.324   8.185   6.165  0.1817  0.2275 -0.1550
13739SOL    HW242895   2.425   8.148   6.272 -2.3990 -2.1760  1.5458
13740SOL     OW42896   8.661   6.185   5.692 -0.3099 -0.1837 -0.0221
13740SOL    HW142897   8.574   6.154   5.667  1.1305 -1.7156 -3.5151
13740SOL    HW242898   8.686   6.129   5.766 -1.9069 -0.3096  0.4501
13741SOL     OW42899   0.145   2.692   7.523  0.2845  0.4486  0.0432
13741SOL    HW142900   0.173   2.601   7.518  0.1766  0.3954  0.4388
13741SOL    HW242901   0.052   2.688   7.545  0.3423  0.6588  0.3320
13742SOL     OW42902   7.138   4.499   5.826 -0.8197 -0.3637  0.3735
13742SOL    HW142903   7.058   4.498   5.879 -1.4777  2.3856 -0.4853
13742SOL    HW242904   7.206   4.528   5.887 -0.5460 -2.1627  0.9616
13743SOL     OW42905   8.497   6.001   5.341  0.4668  0.4458 -0.0427
13743SOL    HW142906   8.460   6.023   5.427 -0.3922 -0.1731 -0.2518
13743SOL    HW242907   8.572   6.061   5.332 -0.7840  2.0711  0.1533
13744SOL     OW42908   0.591   8.561   8.903 -1.2754 -0.1781  0.0510
13744SOL    HW142909   0.585   8.478   8.857 -1.0791  0.1036 -0.4868
13744SOL    HW242910   0.586   8.538   8.996 -0.8649 -0.8172 -0.0853
13745SOL     OW42911   3.856   0.030   7.228  0.5810  0.3588  0.4771
13745SOL    HW142912   3.806   0.033   7.147 -1.4266  0.1788  1.6730
13745SOL    HW242913   3.866   0.122   7.253  1.2536  0.4177  0.0084
13746SOL     OW42914   8.682   7.799   8.417  0.4195  0.0859  0.1593
13746SOL    HW142915   8.667   7.735   8.487  0.8374 -1.3375 -1.0433
13746SOL    HW242916   8.599   7.803   8.370  0.8434 -0.6930 -0.6712
13747SOL     OW42917   4.035   6.350   5.290  0.0808 -0.0828 -0.0334
13747SOL    HW142918   3.963   6.370   5.350 -0.4853  0.1621 -0.7888
13747SOL    HW242919   4.099   6.420   5.305 -0.7943  0.9283 -0.8833
13748SOL     OW42920   3.107   2.730   3.630 -0.3391 -0.1389 -0.6950
13748SOL    HW142921   3.189   2.685   3.650  0.4033  1.6347  0.2865
13748SOL    HW242922   3.090   2.707   3.538  0.1949 -2.1257 -0.3374
13749SOL     OW42923   6.179   5.442   7.370  0.0422  0.0743 -0.2663
13749SOL    HW142924   6.091   5.413   7.396  0.0737 -0.8058 -1.1283
13749SOL    HW242925   6.167   5.476   7.282  0.2487  1.5527  0.2654
13750SOL     OW42926   4.249   2.423   8.057 -0.6430  0.0617 -0.0727
13750SOL    HW142927   4.167   2.447   8.100 -0.0291  0.8600  0.6535
13750SOL    HW242928   4.278   2.504   8.014  0.0091 -0.0931  0.0700
13751SOL     OW42929   6.812   5.762   7.700 -0.2637  0.8305  0.6386
13751SOL    HW142930   6.752   5.750   7.626 -0.4971 -0.4165  1.0270
13751SOL    HW242931   6.880   5.695   7.687  0.1262  1.1268  1.1222
13752SOL     OW42932   3.127   7.095   7.031  0.0987 -0.1233 -0.0825
13752SOL    HW142933   3.138   7.177   6.983  0.9701 -0.4232 -0.3932
13752SOL    HW242934   3.166   7.028   6.975  1.5232 -0.4156  1.2274
13753SOL     OW42935   4.373   4.448   5.014  0.0363 -0.1318  0.2077
13753SOL    HW142936   4.378   4.526   4.960  1.7007 -1.6315 -1.8971
13753SOL    HW242937   4.280   4.438   5.034 -0.1046  2.8799  1.3145
13754SOL     OW42938   8.167   4.834   1.543  0.2385 -0.2978 -0.2758
13754SOL    HW142939   8.111   4.762   1.572  0.2355 -0.0918  0.2351
13754SOL    HW242940   8.183   4.886   1.622 -1.0115  1.1241 -0.9318
13755SOL     OW42941   6.700   6.365   1.543  0.1464 -0.0125  0.0855
13755SOL    HW142942   6.638   6.326   1.604  0.8406  1.3225  1.6876
13755SOL    HW242943   6.692   6.459   1.558  2.5895  0.1829  0.3844
13756SOL     OW42944   8.489   3.302   1.308 -0.2147  0.4395  0.1913
13756SOL    HW142945   8.402   3.324   1.273 -0.7820 -1.6162  0.2245
13756SOL    HW242946   8.525   3.386   1.337 -2.2700  1.3154  0.3254
13757SOL     OW42947   0.294   5.224   0.195 -0.0184  0.1128  0.1618
13757SOL    HW142948   0.288   5.146   0.251  0.6194  0.6901  1.0372
13757SOL    HW242949   0.220   5.215   0.135 -1.0569 -0.2339  1.4543
13758SOL     OW42950   3.316   8.997   4.196  0.1615 -0.5649 -0.3454
13758SOL    HW142951   3.221   9.006   4.199  0.0641 -1.4472 -0.7889
13758SOL    HW242952   3.336   8.979   4.104  0.8843  0.9486 -0.5096
13759SOL     OW42953   1.873   0.240   7.036 -0.1153  0.1262  0.1589
13759SOL    HW142954   1.945   0.177   7.036  0.0014  0.2565  1.1563
13759SOL    HW242955   1.899   0.305   6.970 -0.1603 -0.7652 -0.7614
13760SOL     OW42956   4.595   2.562   3.491  0.3398  0.2591 -0.4554
13760SOL    HW142957   4.667   2.534   3.547  1.1823  0.3518 -1.4586
13760SOL    HW242958   4.638   2.608   3.419 -0.6930 -0.1206 -1.3275
13761SOL     OW42959   4.030   8.695   3.552  0.0768 -0.5134  0.0236
13761SOL    HW142960   3.957   8.680   3.492  0.9728 -0.3370 -1.1321
13761SOL    HW242961   4.091   8.750   3.502  1.4737 -1.5193  0.5978
13762SOL     OW42962   7.222   4.846   9.203 -0.1719 -0.3922  0.4197
13762SOL    HW142963   7.170   4.876   9.128  0.5711 -0.5464 -0.1579
13762SOL    HW242964   7.237   4.753   9.187  0.4970 -0.2944  0.4628
13763SOL     OW42965   1.416   8.046   3.915  1.0283  0.5281 -0.1869
13763SOL    HW142966   1.443   8.027   4.005  0.6719  1.4223  0.1070
13763SOL    HW242967   1.465   8.124   3.890  0.4348  0.8210 -0.4525
13764SOL     OW42968   5.438   7.970   7.007  0.4355  0.0444 -0.0800
13764SOL    HW142969   5.422   7.988   6.914 -1.5377 -0.5152  0.1173
13764SOL    HW242970   5.471   8.052   7.042 -0.6376  0.8393 -0.8892
13765SOL     OW42971   3.860   6.947   1.570  0.3799  0.2083 -0.5654
13765SOL    HW142972   3.918   6.981   1.637 -0.2605 -0.7294  0.4768
13765SOL    HW242973   3.778   6.996   1.581 -0.2246 -0.9885  0.3184
13766SOL     OW42974   4.590   2.389   2.854  0.8292 -0.4010 -0.1862
13766SOL    HW142975   4.514   2.344   2.889  1.8948 -0.8017  1.6303
13766SOL    HW242976   4.575   2.391   2.759 -1.5200 -0.2910  0.1674
13767SOL     OW42977   4.142   4.555   5.434 -0.1437 -0.5054  0.1850
13767SOL    HW142978   4.134   4.579   5.342  3.3254 -1.6135 -0.4535
13767SOL    HW242979   4.116   4.463   5.438 -0.9708 -0.2645  0.4478
13768SOL     OW42980   5.754   5.490   7.764  0.2170 -0.2222 -0.2938
13768SOL    HW142981   5.840   5.529   7.774  0.6338 -1.4243  0.9867
13768SOL    HW242982   5.769   5.410   7.714 -0.1577 -0.4154 -0.0995
13769SOL     OW42983   3.690   5.810   6.915 -0.3195  0.3576  0.0950
13769SOL    HW142984   3.652   5.852   6.992 -0.0606 -0.6048  0.7624
13769SOL    HW242985   3.772   5.857   6.900  0.0309  0.0136  0.9104
13770SOL     OW42986   6.351   1.731   2.224  0.7258 -0.1090  0.1855
13770SOL    HW142987   6.345   1.672   2.299  0.4800  1.1834  1.2006
13770SOL    HW242988   6.405   1.684   2.161 -0.9197 -2.1797  0.2458
13771SOL     OW42989   7.389   9.050   0.564 -0.4142  0.4978 -0.4212
13771SOL    HW142990   7.440   9.110   0.617  1.1437  0.1269 -1.4672
13771SOL    HW242991   7.357   9.104   0.491 -1.6696  0.7651  0.3139
13772SOL     OW42992   3.998   2.898   1.486  0.1977  0.4134  0.1710
13772SOL    HW142993   4.076   2.905   1.541  0.9012 -1.4891 -0.5389
13772SOL    HW242994   3.925   2.896   1.548  0.8205  0.6511  0.9172
13773SOL     OW42995   0.887   2.162   8.984 -0.4114  0.0877 -0.3304
13773SOL    HW142996   0.806   2.189   8.939  1.0209 -0.4596 -3.4095
13773SOL    HW242997   0.942   2.241   8.984 -0.6676  0.2720  1.1260
13774SOL     OW42998   7.061   8.789   3.219 -0.7127  0.3374 -0.7457
13774SOL    HW142999   6.979   8.784   3.269 -0.7488  1.7449 -0.6444
13774SOL    HW243000   7.033   8.804   3.129 -0.5441  1.8821 -0.5466
13775SOL     OW43001   2.504   5.819   4.182  0.0866  0.0180 -0.0242
13775SOL    HW143002   2.519   5.899   4.233 -2.0573 -0.6462  1.7427
13775SOL    HW243003   2.445   5.767   4.237  0.4626 -2.2418 -1.7008
13776SOL     OW43004   6.888   8.833   2.004  0.1086 -0.0356 -0.3578
13776SOL    HW143005   6.869   8.926   2.012  1.5149  0.0509  2.8393
13776SOL    HW243006   6.888   8.816   1.910 -1.8030  2.8175 -0.9271
13777SOL     OW43007   8.761   1.231   2.816 -0.3464  0.5688  0.3854
13777SOL    HW143008   8.685   1.177   2.837 -1.3599  1.2963 -1.2825
13777SOL    HW243009   8.808   1.240   2.898 -0.3915 -2.4855  0.7868
13778SOL     OW43010   7.539   6.309   2.176  0.4788 -0.6659  0.2164
13778SOL    HW143011   7.445   6.319   2.161  0.4374  0.3178  1.0151
13778SOL    HW243012   7.546   6.263   2.260  0.6964 -0.5249  0.2792
13779SOL     OW43013   6.964   3.326   7.542 -0.4215 -0.0652 -0.6140
13779SOL    HW143014   7.025   3.394   7.511  1.3579 -1.1162  0.5471
13779SOL    HW243015   6.879   3.355   7.509  0.1835  3.1090  0.4125
13780SOL     OW43016   4.970   4.623   7.577 -0.1146  0.8745 -0.5124
13780SOL    HW143017   4.982   4.632   7.671  1.2493  0.6754 -0.6541
13780SOL    HW243018   4.976   4.529   7.560 -0.7577  0.8736 -0.7458
13781SOL     OW43019   7.720   8.507   3.125  0.1213  0.4231  0.0597
13781SOL    HW143020   7.757   8.572   3.184  0.7099  1.7722 -1.7329
13781SOL    HW243021   7.643   8.474   3.170  0.4403  1.5704  1.4804
13782SOL     OW43022   6.248   2.778   8.254 -0.1536  0.1219 -0.2102
13782SOL    HW143023   6.186   2.705   8.246 -0.4992  0.3847  0.0353
13782SOL    HW243024   6.274   2.777   8.346  0.4927 -0.2173 -0.3974
13783SOL     OW43025   7.345   3.400   7.659  0.6958 -0.0948  0.1051
13783SOL    HW143026   7.335   3.482   7.707  0.6211 -0.0972  0.0932
13783SOL    HW243027   7.285   3.339   7.703 -0.6351  0.3652 -1.0612
13784SOL     OW43028   3.465   2.959   2.937 -0.2926 -0.4430 -0.0298
13784SOL    HW143029   3.416   3.002   3.007 -0.5118 -0.0424 -0.4218
13784SOL    HW243030   3.487   2.873   2.972  0.3065  0.0526  0.8398
13785SOL     OW43031   1.335   3.128   4.275  0.1779  0.0302 -0.2626
13785SOL    HW143032   1.388   3.201   4.242  0.5941  0.5432  1.4913
13785SOL    HW243033   1.396   3.075   4.325 -0.5403 -0.4723  0.0886
13786SOL     OW43034   2.620   1.287   0.541  1.3352  0.2074 -0.3060
13786SOL    HW143035   2.658   1.375   0.546 -0.2213  0.8260  2.1831
13786SOL    HW243036   2.525   1.303   0.539  1.0343 -1.4115  0.5022
13787SOL     OW43037   5.171   4.977   5.724 -0.2300  0.4806 -0.6742
13787SOL    HW143038   5.091   4.953   5.676 -1.9421  0.4978  2.0506
13787SOL    HW243039   5.139   5.008   5.809  2.7118  0.2305  0.5631
13788SOL     OW43040   5.452   1.677   6.078  0.6536  0.3825 -0.0585
13788SOL    HW143041   5.479   1.753   6.026 -2.7177  0.9392 -1.0782
13788SOL    HW243042   5.438   1.712   6.166 -1.6184  1.1724 -0.6892
13789SOL     OW43043   3.922   5.788   6.359 -0.4525 -0.1899  0.6924
13789SOL    HW143044   3.965   5.703   6.356  0.4291  0.3040 -1.7226
13789SOL    HW243045   3.904   5.810   6.268 -0.8799  2.1028  1.2872
13790SOL     OW43046   0.794   0.299   5.757 -0.8832 -0.6064  0.0189
13790SOL    HW143047   0.805   0.344   5.841  1.8516 -1.0065 -0.0776
13790SOL    HW243048   0.879   0.307   5.714 -1.4534 -2.6594 -1.5997
13791SOL     OW43049   5.947   1.385   1.325 -0.0861 -0.1239  0.0604
13791SOL    HW143050   5.988   1.321   1.384  0.4057 -1.0367 -1.2324
13791SOL    HW243051   5.920   1.456   1.382  1.4877 -0.4242  1.2324
13792SOL     OW43052   3.125   3.972   3.707 -0.7908 -0.3482 -0.4481
13792SOL    HW143053   3.086   4.058   3.689 -1.9242 -0.8034 -0.1902
13792SOL    HW243054   3.200   3.991   3.763 -1.1177  0.4670 -0.2800
13793SOL     OW43055   5.670   7.842   6.476  0.4810  0.0180 -0.1033
13793SOL    HW143056   5.749   7.795   6.504 -0.8391 -2.2751 -0.0580
13793SOL    HW243057   5.651   7.807   6.389 -1.0956 -0.3072  0.3441
13794SOL     OW43058   7.112   0.789   7.255  0.5476 -0.2244  0.3204
13794SOL    HW143059   7.188   0.840   7.227  2.3306 -3.1113 -0.2593
13794SOL    HW243060   7.039   0.851   7.252  2.4012  1.9404 -1.6004
13795SOL     OW43061   5.938   3.555   6.923 -0.0831  0.4595  0.7575
13795SOL    HW143062   5.916   3.469   6.959 -0.0338 -0.3258 -1.0360
13795SOL    HW243063   6.027   3.572   6.955  1.6030 -2.0938 -2.2137
13796SOL     OW43064   8.172   7.784   1.480  0.0792  0.2205 -0.0598
13796SOL    HW143065   8.220   7.708   1.513  0.3515  0.4671  0.1187
13796SOL    HW243066   8.224   7.816   1.408  0.5014  0.8532  0.5221
13797SOL     OW43067   5.868   2.717   5.931  0.0311 -0.2604  0.3245
13797SOL    HW143068   5.909   2.630   5.929  0.9573  0.2105 -1.9155
13797SOL    HW243069   5.784   2.704   5.886  1.0367  0.4121 -1.7991
13798SOL     OW43070   6.639   5.855   2.618  0.1442  0.0901 -0.0170
13798SOL    HW143071   6.705   5.805   2.570  1.1158  1.4144 -0.0999
13798SOL    HW243072   6.595   5.790   2.673 -0.9731 -1.4636 -2.6391
13799SOL     OW43073   0.578   3.621   7.846  0.3499  0.4788  0.4670
13799SOL    HW143074   0.639   3.689   7.873  1.6691 -1.3279  2.1797
13799SOL    HW243075   0.512   3.618   7.915  0.2234  0.1107  0.3357
13800SOL     OW43076   5.991   3.388   3.241  0.6006 -0.1611 -0.1788
13800SOL    HW143077   5.958   3.353   3.323  2.8559 -1.4981  0.1841
13800SOL    HW243078   6.062   3.447   3.266  0.6846  0.1554 -1.1248
13801SOL     OW43079   0.714   7.379   9.065 -0.3678  0.0087 -0.5552
13801SOL    HW143080   0.630   7.399   9.108 -0.1738 -0.9836  0.3244
13801SOL    HW243081   0.690   7.354   8.976 -0.9317  0.5870 -0.5700
13802SOL     OW43082   2.416   9.258   5.700 -0.0996 -0.0383  0.7626
13802SOL    HW143083   2.479   9.213   5.757 -0.8170 -1.2422  0.6238
13802SOL    HW243084   2.331   9.244   5.742 -0.5163 -0.0856 -0.0817
13803SOL     OW43085   4.076   1.984   9.163 -0.5468 -0.1429 -0.0943
13803SOL    HW143086   4.144   1.941   9.216 -0.2843 -0.1581 -0.4452
13803SOL    HW243087   4.012   2.014   9.228 -0.9278 -1.3856  0.1376
13804SOL     OW43088   8.983   7.595   6.648 -0.3535 -0.1756  0.2668
13804SOL    HW143089   9.073   7.617   6.671 -0.3361 -1.5894  1.6959
13804SOL    HW243090   8.948   7.674   6.607  1.8106  0.0617 -1.1620
13805SOL     OW43091   3.574   7.715   0.976  0.5970  0.4204  0.1314
13805SOL    HW143092   3.585   7.620   0.982 -1.7787 -0.0235 -1.7866
13805SOL    HW243093   3.638   7.743   0.911 -0.2681 -0.2357 -1.0330
13806SOL     OW43094   7.092   5.734   1.547 -0.2971 -0.1871 -0.0415
13806SOL    HW143095   7.054   5.689   1.472  0.9360 -0.3661 -0.5750
13806SOL    HW243096   7.130   5.665   1.600  2.3925  0.2477 -1.3169
13807SOL     OW43097   8.596   3.781   5.975 -0.1107  0.8355  0.1324
13807SOL    HW143098   8.519   3.836   5.991  0.7669  2.1858 -0.1506
13807SOL    HW243099   8.666   3.844   5.955  0.5483 -0.4682 -1.7884
13808SOL     OW43100   6.172   8.624   3.650 -0.1197 -0.4579  0.7012
13808SOL    HW143101   6.197   8.582   3.568 -1.3688 -0.0506  0.0861
13808SOL    HW243102   6.235   8.695   3.661  0.9338 -1.4069  0.8455
13809SOL     OW43103   8.967   0.764   0.243  0.3469  0.5256  0.2760
13809SOL    HW143104   8.953   0.672   0.219  0.9510 -0.0774  2.1566
13809SOL    HW243105   8.897   0.812   0.199  0.3676 -0.7627 -1.1851
13810SOL     OW43106   2.619   4.545   6.395  0.0106 -0.0870  0.5383
13810SOL    HW143107   2.535   4.501   6.402  0.2083 -0.2304  1.9881
13810SOL    HW243108   2.648   4.527   6.305 -2.1625  1.1766 -0.4620
13811SOL     OW43109   6.093   1.892   5.943  0.0806  0.0057  0.2905
13811SOL    HW143110   5.998   1.895   5.950  0.1108  0.1461  0.6421
13811SOL    HW243111   6.122   1.838   6.016  0.1084 -2.2729 -1.3309
13812SOL     OW43112   1.302   3.967   0.528 -0.3134  0.2554 -0.3650
13812SOL    HW143113   1.277   4.057   0.505  0.8937  0.8901  0.7472
13812SOL    HW243114   1.392   3.975   0.561 -0.1808 -1.3725 -0.3070
13813SOL     OW43115   8.745   5.994   2.076 -0.0011 -0.4564 -0.2131
13813SOL    HW143116   8.801   5.918   2.062  0.2368 -0.3041 -0.0848
13813SOL    HW243117   8.688   5.996   2.000  0.1809 -0.6010 -0.3523
13814SOL     OW43118   0.717   4.060   2.719 -0.0834  0.3099  0.4152
13814SOL    HW143119   0.698   4.042   2.627  1.7119  0.5828 -0.0363
13814SOL    HW243120   0.787   3.998   2.742  1.3812  2.0440  0.7922
13815SOL     OW43121   8.997   8.956   4.011 -0.1603  0.3953 -0.2510
13815SOL    HW143122   9.034   9.019   4.072 -0.5149 -0.6748  1.0923
13815SOL    HW243123   9.067   8.892   3.998  0.0945  0.8802 -1.3855
13816SOL     OW43124   8.297   6.280   4.705 -0.1819  0.3349  0.7852
13816SOL    HW143125   8.340   6.329   4.635 -0.7491  0.0432  0.2178
13816SOL    HW243126   8.276   6.346   4.771 -1.4738  0.9785 -0.2426
13817SOL     OW43127   2.745   0.205   1.657 -0.2150 -0.2312 -0.7207
13817SOL    HW143128   2.754   0.237   1.568 -1.7227  1.0101 -0.4398
13817SOL    HW243129   2.711   0.279   1.707 -0.2932 -1.1880  0.6950
13818SOL     OW43130   0.204   2.300   3.157 -0.0365  0.1017 -0.1161
13818SOL    HW143131   0.163   2.285   3.243 -0.8829 -0.2678 -0.5727
13818SOL    HW243132   0.281   2.352   3.176  1.5196 -2.5864  1.2521
13819SOL     OW43133   0.297   3.760   3.839 -0.2161 -0.2212  0.4730
13819SOL    HW143134   0.211   3.724   3.817 -1.2346  1.0142  2.3060
13819SOL    HW243135   0.312   3.829   3.774  0.0234 -1.3482 -0.6844
13820SOL     OW43136   8.888   8.876   0.005 -0.0873  0.7186 -0.7588
13820SOL    HW143137   8.793   8.863   0.012  0.4531 -3.4146  0.0318
13820SOL    HW243138   8.916   8.897   0.094 -0.1438  0.9707 -0.8010
13821SOL     OW43139   4.134   5.307   7.914  0.4482 -0.5029 -0.2477
13821SOL    HW143140   4.065   5.348   7.966 -0.7649  0.5937 -2.6561
13821SOL    HW243141   4.106   5.317   7.823  2.2772 -2.8092 -1.1340
13822SOL     OW43142   8.645   3.271   6.720  0.1657 -0.4420 -0.0267
13822SOL    HW143143   8.717   3.232   6.670 -1.0203 -2.0081 -0.5446
13822SOL    HW243144   8.604   3.332   6.658  0.5545 -0.1432  0.0099
13823SOL     OW43145   5.419   5.061   5.353 -0.6026  0.4519 -0.6951
13823SOL    HW143146   5.406   5.121   5.427  1.8809  0.4984 -0.2598
13823SOL    HW243147   5.362   5.097   5.284 -2.5362  0.7139  0.9878
13824SOL     OW43148   5.589   4.505   2.533  0.2883  0.6438 -0.0325
13824SOL    HW143149   5.644   4.429   2.550 -0.0694  0.2674 -0.5556
13824SOL    HW243150   5.650   4.572   2.500  0.3221 -0.0224 -1.3536
13825SOL     OW43151   2.069   1.327   9.179 -0.4439  0.1442  0.1448
13825SOL    HW143152   2.156   1.366   9.173 -1.0164  1.4349  0.0032
13825SOL    HW243153   2.078   1.257   9.243  0.3597  1.2355  1.2384
13826SOL     OW43154   1.810   2.018   6.494 -0.2477 -0.2120  0.1169
13826SOL    HW143155   1.888   2.011   6.549  0.7423  0.2955 -1.1913
13826SOL    HW243156   1.844   2.020   6.404 -1.7142  0.8945 -0.4377
13827SOL     OW43157   2.497   0.282   5.750  0.6306  0.5629  0.6274
13827SOL    HW143158   2.466   0.213   5.808  2.3723 -0.6745  0.1296
13827SOL    HW243159   2.579   0.248   5.713  0.5376  2.0920 -1.0980
13828SOL     OW43160   6.813   8.631   5.521  0.3751  0.0975  0.3767
13828SOL    HW143161   6.862   8.652   5.441  0.0704 -0.6923 -0.0212
13828SOL    HW243162   6.827   8.538   5.534 -0.9585 -0.1149  0.3117
13829SOL     OW43163   0.083   7.970   2.277 -0.0221  0.1534 -0.1072
13829SOL    HW143164   0.010   8.031   2.265  1.1359  1.2879 -1.6282
13829SOL    HW243165   0.047   7.900   2.331 -1.3794  2.1713  1.6862
13830SOL     OW43166   4.038   0.164   5.426 -0.4157  0.0259 -0.3973
13830SOL    HW143167   4.001   0.176   5.513  1.5561  1.2583  0.3240
13830SOL    HW243168   4.104   0.095   5.438 -0.6886 -0.3558 -1.0840
13831SOL     OW43169   0.125   0.766   7.856  0.4846 -0.2826  0.1919
13831SOL    HW143170   0.066   0.697   7.827  1.1789 -0.3928 -0.9808
13831SOL    HW243171   0.151   0.739   7.945  0.2034 -1.1718  0.0115
13832SOL     OW43172   9.037   4.639   1.532  0.1911 -0.1225  0.3488
13832SOL    HW143173   9.026   4.639   1.437  1.3586  0.6045  0.2080
13832SOL    HW243174   8.948   4.649   1.565 -0.3796 -1.7949 -0.6323
13833SOL     OW43175   9.094   7.168   6.922 -0.0834  0.4727  0.5199
13833SOL    HW143176   9.106   7.247   6.870  2.0495 -0.6662 -0.7593
13833SOL    HW243177   9.173   7.163   6.976 -0.4471 -0.5424  0.9650
13834SOL     OW43178   2.283   1.739   1.166  0.1694  0.4049  0.0574
13834SOL    HW143179   2.244   1.719   1.081  0.7246  0.3661 -0.1908
13834SOL    HW243180   2.269   1.833   1.178 -0.5599  0.2715  0.2585
13835SOL     OW43181   3.247   0.302   1.079 -0.4854  0.1793 -0.0256
13835SOL    HW143182   3.307   0.376   1.075  0.8968 -0.9062  0.2015
13835SOL    HW243183   3.193   0.311   1.000  0.3218  0.8762 -0.5053
13836SOL     OW43184   8.089   6.914   1.558 -0.1907 -0.1418 -0.3001
13836SOL    HW143185   8.110   6.874   1.474  1.2231 -1.1243  0.4920
13836SOL    HW243186   7.995   6.906   1.567 -0.0821 -2.0087 -0.8080
13837SOL     OW43187   4.212   0.193   5.062  0.9882 -0.8037 -0.7852
13837SOL    HW143188   4.228   0.200   4.968  0.7206 -0.6137 -0.8173
13837SOL    HW243189   4.163   0.272   5.084 -0.3147 -1.6067 -0.7709
13838SOL     OW43190   4.784   0.522   5.536  0.5339 -0.4435  0.2853
13838SOL    HW143191   4.803   0.452   5.474  0.9312 -0.2972  0.2414
13838SOL    HW243192   4.870   0.550   5.568  0.2748 -1.1205  1.5714
13839SOL     OW43193   0.666   7.545   6.490 -0.5950  0.1989 -0.1513
13839SOL    HW143194   0.693   7.579   6.405 -1.6100 -1.1265 -1.0248
13839SOL    HW243195   0.649   7.623   6.543  1.3009  1.0448 -0.7294
13840SOL     OW43196   3.755   4.917   1.906  0.3256 -0.0907  0.3465
13840SOL    HW143197   3.708   4.965   1.838  1.5220  1.0262  0.2771
13840SOL    HW243198   3.828   4.876   1.860 -1.1197 -2.6950  0.2594
13841SOL     OW43199   3.151   1.411   6.146  0.3136  0.0119 -0.0467
13841SOL    HW143200   3.092   1.482   6.123 -1.9854 -2.5222 -2.2163
13841SOL    HW243201   3.232   1.430   6.098 -0.1346  1.3216 -0.2923
13842SOL     OW43202   3.579   6.999   3.066  0.0118  0.1513  0.3612
13842SOL    HW143203   3.608   6.973   2.978  0.8832  0.2677  0.6181
13842SOL    HW243204   3.644   7.062   3.095 -0.3328  0.1835  1.0665
13843SOL     OW43205   6.623   6.574   7.688 -0.6610 -0.1176  0.0498
13843SOL    HW143206   6.703   6.623   7.666 -2.4057  2.2135 -1.3588
13843SOL    HW243207   6.623   6.569   7.784  1.0208  0.0992  0.0723
13844SOL     OW43208   3.199   0.786   2.643  0.3252 -0.1976 -0.3464
13844SOL    HW143209   3.108   0.754   2.642  0.4137 -0.4712 -2.2029
13844SOL    HW243210   3.211   0.824   2.556  1.3462  1.7286  0.5949
13845SOL     OW43211   4.609   4.708   1.757 -0.1802 -0.1338  0.0099
13845SOL    HW143212   4.540   4.676   1.815 -1.6275  1.0003 -1.0749
13845SOL    HW243213   4.611   4.802   1.772 -0.2876  0.1096 -1.4737
13846SOL     OW43214   1.516   7.513   6.052 -0.2641  0.2561  0.3383
13846SOL    HW143215   1.431   7.474   6.031  0.2675 -0.4070 -0.5944
13846SOL    HW243216   1.578   7.468   5.995  0.7776  0.4803  1.2801
13847SOL     OW43217   7.966   5.208   1.893  0.0181 -0.3231  0.4197
13847SOL    HW143218   7.937   5.195   1.803  0.1803  1.1363  0.1382
13847SOL    HW243219   7.933   5.132   1.941 -0.4431 -0.8846 -0.7805
13848SOL     OW43220   2.810   2.656   6.428  0.7736 -0.1545  0.3009
13848SOL    HW143221   2.782   2.677   6.517  0.5724 -0.2396  0.2578
13848SOL    HW243222   2.741   2.599   6.393 -0.7708  2.3885 -0.9957
13849SOL     OW43223   2.181   2.315   3.204 -0.2815  0.1737 -0.3944
13849SOL    HW143224   2.224   2.251   3.260  0.6470  2.4944  1.6002
13849SOL    HW243225   2.222   2.302   3.118  1.0107 -0.8333  0.3500
13850SOL     OW43226   3.485   4.387   3.180  0.6359 -0.0452 -0.0870
13850SOL    HW143227   3.513   4.456   3.240  1.8885 -0.1775 -0.4960
13850SOL    HW243228   3.393   4.407   3.161  1.4437  2.5141 -1.5436
13851SOL     OW43229   1.500   5.038   8.027  0.1629 -0.0891  0.2038
13851SOL    HW143230   1.443   5.070   8.096 -1.0745 -0.7365 -0.5107
13851SOL    HW243231   1.558   4.975   8.071 -2.1827 -2.3287  0.2411
13852SOL     OW43232   4.006   6.679   4.546  0.0237 -0.3842  0.2252
13852SOL    HW143233   4.015   6.590   4.514 -0.0376 -0.0997 -0.5968
13852SOL    HW243234   3.950   6.723   4.481  0.7016  0.4603  0.2041
13853SOL     OW43235   8.661   1.466   1.960  0.2191 -0.4773  0.0447
13853SOL    HW143236   8.584   1.467   1.902  0.2649 -1.1532 -0.0366
13853SOL    HW243237   8.734   1.492   1.904  0.0421  0.2092  0.1318
13854SOL     OW43238   2.362   7.527   3.075 -0.0693  0.2689 -0.5699
13854SOL    HW143239   2.300   7.590   3.039  0.7259  0.7702 -1.0667
13854SOL    HW243240   2.444   7.544   3.029  0.9392  0.8451  1.3989
13855SOL     OW43241   8.663   8.992   4.652  0.3389  0.8087  0.6198
13855SOL    HW143242   8.703   8.914   4.691  0.4119  1.3657  1.6879
13855SOL    HW243243   8.732   9.058   4.652  0.2715  0.8797 -0.2625
13856SOL     OW43244   8.899   2.162   5.557  0.3085  0.4524  0.0177
13856SOL    HW143245   8.969   2.216   5.594  0.9570 -1.2059  1.3049
13856SOL    HW243246   8.833   2.157   5.626 -0.6665  1.2516 -0.8492
13857SOL     OW43247   2.527   2.098   1.364  0.0600 -0.1667  0.5008
13857SOL    HW143248   2.432   2.084   1.369  0.3075 -1.8241  0.9697
13857SOL    HW243249   2.559   2.075   1.451  1.0589 -0.9634 -0.0721
13858SOL     OW43250   5.358   8.881   9.230 -0.3643  0.3555 -0.3942
13858SOL    HW143251   5.433   8.848   9.180 -1.4772 -0.7848 -1.3503
13858SOL    HW243252   5.292   8.901   9.163 -1.9198 -1.2779  0.6260
13859SOL     OW43253   1.544   8.588   4.421 -0.6615 -0.1257 -0.1258
13859SOL    HW143254   1.609   8.546   4.478 -0.1620 -1.3662 -1.5746
13859SOL    HW243255   1.481   8.627   4.481  1.0125  0.4466  1.3070
13860SOL     OW43256   4.525   6.295   4.414 -0.0377 -0.2961 -0.5115
13860SOL    HW143257   4.609   6.301   4.458 -0.6518 -0.1641  0.6669
13860SOL    HW243258   4.537   6.343   4.332  1.0051 -0.2300 -0.3240
13861SOL     OW43259   7.325   1.729   3.633  0.3806 -0.6012 -0.2395
13861SOL    HW143260   7.395   1.668   3.612  0.5173 -0.1900 -0.9976
13861SOL    HW243261   7.323   1.789   3.559  0.3259  0.3797  0.5393
13862SOL     OW43262   8.466   5.161   6.904 -0.3571  0.1742  0.3664
13862SOL    HW143263   8.480   5.254   6.891  0.7866  0.3420  2.5683
13862SOL    HW243264   8.454   5.125   6.816  2.0424  1.9377 -0.7077
13863SOL     OW43265   0.128   4.055   7.883  0.6372  0.4403 -0.0488
13863SOL    HW143266   0.203   4.114   7.874  0.7169  0.2912 -0.3754
13863SOL    HW243267   0.161   3.982   7.934  0.7608  0.2948 -0.3360
13864SOL     OW43268   8.692   5.960   8.293 -0.2639  0.3937  0.2050
13864SOL    HW143269   8.753   6.034   8.293  0.5829 -0.2726 -0.6112
13864SOL    HW243270   8.645   5.968   8.210  0.9229 -0.8179 -0.6181
13865SOL     OW43271   3.928   5.525   2.506 -0.4390 -0.1545 -0.3432
13865SOL    HW143272   4.014   5.498   2.538 -0.0375 -1.6239 -2.5580
13865SOL    HW243273   3.891   5.446   2.466 -1.4478  1.2693 -2.3297
13866SOL     OW43274   5.164   4.069   5.836 -0.2156 -0.1846  0.0533
13866SOL    HW143275   5.198   4.083   5.924  0.9853  0.3023 -0.4845
13866SOL    HW243276   5.241   4.051   5.783 -1.1869 -3.5412 -0.3403
13867SOL     OW43277   6.204   8.160   0.760  0.4939 -0.1320 -0.0711
13867SOL    HW143278   6.144   8.104   0.809  0.2630  0.0178 -0.1802
13867SOL    HW243279   6.290   8.145   0.800  0.5052 -0.8752 -0.3650
13868SOL     OW43280   3.873   8.142   6.231 -0.0856  0.4411 -0.3149
13868SOL    HW143281   3.817   8.094   6.170  2.3593 -1.5914 -1.0357
13868SOL    HW243282   3.905   8.217   6.180  1.0130 -0.6010 -1.1845
13869SOL     OW43283   6.622   7.033   0.642 -0.1042 -0.2443 -0.4495
13869SOL    HW143284   6.675   6.964   0.603  1.1229  0.0220  0.7210
13869SOL    HW243285   6.600   7.091   0.569  2.3767  0.3833 -0.7251
13870SOL     OW43286   7.272   6.245   0.665 -0.0584  0.1130 -0.7016
13870SOL    HW143287   7.185   6.244   0.624 -0.9334  0.7850  1.0939
13870SOL    HW243288   7.260   6.295   0.746  1.9505 -0.0142 -0.3019
13871SOL     OW43289   6.070   4.547   3.749 -0.0547 -0.3016 -0.2003
13871SOL    HW143290   6.115   4.612   3.695 -0.7246  0.1704 -0.1983
13871SOL    HW243291   6.043   4.479   3.687  0.0877 -0.2638 -0.3038
13872SOL     OW43292   3.735   8.502   7.075  0.2444 -0.4009 -0.0875
13872SOL    HW143293   3.712   8.440   7.144  1.0877 -0.7434 -0.1040
13872SOL    HW243294   3.770   8.447   7.004  0.0660  0.0096 -0.4926
13873SOL     OW43295   6.643   0.131   5.131  0.2120 -0.4571 -0.0068
13873SOL    HW143296   6.598   0.198   5.182  0.0160  0.7942 -1.8069
13873SOL    HW243297   6.736   0.143   5.152 -0.0021 -1.1046  1.3916
13874SOL     OW43298   2.134   2.280   9.209  0.4342 -0.1543 -0.4470
13874SOL    HW143299   2.105   2.193   9.236  0.0298 -0.6182 -2.2927
13874SOL    HW243300   2.227   2.270   9.191  0.4788 -0.1071 -0.2390
13875SOL     OW43301   3.118   1.490   5.029 -0.4128  0.4066 -0.6239
13875SOL    HW143302   3.026   1.465   5.020 -0.3367 -0.4177  0.7195
13875SOL    HW243303   3.158   1.468   4.945 -1.4367  0.7339 -1.1962
13876SOL     OW43304   6.382   4.154   9.051  0.3784  0.0505 -0.4418
13876SOL    HW143305   6.407   4.108   8.971 -1.4348 -0.9721 -0.4525
13876SOL    HW243306   6.343   4.086   9.106 -1.1892  1.3238  0.0646
13877SOL     OW43307   7.511   2.079   5.387  0.1377 -0.4574 -0.0613
13877SOL    HW143308   7.445   2.085   5.456 -0.0665 -0.5807 -0.2472
13877SOL    HW243309   7.468   2.033   5.316 -0.3168  1.4502 -1.0600
13878SOL     OW43310   8.616   3.658   8.064 -0.7430 -0.7046 -0.1258
13878SOL    HW143311   8.564   3.709   8.002  0.6393  0.8938 -0.0132
13878SOL    HW243312   8.556   3.643   8.138 -0.7979  1.9957  0.4477
13879SOL     OW43313   8.023   2.833   4.947  0.3133 -0.0168  0.6496
13879SOL    HW143314   8.033   2.739   4.963 -0.7594 -0.7348 -2.6108
13879SOL    HW243315   8.090   2.853   4.881 -0.7168  1.0850 -0.0783
13880SOL     OW43316   4.007   4.803   3.395  0.0916  0.2947 -0.2086
13880SOL    HW143317   3.935   4.811   3.458  0.6561  0.1386  0.4643
13880SOL    HW243318   4.083   4.784   3.449  0.5831  0.1682 -0.9488
13881SOL     OW43319   3.439   3.463   3.225  0.6699 -0.0789 -0.4302
13881SOL    HW143320   3.494   3.392   3.258  0.6727  0.2024  0.1663
13881SOL    HW243321   3.398   3.501   3.303 -1.9252 -1.5519 -1.0149
13882SOL     OW43322   4.849   7.756   5.678  0.4464 -0.2287  0.9433
13882SOL    HW143323   4.825   7.768   5.586 -1.1670  0.3604  1.4307
13882SOL    HW243324   4.798   7.680   5.706  0.6420 -0.1682  1.4704
13883SOL     OW43325   8.955   1.358   8.341 -0.2210  0.9201 -0.1676
13883SOL    HW143326   8.886   1.323   8.397  2.0280 -0.5997  1.7952
13883SOL    HW243327   8.988   1.434   8.388  0.6635  0.5266 -0.1266
13884SOL     OW43328   7.358   5.183   2.721 -0.9474 -0.5326 -0.5685
13884SOL    HW143329   7.356   5.105   2.666  0.1346 -0.7473 -0.3165
13884SOL    HW243330   7.451   5.196   2.740 -1.1890  0.4048 -0.0275
13885SOL     OW43331   4.598   5.440   0.082  0.9265 -0.8472 -0.6696
13885SOL    HW143332   4.658   5.403   0.016  1.2694  0.1536 -0.9296
13885SOL    HW243333   4.623   5.397   0.163  0.7348 -1.8362 -1.1310
13886SOL     OW43334   0.057   6.173   2.163  0.0269 -0.4912  0.0358
13886SOL    HW143335   0.119   6.246   2.157 -0.0910 -0.1668  2.2996
13886SOL    HW243336   0.076   6.119   2.087 -0.5587  2.4267 -2.2886
13887SOL     OW43337   2.606   5.391   0.512  0.1396 -0.5746 -0.7860
13887SOL    HW143338   2.646   5.475   0.537 -1.5299  0.2491 -0.8495
13887SOL    HW243339   2.532   5.381   0.571 -1.0461 -0.8806 -2.3037
13888SOL     OW43340   2.488   3.336   6.970  0.1155 -0.1710  0.0734
13888SOL    HW143341   2.481   3.426   6.939 -1.0500 -0.0629  0.6218
13888SOL    HW243342   2.424   3.287   6.919  1.6089 -0.9435 -1.0917
13889SOL     OW43343   6.040   0.298   8.170 -0.3102 -0.4663  0.1835
13889SOL    HW143344   6.098   0.297   8.094 -0.7921 -1.4172 -0.1744
13889SOL    HW243345   5.952   0.307   8.134 -0.3647  1.4660  0.7544
13890SOL     OW43346   7.110   7.637   0.384  0.1825 -0.7160 -0.3534
13890SOL    HW143347   7.069   7.556   0.356  0.6966 -1.8312  1.9953
13890SOL    HW243348   7.090   7.643   0.477  0.2692  1.7893 -0.4668
13891SOL     OW43349   6.935   9.287   2.892 -0.0971  0.1939  0.0501
13891SOL    HW143350   6.904   9.262   2.805  1.6508 -1.8228 -0.0394
13891SOL    HW243351   6.955   9.380   2.885 -2.5008  0.6619 -0.9355
13892SOL     OW43352   2.698   4.779   8.825 -0.4712  0.2113 -0.4026
13892SOL    HW143353   2.693   4.867   8.790 -0.6168  0.6082  0.5995
13892SOL    HW243354   2.775   4.780   8.883 -1.0713 -0.0179  0.4172
13893SOL     OW43355   4.914   3.985   9.137 -0.5879 -0.0034  0.0042
13893SOL    HW143356   4.914   4.025   9.050 -2.4708  0.1065  0.0272
13893SOL    HW243357   5.004   3.992   9.167 -0.2729  1.5007 -1.2470
13894SOL     OW43358   0.403   2.124   1.491 -0.2356 -0.2591 -0.7661
13894SOL    HW143359   0.422   2.158   1.404  1.4650  0.2606 -0.2333
13894SOL    HW243360   0.485   2.082   1.518 -1.0645 -1.3125  0.1770
13895SOL     OW43361   3.259   1.744   6.780 -0.3536  0.6366  0.4938
13895SOL    HW143362   3.204   1.723   6.705 -1.3521  1.1786  1.0556
13895SOL    HW243363   3.348   1.723   6.752 -0.9497 -1.1915 -0.0892
13896SOL     OW43364   3.711   9.273   1.455 -0.2435 -0.4767 -0.2895
13896SOL    HW143365   3.620   9.303   1.453 -0.1129 -0.0739 -0.2756
13896SOL    HW243366   3.751   9.315   1.378  0.4136  0.9191  0.7852
13897SOL     OW43367   7.046   3.546   3.677 -0.5874 -0.6085  0.3176
13897SOL    HW143368   6.971   3.605   3.683 -0.8938 -1.1056  1.2875
13897SOL    HW243369   7.121   3.605   3.666 -0.8727 -0.0196  1.4839
13898SOL     OW43370   3.054   2.100   5.750 -0.0561  0.2368 -0.3403
13898SOL    HW143371   3.104   2.181   5.736 -0.4699  0.2783 -1.5975
13898SOL    HW243372   2.994   2.095   5.677 -1.3029 -0.2882  0.6986
13899SOL     OW43373   4.575   7.870   7.694 -0.2506 -0.2509 -0.2731
13899SOL    HW143374   4.492   7.904   7.728 -1.5242 -0.3080 -3.2061
13899SOL    HW243375   4.571   7.776   7.711 -1.7077 -0.5602 -2.1484
13900SOL     OW43376   7.666   3.870   4.712  0.0718  0.4427 -0.1718
13900SOL    HW143377   7.657   3.928   4.637  1.0280 -0.3028 -0.8695
13900SOL    HW243378   7.582   3.824   4.718 -0.0380  0.5747 -0.7211
13901SOL     OW43379   6.834   3.673   3.999 -0.2848  0.2866 -0.3335
13901SOL    HW143380   6.797   3.630   4.076 -0.8020  1.0977 -0.1225
13901SOL    HW243381   6.767   3.735   3.972  0.9806  1.8624  0.1193
13902SOL     OW43382   3.816   3.117   0.476  0.1122  0.0944 -0.1749
13902SOL    HW143383   3.780   3.189   0.528 -0.7034 -0.1634 -0.3700
13902SOL    HW243384   3.770   3.039   0.508  1.9106 -0.5396  0.9229
13903SOL     OW43385   6.748   1.058   6.799  0.1435  0.1967 -0.4654
13903SOL    HW143386   6.656   1.038   6.786  0.4034 -0.7847 -0.8187
13903SOL    HW243387   6.792   1.021   6.722  1.2131 -2.1642  1.2596
13904SOL     OW43388   3.349   0.686   2.095 -0.4883  0.6697  0.0661
13904SOL    HW143389   3.397   0.655   2.018 -1.3621 -0.7114  0.0619
13904SOL    HW243390   3.389   0.640   2.168 -0.4038  1.1314  0.3113
13905SOL     OW43391   5.803   6.873   2.147  0.0321 -0.2031 -0.0587
13905SOL    HW143392   5.789   6.781   2.125 -1.8602 -0.0768  0.5462
13905SOL    HW243393   5.885   6.896   2.102  0.4570 -2.1296 -0.3239
13906SOL     OW43394   5.978   4.914   7.988 -0.0208  0.3725 -0.0455
13906SOL    HW143395   6.010   4.999   7.956  2.3363 -0.2412  0.5759
13906SOL    HW243396   5.889   4.932   8.017  0.5257  2.7153  0.3502
13907SOL     OW43397   8.471   3.978   0.906 -0.5212  0.0072 -0.1793
13907SOL    HW143398   8.459   4.000   0.814 -3.4292 -1.5552 -0.2278
13907SOL    HW243399   8.470   4.062   0.952 -0.2725  0.6986 -1.4356
13908SOL     OW43400   9.256   3.231   2.762 -0.2219 -0.0427 -0.7901
13908SOL    HW143401   9.276   3.271   2.846  1.4858 -0.5073 -0.9596
13908SOL    HW243402   9.209   3.298   2.713  0.5477  0.9167 -0.2107
13909SOL     OW43403   0.780   6.190   6.936  0.1159  0.2427  0.2918
13909SOL    HW143404   0.821   6.191   7.022 -1.3335  1.6043  0.9825
13909SOL    HW243405   0.712   6.123   6.942  0.1814  0.1607  0.1214
13910SOL     OW43406   1.672   4.751   1.703 -0.0122 -0.5301 -0.2038
13910SOL    HW143407   1.752   4.734   1.654  0.2915 -0.5364  0.2831
13910SOL    HW243408   1.604   4.702   1.658  0.6838 -2.3542  0.6891
13911SOL     OW43409   9.165   3.735   5.254  0.2069 -0.8359  0.0528
13911SOL    HW143410   9.136   3.754   5.343  0.5891  0.8502 -0.1717
13911SOL    HW243411   9.250   3.693   5.264 -0.5378 -2.2643  0.5456
13912SOL     OW43412   3.954   6.301   5.971 -0.2960 -0.0692  0.0495
13912SOL    HW143413   3.942   6.362   6.043  2.3500  0.5527  0.0034
13912SOL    HW243414   3.904   6.340   5.899 -1.1530  0.4399  0.9113
13913SOL     OW43415   4.873   7.175   7.771  0.3164 -0.2749 -0.7937
13913SOL    HW143416   4.890   7.085   7.740 -1.9891 -0.3626 -1.8551
13913SOL    HW243417   4.932   7.229   7.718 -0.2028 -0.9137 -2.0683
13914SOL     OW43418   7.566   4.078   8.569 -0.1341 -1.1030  0.2796
13914SOL    HW143419   7.555   4.019   8.644  1.5996 -1.4305  0.2914
13914SOL    HW243420   7.582   4.164   8.607 -1.6153 -0.7957  0.2596
13915SOL     OW43421   1.484   8.618   8.115  0.1740 -0.8246  0.6252
13915SOL    HW143422   1.532   8.622   8.033  2.2797  1.8434  1.8912
13915SOL    HW243423   1.392   8.609   8.089  0.7820  0.0987 -1.9971
13916SOL     OW43424   0.043   2.549   7.804 -0.4713  0.0778  0.0715
13916SOL    HW143425  -0.003   2.583   7.728 -1.2204 -1.3382 -0.1353
13916SOL    HW243426   0.119   2.503   7.768 -0.7286 -0.4382  0.1702
13917SOL     OW43427   1.647   8.566   2.037  0.0949 -0.0884 -0.1258
13917SOL    HW143428   1.720   8.597   1.983  1.0912  0.2233  1.3545
13917SOL    HW243429   1.664   8.605   2.123 -1.1061 -1.0930  0.5694
13918SOL     OW43430   0.280   1.888   3.690 -0.7106  0.4181 -0.1004
13918SOL    HW143431   0.345   1.895   3.619 -0.1707  0.3015  0.3769
13918SOL    HW243432   0.236   1.804   3.673 -0.4025  0.2644 -0.1552
13919SOL     OW43433   3.342   5.047   0.567 -0.1524 -0.3360  0.1684
13919SOL    HW143434   3.358   5.004   0.482  0.0610  0.8750 -0.4074
13919SOL    HW243435   3.269   5.107   0.550  0.8567  0.9796  0.4858
13920SOL     OW43436   6.769   4.850   8.887 -0.5851  0.2633 -0.0338
13920SOL    HW143437   6.864   4.842   8.898 -0.2232  2.2278 -1.5786
13920SOL    HW243438   6.738   4.878   8.974  0.1773 -0.8389  0.6070
13921SOL     OW43439   4.097   0.936   2.402 -0.6948  1.3234 -0.6687
13921SOL    HW143440   4.136   1.004   2.346  1.2477 -0.0988 -1.0684
13921SOL    HW243441   4.146   0.857   2.382 -2.6995 -0.1490  0.0751
13922SOL     OW43442   1.516   6.711   0.268 -0.0742  0.0173  0.1195
13922SOL    HW143443   1.590   6.653   0.247 -0.0558  0.5671 -1.4397
13922SOL    HW243444   1.492   6.749   0.184 -1.1551  1.0171  0.8718
13923SOL     OW43445   3.222   8.730   8.116  0.1464 -0.0299  0.4284
13923SOL    HW143446   3.139   8.742   8.070  0.8723 -0.7909 -1.1223
13923SOL    HW243447   3.237   8.813   8.160 -0.6563  0.6728 -0.5940
13924SOL     OW43448   8.217   4.009   2.444  0.3497 -0.3205  0.2078
13924SOL    HW143449   8.238   3.935   2.501 -0.5126 -0.1250  0.8019
13924SOL    HW243450   8.281   4.076   2.467  1.1719 -0.9002 -0.3755
13925SOL     OW43451   2.809   8.202   4.484 -0.1834 -0.0065  0.2786
13925SOL    HW143452   2.762   8.208   4.401  1.1883  2.6623 -0.3753
13925SOL    HW243453   2.742   8.181   4.549 -1.3689 -1.4709 -1.3964
13926SOL     OW43454   2.933   4.832   3.834 -0.2254 -0.1946  0.5755
13926SOL    HW143455   3.007   4.879   3.873  0.5181 -1.4029  0.6734
13926SOL    HW243456   2.972   4.751   3.801 -1.4923 -0.7875  0.5168
13927SOL     OW43457   4.188   0.957   8.983  0.3865 -0.8979  0.1752
13927SOL    HW143458   4.126   0.891   9.014  0.7850 -1.3757 -0.0432
13927SOL    HW243459   4.187   1.024   9.052 -1.0684 -0.4419 -0.2733
13928SOL     OW43460   5.372   2.541   1.550 -0.5159 -0.5116 -0.4170
13928SOL    HW143461   5.363   2.468   1.611  1.3406 -0.0595  0.4188
13928SOL    HW243462   5.466   2.551   1.537 -0.6659  2.4800  0.3997
13929SOL     OW43463   3.419   6.850   4.985 -0.5251  0.1788  0.0465
13929SOL    HW143464   3.347   6.797   5.018 -0.2320  0.3893  1.0611
13929SOL    HW243465   3.443   6.810   4.902 -1.4552 -0.2170 -0.0354
13930SOL     OW43466   3.808   1.838   2.978  0.2455  0.0343 -0.1400
13930SOL    HW143467   3.801   1.751   2.938  2.6030 -0.0687 -0.3930
13930SOL    HW243468   3.773   1.898   2.912 -2.4506 -0.7660  0.4608
13931SOL     OW43469   7.962   9.041   3.839 -0.2504 -0.0553 -0.7486
13931SOL    HW143470   8.034   9.038   3.776 -1.1638 -0.2948 -1.7912
13931SOL    HW243471   7.943   9.134   3.849  0.3826  0.0260 -0.2532
13932SOL     OW43472   8.875   7.746   6.387  0.4755  0.1817 -0.0956
13932SOL    HW143473   8.914   7.682   6.327  0.6123  1.9644 -1.9658
13932SOL    HW243474   8.785   7.716   6.400 -0.3949  1.1663 -3.3562
13933SOL     OW43475   0.309   0.615   4.214 -0.5129 -0.4996  0.2293
13933SOL    HW143476   0.214   0.605   4.215 -0.5014 -0.5424  1.5422
13933SOL    HW243477   0.323   0.706   4.185 -0.9440 -0.4949  0.0257
13934SOL     OW43478   1.884   3.465   5.622  0.2613  0.4535 -0.1664
13934SOL    HW143479   1.840   3.420   5.550 -1.6144 -0.6445  1.6178
13934SOL    HW243480   1.834   3.546   5.634 -0.2670 -0.0086  0.7803
13935SOL     OW43481   1.969   3.907   2.606 -0.2447  0.0673 -0.2987
13935SOL    HW143482   1.905   3.975   2.629  0.9474  1.0461  0.1825
13935SOL    HW243483   1.963   3.901   2.510 -1.7981 -0.6051 -0.1691
13936SOL     OW43484   4.928   7.170   0.175 -0.6077 -0.2121 -0.1277
13936SOL    HW143485   4.844   7.201   0.141  1.1228  0.3066 -4.2785
13936SOL    HW243486   4.929   7.076   0.155 -0.2443 -0.2241 -0.0520
13937SOL     OW43487   8.179   5.474   4.128  0.1402 -0.2570  0.1578
13937SOL    HW143488   8.147   5.518   4.050 -1.6487 -2.3228 -0.3423
13937SOL    HW243489   8.171   5.539   4.198 -2.6191  0.1835 -0.4988
13938SOL     OW43490   5.773   7.032   2.366  0.2686  0.3476 -0.2426
13938SOL    HW143491   5.784   6.981   2.286 -2.3792 -1.4676  0.4846
13938SOL    HW243492   5.836   6.996   2.427  1.0365  0.5143 -0.9362
13939SOL     OW43493   6.107   7.192   1.175  0.0696  0.0699  0.2377
13939SOL    HW143494   6.043   7.123   1.155  0.0345  0.2711 -0.3622
13939SOL    HW243495   6.053   7.265   1.207  0.1673 -0.4164  1.5275
13940SOL     OW43496   1.298   1.666   0.354 -0.5293  1.0680  0.1144
13940SOL    HW143497   1.391   1.672   0.376 -0.6447  0.0252  0.9143
13940SOL    HW243498   1.284   1.737   0.291  1.0045  0.6908 -0.6867
13941SOL     OW43499   8.648   6.610   5.886  0.6333  0.1609  0.5614
13941SOL    HW143500   8.661   6.569   5.801  1.8731  0.9516  0.3538
13941SOL    HW243501   8.644   6.704   5.867 -3.4074  0.1380  0.8623
13942SOL     OW43502   5.405   0.715   9.158  0.2377 -0.2913  0.3067
13942SOL    HW143503   5.471   0.771   9.117  0.9567 -0.3378  1.3632
13942SOL    HW243504   5.409   0.633   9.109  0.3233  0.0290 -0.2203
13943SOL     OW43505   6.220   1.561   1.524  0.1829  0.1052 -0.2673
13943SOL    HW143506   6.204   1.494   1.590  0.2477  1.4543  1.1500
13943SOL    HW243507   6.136   1.605   1.513  0.2344  0.0580 -0.9248
13944SOL     OW43508   4.874   2.832   4.294  0.0395  0.2431  0.1621
13944SOL    HW143509   4.958   2.863   4.260  0.2698 -0.1215  0.3955
13944SOL    HW243510   4.815   2.907   4.285  0.4533  0.5771  0.2196
13945SOL     OW43511   0.414   6.831   0.088  0.0704 -0.6295 -0.2215
13945SOL    HW143512   0.436   6.849   0.180 -1.2771  0.0795 -0.0304
13945SOL    HW243513   0.318   6.832   0.086  0.0633 -2.1724 -1.3411
13946SOL     OW43514   6.650   5.235   1.976  0.2195 -0.3269 -0.2521
13946SOL    HW143515   6.658   5.165   2.041 -0.5336 -1.0424 -0.9235
13946SOL    HW243516   6.605   5.306   2.022  1.3473 -0.1225  0.5508
13947SOL     OW43517   6.992   7.841   4.150 -0.5275  0.6943 -0.5095
13947SOL    HW143518   6.989   7.930   4.115 -0.2473  0.5213 -0.9738
13947SOL    HW243519   6.938   7.790   4.089  2.7833 -0.3186 -2.7590
13948SOL     OW43520   9.152   0.491   9.235 -0.0779 -0.4757 -0.2865
13948SOL    HW143521   9.099   0.416   9.260 -0.3680 -0.7419 -1.6597
13948SOL    HW243522   9.239   0.454   9.217 -0.0816 -0.4023 -0.4603
13949SOL     OW43523   1.232   1.625   0.706  0.1125  0.0577  0.0985
13949SOL    HW143524   1.186   1.708   0.691  0.4454  0.5528  1.7396
13949SOL    HW243525   1.167   1.558   0.684 -1.0382  0.7513  1.2948
13950SOL     OW43526   7.029   5.825   1.900 -0.1928  0.0187  0.3830
13950SOL    HW143527   7.027   5.830   1.996  2.1037 -0.6915  0.5103
13950SOL    HW243528   6.976   5.749   1.878 -0.1647 -0.2199  1.1392
13951SOL     OW43529   6.682   0.719   6.874  0.0193 -0.0226  0.8763
13951SOL    HW143530   6.752   0.767   6.831 -0.1058  1.1847  1.9934
13951SOL    HW243531   6.720   0.689   6.956 -0.9235  1.1744  1.7790
13952SOL     OW43532   0.864   4.166   0.533 -0.1271 -0.2213 -0.2090
13952SOL    HW143533   0.801   4.094   0.533 -0.7203  0.2787 -1.0848
13952SOL    HW243534   0.856   4.205   0.446 -1.6720  2.4924  1.0651
13953SOL     OW43535   5.034   7.234   9.133  0.2668 -0.6871  0.0475
13953SOL    HW143536   5.093   7.257   9.205  2.2985 -1.5679 -1.3048
13953SOL    HW243537   5.019   7.140   9.144  0.9997 -0.9235 -0.9848
13954SOL     OW43538   9.077   4.265   8.574  0.3506 -0.2525 -0.2440
13954SOL    HW143539   9.167   4.298   8.574  0.9280 -1.7811 -0.6511
13954SOL    HW243540   9.083   4.178   8.614 -0.8525 -0.6260 -0.8502
13955SOL     OW43541   5.357   5.490   8.010  0.7470  0.2484  0.6065
13955SOL    HW143542   5.302   5.437   7.952 -0.6968  1.6592  0.6455
13955SOL    HW243543   5.297   5.521   8.078  1.5087  2.0963  0.4654
13956SOL     OW43544   5.650   0.398   1.962  0.6188 -0.2809  0.2184
13956SOL    HW143545   5.669   0.422   2.053  0.2632  0.3127  0.1418
13956SOL    HW243546   5.665   0.304   1.958 -0.6924 -0.5471  1.2480
13957SOL     OW43547   3.198   6.510   7.406 -0.1493  0.6274  0.1814
13957SOL    HW143548   3.135   6.514   7.334 -0.7843  1.5597  0.7751
13957SOL    HW243549   3.278   6.474   7.366 -1.2502 -1.2638 -0.4294
13958SOL     OW43550   4.025   5.700   7.895 -0.2143  0.2661  0.2058
13958SOL    HW143551   4.018   5.676   7.802 -0.8371  1.0211  0.0455
13958SOL    HW243552   4.055   5.791   7.894 -0.7997  0.4721  0.7213
13959SOL     OW43553   1.387   3.436   1.328  0.1357 -0.2399 -0.4739
13959SOL    HW143554   1.347   3.507   1.279  1.3073  1.0788  0.4366
13959SOL    HW243555   1.471   3.472   1.359  0.6207 -1.9116  0.2273
13960SOL     OW43556   2.621   1.552   7.087 -0.0646 -0.0454 -0.4470
13960SOL    HW143557   2.533   1.520   7.071  0.0654 -0.3826 -0.5000
13960SOL    HW243558   2.626   1.562   7.182 -0.5627  1.1583 -0.5452
13961SOL     OW43559   1.238   7.921   1.572 -0.2630  0.0381  0.2920
13961SOL    HW143560   1.205   7.948   1.657 -2.8531  0.5462 -0.8434
13961SOL    HW243561   1.297   7.848   1.592  0.7670  1.4305  2.6644
13962SOL     OW43562   0.058   7.793   6.205  0.0712  0.3738  0.7445
13962SOL    HW143563   0.030   7.726   6.267  2.7057 -0.8164  0.6987
13962SOL    HW243564   0.057   7.749   6.120  0.0097  0.9463  0.4426
13963SOL     OW43565   3.208   6.520   6.242 -0.1548 -0.3448 -0.1569
13963SOL    HW143566   3.290   6.472   6.237  0.0856 -0.4876  3.5110
13963SOL    HW243567   3.145   6.456   6.277 -0.8636  0.8069  0.7131
13964SOL     OW43568   5.903   4.754   5.276 -0.2368 -0.2787 -0.2058
13964SOL    HW143569   5.949   4.835   5.295  1.5474 -1.2910 -0.0565
13964SOL    HW243570   5.847   4.740   5.352 -1.7230  1.6056 -0.9405
13965SOL     OW43571   5.529   6.630   5.684 -0.0010  0.2174  0.0934
13965SOL    HW143572   5.448   6.672   5.714 -1.3087 -0.7328 -1.9716
13965SOL    HW243573   5.511   6.537   5.689  0.0548  0.0096 -2.6262
13966SOL     OW43574   9.244   0.646   3.522 -0.0942  0.3936 -0.3405
13966SOL    HW143575   9.176   0.625   3.586  0.0732 -0.3027 -0.3890
13966SOL    HW243576   9.322   0.600   3.553 -0.5423 -1.6903 -2.1605
13967SOL     OW43577   3.104   9.257   7.930  0.0348 -0.3726 -0.6894
13967SOL    HW143578   3.040   9.203   7.977 -0.2403  0.9882  0.5728
13967SOL    HW243579   3.067   9.268   7.843 -1.5133  0.4569  0.0546
13968SOL     OW43580   2.788   8.470   6.027 -0.0734 -0.2586  0.3201
13968SOL    HW143581   2.853   8.413   5.985 -1.1620 -1.2333 -0.0613
13968SOL    HW243582   2.768   8.427   6.110 -0.1903  0.0811  0.4714
13969SOL     OW43583   8.151   3.246   0.956 -0.3037  0.0192  0.3721
13969SOL    HW143584   8.077   3.185   0.956 -0.5093  0.2718  0.9249
13969SOL    HW243585   8.221   3.196   0.914 -0.7776 -0.2268 -0.1369
13970SOL     OW43586   8.712   4.955   5.044  0.5370 -0.2168 -0.4493
13970SOL    HW143587   8.717   4.882   5.105  0.6610  1.5626  1.7278
13970SOL    HW243588   8.620   4.959   5.018  0.3682 -0.6035  0.1100
13971SOL     OW43589   2.595   3.543   0.730  0.6417  0.0867 -0.0411
13971SOL    HW143590   2.630   3.462   0.766  0.3476  0.5189  1.2398
13971SOL    HW243591   2.572   3.596   0.807 -2.7615 -0.1647 -0.8135
13972SOL     OW43592   7.858   5.752   6.472  0.2516 -0.0085  0.3204
13972SOL    HW143593   7.837   5.800   6.392  0.1239  1.0621  0.9913
13972SOL    HW243594   7.928   5.692   6.446 -1.0854 -1.0225 -1.0468
13973SOL     OW43595   2.276   7.762   4.184  0.1862  0.3981 -0.4477
13973SOL    HW143596   2.220   7.705   4.237  0.0823  1.3295  0.4608
13973SOL    HW243597   2.222   7.784   4.107  0.8592 -2.1268 -1.7091
13974SOL     OW43598   3.802   7.539   6.456  0.0404 -0.0686  0.6073
13974SOL    HW143599   3.818   7.445   6.448  0.4678  0.0390  0.1980
13974SOL    HW243600   3.884   7.580   6.431 -1.1592  0.5184 -2.6022
13975SOL     OW43601   4.126   8.621   2.666 -0.0167 -0.3979  0.2702
13975SOL    HW143602   4.033   8.639   2.650 -0.0902 -1.2601 -0.3323
13975SOL    HW243603   4.131   8.525   2.672  0.8263 -0.3510  0.3238
13976SOL     OW43604   8.921   3.485   8.649 -0.2329 -0.4602 -0.1920
13976SOL    HW143605   8.871   3.501   8.569 -0.6333  1.7596  0.4822
13976SOL    HW243606   9.011   3.506   8.625 -0.5530  1.5275  0.3021
13977SOL     OW43607   5.340   7.861   5.206  0.2351 -0.0614  0.3584
13977SOL    HW143608   5.383   7.851   5.291  0.1934 -0.8155  0.3015
13977SOL    HW243609   5.322   7.954   5.199  0.2017  0.0038  1.1974
13978SOL     OW43610   3.270   1.148   2.867  0.2382  0.4977 -0.1948
13978SOL    HW143611   3.226   1.170   2.785  1.7451 -2.3629 -1.8269
13978SOL    HW243612   3.361   1.174   2.853  0.6067 -0.4823  0.3815
13979SOL     OW43613   9.145   8.655   2.264  0.3496  0.0356 -0.1672
13979SOL    HW143614   9.220   8.699   2.225  0.8824 -1.3429 -0.7286
13979SOL    HW243615   9.180   8.573   2.298 -0.6132  0.0757  0.9522
13980SOL     OW43616   2.211   9.181   6.726 -0.0665 -0.2427  0.4810
13980SOL    HW143617   2.235   9.272   6.706 -1.8521  0.1230 -0.0705
13980SOL    HW243618   2.117   9.177   6.709 -0.0817 -2.0883  0.9453
13981SOL     OW43619   2.213   1.651   7.005 -0.4107  0.2231 -0.1377
13981SOL    HW143620   2.268   1.636   7.081 -2.0682 -1.5417  0.7426
13981SOL    HW243621   2.210   1.567   6.959 -1.6894  0.4977 -0.5991
13982SOL     OW43622   8.735   5.448   3.972  0.9462  0.2910  0.0531
13982SOL    HW143623   8.794   5.459   3.897  0.0681  0.1237 -0.6712
13982SOL    HW243624   8.662   5.507   3.954  0.2810 -0.4379  0.3250
13983SOL     OW43625   0.166   5.808   2.886  0.4817  0.2072 -0.2847
13983SOL    HW143626   0.248   5.829   2.930 -0.7631  1.9325  1.3017
13983SOL    HW243627   0.109   5.883   2.904 -2.1713 -1.9387  0.5587
13984SOL     OW43628   5.510   5.086   0.594 -0.3672  0.0745  0.3244
13984SOL    HW143629   5.447   5.081   0.666  0.1710  1.0523  0.8570
13984SOL    HW243630   5.544   4.996   0.586 -1.0737 -0.2297  0.7039
13985SOL     OW43631   8.162   6.446   3.316  0.2029 -0.0163 -0.5500
13985SOL    HW143632   8.214   6.409   3.245 -0.1429  0.8874 -1.2825
13985SOL    HW243633   8.222   6.448   3.391  0.4797 -1.2499 -0.7274
13986SOL     OW43634   9.146   2.884   3.483  0.6743 -0.2046  0.6377
13986SOL    HW143635   9.060   2.903   3.519 -0.9610 -1.7260 -2.2442
13986SOL    HW243636   9.154   2.788   3.488  0.7049 -0.4079 -2.1508
13987SOL     OW43637   8.109   0.571   7.472  0.1393  0.4746  0.0646
13987SOL    HW143638   8.066   0.562   7.557  1.3708 -1.0376  0.5518
13987SOL    HW243639   8.202   0.581   7.493  0.8526 -2.8862 -1.1438
13988SOL     OW43640   3.716   2.703   1.799 -0.1412  0.1609 -0.1361
13988SOL    HW143641   3.757   2.782   1.833 -1.6654  0.3775  1.2671
13988SOL    HW243642   3.786   2.637   1.799  1.6800  1.9717 -3.1943
13989SOL     OW43643   9.289   5.428   5.331 -0.1985  0.2570  0.5460
13989SOL    HW143644   9.238   5.349   5.352  0.4295 -0.5973 -1.0358
13989SOL    HW243645   9.377   5.395   5.311  0.3763  1.4874  1.0046
13990SOL     OW43646   6.153   6.733   4.818 -0.1142  0.5098  0.2137
13990SOL    HW143647   6.074   6.730   4.764 -0.5917  0.6551  0.8927
13990SOL    HW243648   6.192   6.646   4.809 -1.7254 -0.4216  1.8860
13991SOL     OW43649   0.472   3.316   1.996  0.0891  0.5240 -0.1485
13991SOL    HW143650   0.545   3.261   2.024 -2.7601 -3.2140  0.3323
13991SOL    HW243651   0.431   3.345   2.078  0.3534  1.6706 -0.4188
13992SOL     OW43652   3.560   1.487   6.502  0.5425 -0.6859  0.5438
13992SOL    HW143653   3.636   1.430   6.517  0.6564 -0.8126 -0.4916
13992SOL    HW243654   3.511   1.443   6.433  0.5435  0.4059 -0.1511
13993SOL     OW43655   7.733   6.165   0.896  0.1803 -0.4443  0.0851
13993SOL    HW143656   7.809   6.203   0.853  0.2610 -1.5657 -0.8058
13993SOL    HW243657   7.687   6.118   0.825 -1.0382 -0.2255  0.7185
13994SOL     OW43658   0.587   7.767   6.658 -0.5058  0.1309 -0.3419
13994SOL    HW143659   0.542   7.725   6.731 -0.7078 -0.7558 -0.9738
13994SOL    HW243660   0.520   7.820   6.616 -0.6698 -0.2472 -0.5598
13995SOL     OW43661   1.385   2.169   2.133 -0.0808 -0.4207  0.2855
13995SOL    HW143662   1.421   2.166   2.221  2.2627 -1.3608 -0.6648
13995SOL    HW243663   1.375   2.263   2.115 -0.2070 -0.2121  1.3931
13996SOL     OW43664   8.245   2.984   2.410 -0.0410  0.5270  0.6241
13996SOL    HW143665   8.240   2.947   2.499  0.8639 -0.8532  0.1134
13996SOL    HW243666   8.339   2.997   2.395 -0.1686  0.4832 -0.2324
13997SOL     OW43667   1.896   7.701   6.102  0.1994 -0.5723 -0.1558
13997SOL    HW143668   1.823   7.762   6.106 -0.6835 -1.7879  2.7820
13997SOL    HW243669   1.954   7.727   6.174  0.7480 -2.0283 -0.0498
13998SOL     OW43670   2.850   2.030   6.828  0.2071  0.7580  0.2425
13998SOL    HW143671   2.825   1.946   6.789  1.0874  1.3555 -1.6643
13998SOL    HW243672   2.767   2.078   6.836 -0.2296 -0.0843  0.8317
13999SOL     OW43673   3.570   1.804   4.111 -0.6055  0.1047  0.0769
13999SOL    HW143674   3.494   1.748   4.130  0.6508 -1.2660  1.1473
13999SOL    HW243675   3.589   1.848   4.193  0.2464 -0.1485  0.0145
14000SOL     OW43676   2.103   5.974   8.110  0.0108  0.0895 -0.1199
14000SOL    HW143677   2.108   6.055   8.060  0.2820 -0.3110 -0.7445
14000SOL    HW243678   2.193   5.959   8.141 -0.2458  0.5829  0.8805
14001SOL     OW43679   5.545   8.045   6.308  0.5537 -0.7333  0.1569
14001SOL    HW143680   5.549   7.953   6.283 -0.4829 -1.2606  1.8286
14001SOL    HW243681   5.594   8.050   6.390  0.3529  0.1481  0.2341
14002SOL     OW43682   0.683   3.412   9.226 -0.2073 -0.4691  0.3435
14002SOL    HW143683   0.649   3.450   9.145 -1.1779 -1.8100  0.0953
14002SOL    HW243684   0.776   3.397   9.208 -0.0651  0.7036  0.0480
14003SOL     OW43685   9.026   6.316   6.447  0.4099  0.0780 -0.5689
14003SOL    HW143686   8.978   6.300   6.365  1.4373 -1.2304 -0.9156
14003SOL    HW243687   8.997   6.246   6.506 -0.8333  1.3951  0.4451
14004SOL     OW43688   4.269   4.278   1.436 -0.4325 -0.4946  0.1736
14004SOL    HW143689   4.329   4.206   1.417  1.0280  0.0387  2.6276
14004SOL    HW243690   4.213   4.282   1.358  2.6208 -1.0704 -2.1834
14005SOL     OW43691   4.961   3.663   8.511  0.1920 -0.3383 -0.2113
14005SOL    HW143692   4.962   3.759   8.508  1.1800 -0.3230  0.6535
14005SOL    HW243693   4.923   3.638   8.427 -0.2236  0.8144 -0.3835
14006SOL     OW43694   7.923   8.176   3.287  0.0610  0.0315 -0.5659
14006SOL    HW143695   7.842   8.127   3.302 -0.8914  1.7724  0.1705
14006SOL    HW243696   7.931   8.233   3.363  1.1507  1.0175 -1.3946
14007SOL     OW43697   1.105   2.653   2.459 -0.2257  0.2885  0.0814
14007SOL    HW143698   1.200   2.659   2.452 -0.2722 -0.6301 -1.5819
14007SOL    HW243699   1.089   2.581   2.520  0.1384  1.6250  1.7890
14008SOL     OW43700   6.419   3.106   2.801  0.3942  0.0543 -0.4755
14008SOL    HW143701   6.389   3.015   2.806  0.3366  0.0120 -1.4059
14008SOL    HW243702   6.459   3.123   2.886  0.5907 -0.9074 -0.3639
14009SOL     OW43703   6.093   6.807   7.859 -0.1675  0.1701 -0.2223
14009SOL    HW143704   6.085   6.890   7.906  2.9375 -0.7249  2.0470
14009SOL    HW243705   6.014   6.758   7.884 -0.1006  0.9220  1.5642
14010SOL     OW43706   3.564   6.468   7.644  0.3871 -0.5616  1.1063
14010SOL    HW143707   3.656   6.493   7.652 -0.3155  2.1742  1.2978
14010SOL    HW243708   3.543   6.486   7.552 -0.1007 -0.6940  1.1920
14011SOL     OW43709   5.900   2.585   8.014  0.0698 -0.4110  0.2412
14011SOL    HW143710   5.966   2.585   8.083 -1.4027  0.1674  1.6681
14011SOL    HW243711   5.823   2.625   8.054 -1.3927 -1.7473 -1.1744
14012SOL     OW43712   9.017   5.945   8.585 -0.2522  0.3289 -0.1307
14012SOL    HW143713   8.969   5.882   8.532  0.9936 -1.6892  1.0696
14012SOL    HW243714   9.108   5.936   8.558  0.1782  0.3806  1.2350
14013SOL     OW43715   5.974   0.094   8.394  0.3311  0.3617  0.2782
14013SOL    HW143716   5.995   0.154   8.323  1.4536 -0.5678 -0.1852
14013SOL    HW243717   5.984   0.147   8.473  0.6801  0.9625 -0.1616
14014SOL     OW43718   7.777   4.501   2.927 -0.9290 -0.4991 -0.3085
14014SOL    HW143719   7.763   4.417   2.883  0.3176  0.0959 -1.8941
14014SOL    HW243720   7.872   4.506   2.940 -0.8533  1.2236 -1.3779
14015SOL     OW43721   5.716   4.988   7.061 -0.1439 -0.0691 -0.5674
14015SOL    HW143722   5.745   4.903   7.030  0.7752  0.9372 -2.5474
14015SOL    HW243723   5.686   5.034   6.982 -0.0135  1.6755  0.3617
14016SOL     OW43724   2.740   7.697   1.097 -0.3544 -0.9242 -0.0672
14016SOL    HW143725   2.830   7.677   1.121 -0.1398 -0.3970 -0.4272
14016SOL    HW243726   2.739   7.692   1.002 -0.4044  0.3015 -0.1403
14017SOL     OW43727   8.214   2.100   7.202  0.1479 -0.3845 -0.1112
14017SOL    HW143728   8.229   2.019   7.154 -0.5571  0.3870 -1.6699
14017SOL    HW243729   8.189   2.072   7.290  0.6417 -1.8331 -0.4246
14018SOL     OW43730   7.696   6.767   7.220 -0.6331  0.3827  0.1716
14018SOL    HW143731   7.670   6.734   7.305  0.0413 -1.5237 -0.3459
14018SOL    HW243732   7.791   6.756   7.217 -0.8101 -1.0036 -1.3960
14019SOL     OW43733   6.080   2.349   3.503 -0.2102  0.4506  0.2018
14019SOL    HW143734   6.138   2.313   3.435  0.6087  0.1206  1.0613
14019SOL    HW243735   6.079   2.281   3.571 -0.8078  0.8955  0.6353
14020SOL     OW43736   8.729   4.372   4.890  0.5416 -0.0997 -0.0151
14020SOL    HW143737   8.769   4.459   4.892  2.5364 -1.0173  1.1630
14020SOL    HW243738   8.695   4.359   4.979  0.6880 -0.7167 -0.0487
14021SOL     OW43739   5.848   2.818   4.257 -0.0466 -0.5185 -0.3210
14021SOL    HW143740   5.829   2.834   4.165  0.4479  0.8881 -0.1983
14021SOL    HW243741   5.796   2.741   4.280 -0.6383 -0.5142 -1.6118
14022SOL     OW43742   2.998   1.657   1.426  0.3438 -0.0022  0.0713
14022SOL    HW143743   3.057   1.726   1.394  0.7070 -0.5797 -0.5193
14022SOL    HW243744   3.032   1.576   1.387 -1.3166 -0.2415 -0.9164
14023SOL     OW43745   0.453   1.416   6.408  0.1989  0.6423  0.0553
14023SOL    HW143746   0.537   1.419   6.363  1.1640 -2.4556  1.5961
14023SOL    HW243747   0.416   1.331   6.386 -1.9232  1.4076  0.5101
14024SOL     OW43748   5.476   2.836   5.530  0.0085 -0.4468 -0.1109
14024SOL    HW143749   5.440   2.781   5.461 -1.2233  0.2489 -0.0336
14024SOL    HW243750   5.558   2.869   5.494  0.0578 -1.1930 -0.6982
14025SOL     OW43751   2.082   4.515   5.538 -0.1773 -0.6937  0.3616
14025SOL    HW143752   2.158   4.506   5.595  0.1501  1.2009  0.2408
14025SOL    HW243753   2.013   4.467   5.584  0.6718 -1.1309  1.2202
14026SOL     OW43754   4.696   2.060   7.202 -0.2635 -0.2053 -0.1142
14026SOL    HW143755   4.687   2.150   7.231 -1.4417 -0.3650  0.0143
14026SOL    HW243756   4.639   2.010   7.260  0.0648 -0.9846 -0.4520
14027SOL     OW43757   6.834   6.110   4.888  0.2260 -0.5603  0.0163
14027SOL    HW143758   6.825   6.153   4.803  3.0080  1.0077  0.4572
14027SOL    HW243759   6.761   6.143   4.940 -0.1613  0.2633 -1.0367
14028SOL     OW43760   6.168   7.597   7.630  0.1259  0.3464  0.3802
14028SOL    HW143761   6.145   7.669   7.571 -1.1892 -0.2615  0.1261
14028SOL    HW243762   6.257   7.617   7.659  1.3354  0.0020 -2.8543
14029SOL     OW43763   1.478   4.021   3.418  0.5071  0.5872 -0.7483
14029SOL    HW143764   1.478   3.995   3.326  1.2944  2.8293 -1.4288
14029SOL    HW243765   1.388   4.045   3.437  0.0692 -1.2240 -0.5264
14030SOL     OW43766   1.905   8.745   6.010  0.3885 -0.3083  0.1788
14030SOL    HW143767   1.912   8.661   5.964 -2.3813 -0.1472 -0.6296
14030SOL    HW243768   1.857   8.801   5.949 -1.6295  0.5247  2.4747
14031SOL     OW43769   5.493   6.929   6.132  0.0456 -0.4519  0.4649
14031SOL    HW143770   5.398   6.940   6.127  0.1531 -0.0376 -1.1340
14031SOL    HW243771   5.526   7.018   6.144  0.3265 -0.3216 -1.1296
14032SOL     OW43772   4.977   1.845   5.324 -0.1041 -0.5710 -0.1571
14032SOL    HW143773   4.973   1.910   5.394  0.8449  0.5443 -1.1249
14032SOL    HW243774   4.895   1.796   5.332 -1.2660  1.3416  0.0070
14033SOL     OW43775   7.698   0.183   6.407 -0.5715 -0.1755 -0.7988
14033SOL    HW143776   7.725   0.137   6.328 -0.4014  0.2558 -0.9920
14033SOL    HW243777   7.779   0.193   6.458 -1.0106 -2.2192  0.3532
14034SOL     OW43778   1.741   8.509   6.030 -1.1979 -0.4340  0.5520
14034SOL    HW143779   1.657   8.545   6.002 -2.6133 -0.8902  3.9871
14034SOL    HW243780   1.736   8.416   6.006 -1.6944 -0.4765  0.8234
14035SOL     OW43781   4.666   0.474   7.293  0.1685  0.3012 -0.2752
14035SOL    HW143782   4.635   0.542   7.233 -0.0185 -1.4025 -2.1726
14035SOL    HW243783   4.594   0.410   7.296  1.6777 -1.5129 -1.2728
14036SOL     OW43784   9.082   7.845   0.257  0.1091 -0.1723 -0.4994
14036SOL    HW143785   9.052   7.818   0.344  0.0113  0.6157 -0.2802
14036SOL    HW243786   9.117   7.933   0.271  0.9577 -0.4146 -1.0846
14037SOL     OW43787   4.769   8.450   5.219 -0.0758  0.3278  0.0664
14037SOL    HW143788   4.767   8.408   5.133 -1.0330 -0.1276  0.3043
14037SOL    HW243789   4.679   8.481   5.232  0.2385  1.0324  0.5923
14038SOL     OW43790   4.445   9.002   4.734 -0.4591  0.1735 -0.1938
14038SOL    HW143791   4.511   9.065   4.703 -0.0938  0.1658  0.5552
14038SOL    HW243792   4.408   9.043   4.812 -0.3582 -0.4591  0.1855
14039SOL     OW43793   3.721   1.720   6.857 -0.0058 -0.2184 -0.1851
14039SOL    HW143794   3.763   1.638   6.832  0.3013  0.2913 -1.3767
14039SOL    HW243795   3.642   1.725   6.804 -0.5207 -0.2036  0.5818
14040SOL     OW43796   0.389   2.877   5.414  0.4354  0.3550 -0.0260
14040SOL    HW143797   0.367   2.791   5.377  1.6638 -0.6257  1.4616
14040SOL    HW243798   0.307   2.907   5.453  0.8286 -1.7898  2.5816
14041SOL     OW43799   7.744   0.990   0.711 -0.3283  0.1993  0.4635
14041SOL    HW143800   7.680   1.062   0.707 -1.0192 -0.4414 -0.1542
14041SOL    HW243801   7.719   0.942   0.790 -2.1937 -1.4930 -1.1041
14042SOL     OW43802   2.451   7.211   4.552  0.1399 -0.4200 -0.2735
14042SOL    HW143803   2.392   7.136   4.567  0.2923 -0.7235 -1.1856
14042SOL    HW243804   2.502   7.217   4.632 -1.5664  0.2367  0.7979
14043SOL     OW43805   7.591   1.367   3.893  0.0899  0.4695 -0.1223
14043SOL    HW143806   7.549   1.440   3.938 -0.0188  0.3361 -0.0082
14043SOL    HW243807   7.684   1.379   3.908  0.1227  0.9815 -0.6952
14044SOL     OW43808   8.610   8.918   6.156 -0.2477  0.4537  0.1781
14044SOL    HW143809   8.644   8.945   6.071  0.5626 -2.7201 -0.5942
14044SOL    HW243810   8.521   8.952   6.158 -0.0355  1.1692 -1.6631
14045SOL     OW43811   4.681   6.199   0.245  0.0293 -0.1951 -0.5899
14045SOL    HW143812   4.752   6.142   0.216  1.3421  1.7337 -1.2399
14045SOL    HW243813   4.601   6.151   0.222  1.0847 -2.2421 -0.1284
14046SOL     OW43814   7.685   2.879   8.617  0.4302 -0.5851  0.6050
14046SOL    HW143815   7.626   2.952   8.599  0.9535  0.0021  1.2300
14046SOL    HW243816   7.628   2.806   8.640 -0.1428 -0.6832 -1.0689
14047SOL     OW43817   8.704   2.732   4.550 -0.3408  0.3260 -0.7461
14047SOL    HW143818   8.619   2.775   4.550 -0.9703 -0.8594 -2.7611
14047SOL    HW243819   8.759   2.790   4.497 -0.4715 -0.0079 -1.2454
14048SOL     OW43820   7.810   5.060   5.882  0.2070  0.6172  0.1028
14048SOL    HW143821   7.803   5.108   5.964  1.7062 -0.9059  1.1525
14048SOL    HW243822   7.729   5.080   5.835  0.9105  4.4247  0.3408
14049SOL     OW43823   0.047   8.906   2.699  0.0630  0.4194 -0.2108
14049SOL    HW143824   0.097   8.896   2.779  1.3370 -0.7698 -1.1248
14049SOL    HW243825   0.101   8.865   2.631 -0.9291  1.4898 -1.6983
14050SOL     OW43826   3.185   4.849   3.030 -0.3968 -0.3946 -0.1721
14050SOL    HW143827   3.186   4.787   2.957  1.2992 -1.6142  0.8514
14050SOL    HW243828   3.171   4.934   2.989  0.6898 -1.0475 -1.9515
14051SOL     OW43829   7.199   7.621   8.686 -0.3575 -0.3248 -0.0642
14051SOL    HW143830   7.132   7.686   8.708 -0.3319 -1.2297  3.0001
14051SOL    HW243831   7.238   7.653   8.605 -4.3290  0.3347 -1.8218
14052SOL     OW43832   0.772   2.328   8.722 -0.5506  0.2875 -0.4010
14052SOL    HW143833   0.768   2.394   8.790  0.7196 -2.9612  3.0036
14052SOL    HW243834   0.681   2.304   8.706 -0.8453  0.8270  0.4465
14053SOL     OW43835   3.183   3.058   7.715  0.1236  0.2971 -0.6698
14053SOL    HW143836   3.094   3.066   7.751 -0.4821 -1.3084 -1.7305
14053SOL    HW243837   3.199   3.143   7.673 -0.4402  1.0178  0.5501
14054SOL     OW43838   0.350   3.552   3.281  0.8544 -0.0838 -0.3940
14054SOL    HW143839   0.412   3.512   3.220  0.2050  0.2498 -1.2841
14054SOL    HW243840   0.266   3.550   3.234  0.6857  1.7014 -0.1871
14055SOL     OW43841   8.387   6.248   3.577 -0.1381  0.3590 -0.3437
14055SOL    HW143842   8.414   6.244   3.668  1.9023  0.2398 -0.9441
14055SOL    HW243843   8.321   6.178   3.569  0.6103 -0.4917  0.7165
14056SOL     OW43844   8.551   6.831   3.766 -0.5747  0.1110  0.1237
14056SOL    HW143845   8.509   6.912   3.738 -1.4709 -0.4391 -0.1176
14056SOL    HW243846   8.499   6.801   3.841 -0.8424 -0.7574 -0.4006
14057SOL     OW43847   5.472   3.337   6.455  0.1460 -0.0729  0.7780
14057SOL    HW143848   5.440   3.360   6.368  1.0855 -1.2955  0.0841
14057SOL    HW243849   5.515   3.416   6.488 -0.9057  0.6303  0.4561
14058SOL     OW43850   7.154   3.809   7.063  0.4939  0.5204  0.9194
14058SOL    HW143851   7.078   3.765   7.024  1.5029 -2.3923  2.0503
14058SOL    HW243852   7.222   3.800   6.996  0.2974  1.7288  0.5504
14059SOL     OW43853   0.656   2.756   4.757  0.0631  0.1352  0.0783
14059SOL    HW143854   0.648   2.738   4.663  1.1446 -0.3155  0.0664
14059SOL    HW243855   0.576   2.720   4.795  0.8971 -2.1869 -0.3077
14060SOL     OW43856   4.960   2.718   2.911  0.1191  0.0355  0.2074
14060SOL    HW143857   4.909   2.798   2.911  0.3526  0.2310  2.3954
14060SOL    HW243858   4.913   2.658   2.854 -0.0633  1.7133 -1.4273
14061SOL     OW43859   7.572   2.872   0.978 -0.1572  0.3109  0.2396
14061SOL    HW143860   7.543   2.826   1.057 -2.0360  0.7101 -0.1811
14061SOL    HW243861   7.499   2.861   0.917  0.2179  2.1535 -0.5547
14062SOL     OW43862   5.424   3.917   7.405  0.2207  0.1510  0.6846
14062SOL    HW143863   5.332   3.904   7.383  0.2694  0.8126  0.0812
14062SOL    HW243864   5.472   3.887   7.328  0.6023 -1.8466  1.6681
14063SOL     OW43865   5.515   4.271   5.835  0.0106 -0.2712 -0.0764
14063SOL    HW143866   5.438   4.300   5.785 -0.4190 -0.0143  0.7362
14063SOL    HW243867   5.532   4.182   5.802 -1.2509 -0.7194  0.4410
14064SOL     OW43868   2.758   8.112   7.817  0.3248 -0.4085 -0.7100
14064SOL    HW143869   2.677   8.075   7.783  1.0221 -1.7546 -0.9390
14064SOL    HW243870   2.749   8.105   7.912  0.1372 -0.5121 -0.7354
14065SOL     OW43871   4.126   0.063   7.652  0.4968 -0.1432  0.2478
14065SOL    HW143872   4.113   0.146   7.607  1.6141  0.6124  1.2863
14065SOL    HW243873   4.073   0.000   7.603 -0.4148  1.1943 -0.5040
14066SOL     OW43874   7.480   6.062   9.012  0.2748  0.2356 -0.1811
14066SOL    HW143875   7.503   6.128   9.077 -0.9661  1.3217 -0.8388
14066SOL    HW243876   7.492   5.979   9.058  0.6670  0.9446  1.0267
14067SOL     OW43877   4.612   2.117   4.399  0.0698 -0.4389 -0.0812
14067SOL    HW143878   4.690   2.068   4.371  0.1964 -0.1624 -0.2219
14067SOL    HW243879   4.637   2.209   4.388 -0.5568 -0.3573 -0.8854
14068SOL     OW43880   5.101   1.539   7.641  0.0836 -0.3703  0.0341
14068SOL    HW143881   5.006   1.546   7.652  0.3544  0.1503  2.2379
14068SOL    HW243882   5.121   1.447   7.656 -0.1234 -0.6072 -1.0632
14069SOL     OW43883   2.781   4.076   3.621 -0.0368  0.3431 -0.6613
14069SOL    HW143884   2.867   4.118   3.629 -0.1725  0.5654 -0.3493
14069SOL    HW243885   2.759   4.085   3.528  0.9054 -0.9797 -1.0134
14070SOL     OW43886   7.719   0.267   2.926  0.1159 -0.4876 -0.0983
14070SOL    HW143887   7.727   0.362   2.935  2.1173 -0.3845 -2.5358
14070SOL    HW243888   7.745   0.233   3.012  2.2223  1.0445 -0.0991
14071SOL     OW43889   7.535   5.267   8.209 -0.5655  0.1244  0.2841
14071SOL    HW143890   7.589   5.261   8.287 -0.9220 -0.0469  0.5208
14071SOL    HW243891   7.485   5.185   8.208 -0.6623  0.1872 -0.0444
14072SOL     OW43892   0.091   4.623   7.405 -0.5168  0.5938 -0.3453
14072SOL    HW143893   0.093   4.599   7.313 -1.9792 -0.3764 -0.1457
14072SOL    HW243894   0.056   4.545   7.449 -0.2373  1.1982  0.9692
14073SOL     OW43895   5.533   7.306   5.263  0.4767  0.4462  0.0739
14073SOL    HW143896   5.609   7.349   5.223  1.5457 -0.5987  0.9353
14073SOL    HW243897   5.560   7.215   5.274 -0.7750  0.1470  0.7223
14074SOL     OW43898   8.136   2.313   3.668 -0.2125 -0.1262 -0.2015
14074SOL    HW143899   8.224   2.280   3.686 -0.0986  0.3539  0.1207
14074SOL    HW243900   8.123   2.383   3.732 -0.7511 -0.0561 -0.3839
14075SOL     OW43901   6.458   4.204   1.356  0.3944 -0.3216 -0.2131
14075SOL    HW143902   6.443   4.187   1.449  0.9022  1.0595  0.1307
14075SOL    HW243903   6.388   4.263   1.329  1.6433  1.2458 -0.0936
14076SOL     OW43904   2.827   3.468   7.279  0.3557  0.3948 -0.5133
14076SOL    HW143905   2.893   3.526   7.318 -1.1891  1.5576  0.4044
14076SOL    HW243906   2.818   3.397   7.342 -0.6056  1.1935  0.2658
14077SOL     OW43907   7.735   1.803   1.266  0.2640  0.3058 -0.1407
14077SOL    HW143908   7.728   1.893   1.299  2.0974 -0.1238  1.5311
14077SOL    HW243909   7.816   1.803   1.214 -0.1865 -0.1746 -0.8443
14078SOL     OW43910   0.548   0.699   1.357  0.5719  0.1257 -1.0175
14078SOL    HW143911   0.643   0.700   1.371  0.5984 -2.1294 -0.8219
14078SOL    HW243912   0.528   0.786   1.321  2.4051  1.3262  0.7634
14079SOL     OW43913   8.672   7.750   5.625  0.1634 -0.6265  0.2492
14079SOL    HW143914   8.591   7.749   5.677  0.3060  0.0905  0.4790
14079SOL    HW243915   8.670   7.666   5.578 -1.0773 -0.3081 -0.3101
14080SOL     OW43916   0.039   3.537   2.218 -0.5804  0.8049 -0.6368
14080SOL    HW143917  -0.013   3.590   2.158  0.5946  0.4327 -2.0349
14080SOL    HW243918   0.067   3.598   2.286 -0.9974  1.5077 -1.0888
14081SOL     OW43919   1.620   7.722   4.807 -0.1114  0.2942  0.3765
14081SOL    HW143920   1.529   7.693   4.806  0.6900 -2.3530  1.7942
14081SOL    HW243921   1.616   7.811   4.844 -1.7727 -1.1364  3.8230
14082SOL     OW43922   3.531   0.473   7.321  0.7313 -0.8183 -0.2838
14082SOL    HW143923   3.509   0.512   7.405 -1.4280 -0.2391 -1.0672
14082SOL    HW243924   3.518   0.379   7.334 -0.9461 -0.6167 -0.3027
14083SOL     OW43925   6.021   7.823   2.036 -0.0894  0.2464 -0.2793
14083SOL    HW143926   6.033   7.742   1.987 -1.2502  0.4029 -0.8449
14083SOL    HW243927   5.948   7.867   1.992 -0.9478  0.5409  1.3805
14084SOL     OW43928   9.018   3.608   4.938  0.3258  0.2187 -0.5918
14084SOL    HW143929   9.071   3.528   4.947  0.2813  0.3264  0.7951
14084SOL    HW243930   9.081   3.679   4.943  0.2387  0.3045 -0.7169
14085SOL     OW43931   0.670   1.207   7.873  0.7672 -0.5912 -0.0279
14085SOL    HW143932   0.673   1.147   7.947  0.5824 -0.2432  0.2617
14085SOL    HW243933   0.700   1.290   7.908  1.3918 -0.6105 -0.5245
14086SOL     OW43934   4.126   1.822   5.945 -0.1349  0.3073  0.2324
14086SOL    HW143935   4.175   1.794   5.867 -1.5245 -0.6700 -0.2966
14086SOL    HW243936   4.192   1.825   6.014  0.9295  0.2440 -0.7639
14087SOL     OW43937   9.019   3.658   2.899 -0.6041  0.2859 -0.0892
14087SOL    HW143938   9.111   3.657   2.874  0.2381 -0.1861  2.8532
14087SOL    HW243939   9.009   3.738   2.951 -2.0547  0.7790 -1.1094
14088SOL     OW43940   5.991   1.210   6.250 -0.8686 -0.7364  0.9504
14088SOL    HW143941   5.934   1.251   6.315 -1.4559  0.1085 -0.0842
14088SOL    HW243942   5.934   1.150   6.202 -0.6977 -0.4968  0.4445
14089SOL     OW43943   2.993   2.568   2.972 -0.1831  0.6524 -0.3622
14089SOL    HW143944   2.931   2.504   3.008  0.0139  1.5018  1.5175
14089SOL    HW243945   2.944   2.649   2.967  0.3089  0.9507 -0.4015
14090SOL     OW43946   6.983   2.064   4.197 -0.2514  0.7011  0.2828
14090SOL    HW143947   7.062   2.095   4.154  0.4894  0.3909  1.3954
14090SOL    HW243948   6.926   2.141   4.203  0.1689  1.0367 -0.0633
14091SOL     OW43949   7.622   6.986   0.690 -0.2427  0.2682  0.1865
14091SOL    HW143950   7.634   6.931   0.613  0.0985  0.2880  0.2239
14091SOL    HW243951   7.709   7.022   0.707 -0.2589  0.0520  0.7405
14092SOL     OW43952   4.866   2.854   8.964 -0.6377 -0.0272 -0.2232
14092SOL    HW143953   4.792   2.810   9.007  0.2762 -1.3072  0.0531
14092SOL    HW243954   4.940   2.796   8.978  0.2599  0.8641 -1.2053
14093SOL     OW43955   8.710   0.619   6.037 -0.8360 -0.4055  0.1393
14093SOL    HW143956   8.657   0.608   5.959 -1.2258 -0.3495  0.3968
14093SOL    HW243957   8.658   0.582   6.108 -0.4875 -0.4526  0.3748
14094SOL     OW43958   6.098   3.123   3.363 -0.5213 -0.6850  0.2153
14094SOL    HW143959   6.111   3.118   3.268 -0.8780  1.7241  0.0146
14094SOL    HW243960   6.164   3.065   3.399  1.3167  0.3530 -1.4131
14095SOL     OW43961   4.185   8.910   8.146 -0.1929 -0.5014  0.1762
14095SOL    HW143962   4.227   8.884   8.065  0.7529  1.3188  0.0450
14095SOL    HW243963   4.217   8.999   8.162 -1.0292 -0.5102  2.0836
14096SOL     OW43964   1.077   6.437   0.325 -0.1140  0.6680 -0.2182
14096SOL    HW143965   1.045   6.457   0.414 -0.3191  0.0028 -0.1392
14096SOL    HW243966   1.095   6.523   0.287 -2.6173  1.1082 -0.4951
14097SOL     OW43967   6.857   0.032   0.754  0.2637 -0.2296 -0.3807
14097SOL    HW143968   6.925   0.059   0.816  0.5236  0.0697 -0.7928
14097SOL    HW243969   6.905  -0.020   0.689  0.3556  1.2202 -1.4893
14098SOL     OW43970   5.013   3.411   6.684  0.5742 -0.2521  0.5446
14098SOL    HW143971   4.952   3.367   6.625  0.7388 -0.1550  0.3034
14098SOL    HW243972   4.958   3.444   6.755  0.0959  1.2627 -0.4901
14099SOL     OW43973   7.654   2.001   4.308  0.1097 -0.5135 -0.3552
14099SOL    HW143974   7.568   1.960   4.315  0.2287 -0.5132  1.4978
14099SOL    HW243975   7.666   2.017   4.215 -1.2508 -1.8855 -0.7833
14100SOL     OW43976   2.813   5.729   8.899  0.2770 -0.0163 -0.3812
14100SOL    HW143977   2.856   5.658   8.948 -0.6426 -0.4450 -0.1900
14100SOL    HW243978   2.720   5.718   8.917  0.0381  0.6167 -1.1919
14101SOL     OW43979   2.847   1.899   1.960 -0.0358 -0.3122 -0.5267
14101SOL    HW143980   2.870   1.944   2.041  0.8053  0.0017 -0.9261
14101SOL    HW243981   2.849   1.806   1.983 -0.8589 -0.1900  0.0692
14102SOL     OW43982   4.289   1.029   3.728  0.0372  0.1160 -0.3376
14102SOL    HW143983   4.374   0.988   3.716 -0.7264 -1.6892  0.3203
14102SOL    HW243984   4.255   1.041   3.639 -0.0030 -1.2361 -0.5028
14103SOL     OW43985   5.126   1.093   6.987 -0.0550 -0.1480 -0.5850
14103SOL    HW143986   5.219   1.097   6.963 -0.6402  1.0249 -2.8958
14103SOL    HW243987   5.087   1.038   6.919 -0.9252 -1.2453  0.8030
14104SOL     OW43988   0.878   8.538   0.253  0.3897 -0.3085  0.6595
14104SOL    HW143989   0.792   8.556   0.214  1.1543 -1.8718 -1.8885
14104SOL    HW243990   0.858   8.488   0.332 -1.1034  0.8955  1.0821
14105SOL     OW43991   1.417   3.398   0.006 -0.3970  0.4043 -0.5535
14105SOL    HW143992   1.460   3.437   0.082  0.5831  0.5250 -1.1503
14105SOL    HW243993   1.383   3.473  -0.043 -0.0909  0.3947 -0.7804
14106SOL     OW43994   5.661   2.675   4.952 -0.1371  0.0775 -0.0453
14106SOL    HW143995   5.587   2.723   4.988 -0.2124 -0.6948  0.8284
14106SOL    HW243996   5.622   2.605   4.900 -0.0250  0.7558 -1.0509
14107SOL     OW43997   0.394   3.120   1.834 -0.8446 -0.1573  0.0976
14107SOL    HW143998   0.473   3.072   1.862 -0.4109  0.8628  0.6315
14107SOL    HW243999   0.397   3.202   1.882 -1.9706  0.1161 -0.2810
14108SOL     OW44000   4.419   3.778   7.803 -0.2012 -0.7941 -0.7453
14108SOL    HW144001   4.437   3.797   7.711  0.1010 -1.8714 -0.9202
14108SOL    HW244002   4.348   3.713   7.802 -1.3611  0.4490 -0.1642
14109SOL     OW44003   2.543   2.209   4.582 -0.4800 -0.4779  0.6062
14109SOL    HW144004   2.560   2.287   4.636 -1.3871  0.2644 -0.1579
14109SOL    HW244005   2.448   2.207   4.573 -0.4375 -1.5388  0.4082
14110SOL     OW44006   8.828   7.975   4.992 -0.2349 -0.4929  0.0758
14110SOL    HW144007   8.923   7.968   4.985 -0.3385 -0.3415 -1.9113
14110SOL    HW244008   8.812   8.062   5.027  0.3228  0.2461 -1.4814
14111SOL     OW44009   4.701   5.267   4.248  0.3104  0.2601 -0.4934
14111SOL    HW144010   4.751   5.348   4.232 -0.7314  0.8021 -0.9930
14111SOL    HW244011   4.750   5.224   4.319  0.9861  1.2283 -0.3501
14112SOL     OW44012   1.311   7.650   1.766  0.2336 -0.4182  0.1102
14112SOL    HW144013   1.276   7.561   1.759 -0.0274 -0.3187  0.1078
14112SOL    HW244014   1.391   7.641   1.818 -1.0365 -0.3358  2.1404
14113SOL     OW44015   0.147   1.692   9.276 -0.2494  0.1350 -0.6451
14113SOL    HW144016   0.165   1.786   9.281 -0.5702  0.1804 -0.3134
14113SOL    HW244017   0.186   1.656   9.356 -0.7228  0.0841 -0.4384
14114SOL     OW44018   8.182   0.691   5.594 -0.6294  0.0407  0.0634
14114SOL    HW144019   8.141   0.700   5.508 -0.5464 -1.3959 -0.1403
14114SOL    HW244020   8.118   0.642   5.646 -0.6924  0.9295  0.8250
14115SOL     OW44021   0.508   6.719   3.533  0.7781  0.0332 -0.8749
14115SOL    HW144022   0.598   6.745   3.553  1.2621 -3.0845  1.5563
14115SOL    HW244023   0.454   6.773   3.589  1.3752 -0.2067 -0.0550
14116SOL     OW44024   8.458   8.877   6.424  0.1092  0.7861  0.0624
14116SOL    HW144025   8.548   8.873   6.391  0.3307 -0.4629  0.7917
14116SOL    HW244026   8.436   8.970   6.421  1.0959  0.9939 -0.9864
14117SOL     OW44027   5.093   2.282   8.930 -0.2493  0.1267  0.1224
14117SOL    HW144028   5.098   2.284   8.835 -0.4650 -0.4040  0.0960
14117SOL    HW244029   5.094   2.374   8.956  0.2599  0.2591 -0.3641
14118SOL     OW44030   5.102   8.278   1.236 -0.8752 -0.6344  0.5509
14118SOL    HW144031   5.111   8.197   1.184 -0.2212  0.2595 -0.7580
14118SOL    HW244032   5.137   8.255   1.322  2.4462 -0.8292 -0.7689
14119SOL     OW44033   6.966   8.262   1.223  0.0659 -0.1350 -0.1995
14119SOL    HW144034   6.954   8.202   1.148  0.0083  0.2172 -0.4739
14119SOL    HW244035   6.882   8.261   1.267  0.6936 -1.8762  1.0067
14120SOL     OW44036   2.866   7.142   1.196 -0.0844 -0.8572  0.2078
14120SOL    HW144037   2.903   7.094   1.121  0.7629  0.1885 -0.0494
14120SOL    HW244038   2.901   7.230   1.188 -1.5960 -0.1910  0.7245
14121SOL     OW44039   4.235   1.581   2.391  0.0512  0.4059 -0.2170
14121SOL    HW144040   4.169   1.617   2.332 -0.3221 -0.2744 -0.2154
14121SOL    HW244041   4.196   1.501   2.425  1.5451 -0.8977 -1.5115
14122SOL     OW44042   0.958   3.593   1.819 -0.3968 -0.1086 -0.3118
14122SOL    HW144043   1.035   3.561   1.772  1.0700  0.5573  1.5718
14122SOL    HW244044   0.888   3.533   1.793  0.8502 -1.0365 -1.6699
14123SOL     OW44045   2.335   7.553   2.472 -0.1544  0.2896  0.1660
14123SOL    HW144046   2.301   7.626   2.422  0.7133  0.4828 -0.1403
14123SOL    HW244047   2.257   7.511   2.510 -0.8277 -0.0428 -1.5735
14124SOL     OW44048   1.790   0.647   5.002 -0.7476  0.0132 -0.8852
14124SOL    HW144049   1.820   0.716   5.061  1.2626  0.1367 -2.0224
14124SOL    HW244050   1.716   0.687   4.956 -0.6426  0.8405 -0.3622
14125SOL     OW44051   8.415   4.540   1.653 -0.1498 -0.2930 -0.5950
14125SOL    HW144052   8.350   4.574   1.714 -0.0237  0.9788 -1.1619
14125SOL    HW244053   8.420   4.446   1.673  0.2405  0.1768  1.6699
14126SOL     OW44054   4.698   3.219   0.937  0.3940 -0.4857  0.0052
14126SOL    HW144055   4.611   3.259   0.925  0.9263  1.4529  2.1778
14126SOL    HW244056   4.754   3.266   0.875  0.3075 -0.2999  0.0677
14127SOL     OW44057   6.271   5.856   5.683  0.0422 -0.2103  0.7421
14127SOL    HW144058   6.361   5.828   5.696  0.3466 -0.9275 -2.5346
14127SOL    HW244059   6.278   5.946   5.650 -0.4988  0.0490  1.3206
14128SOL     OW44060   8.484   7.078   0.908 -0.0988  0.1933 -0.1570
14128SOL    HW144061   8.492   7.032   0.991 -1.4740  0.8867  0.3683
14128SOL    HW244062   8.412   7.139   0.920  1.9496  2.8462 -0.6985
14129SOL     OW44063   0.543   2.513   7.442  0.2334 -0.1262 -0.0354
14129SOL    HW144064   0.516   2.444   7.382  0.9481  1.6366 -2.4995
14129SOL    HW244065   0.474   2.579   7.435  1.1697  0.8531 -0.2971
14130SOL     OW44066   6.475   1.692   5.971  0.1474 -0.1786 -0.5267
14130SOL    HW144067   6.547   1.752   5.952  1.0485 -0.3114  2.1461
14130SOL    HW244068   6.480   1.679   6.066 -2.1993 -1.7368 -0.5765
14131SOL     OW44069   1.966   1.693   4.998 -0.4631 -0.5015 -0.3067
14131SOL    HW144070   1.987   1.622   4.938 -0.6400 -1.7211  1.0399
14131SOL    HW244071   1.901   1.656   5.058 -1.6391  1.2362 -0.4549
14132SOL     OW44072   7.820   6.146   7.460 -0.6030  0.2281 -0.0247
14132SOL    HW144073   7.745   6.089   7.444  0.3153 -0.6571 -1.3646
14132SOL    HW244074   7.865   6.106   7.534 -1.7721  1.1081  1.1776
14133SOL     OW44075   4.904   6.473   9.289 -0.7445  0.1441  0.0909
14133SOL    HW144076   4.895   6.379   9.303  0.2354  0.3546  2.3274
14133SOL    HW244077   4.925   6.482   9.196  0.8023 -1.9438  0.2224
14134SOL     OW44078   1.745   8.020   0.408 -0.3616  0.3371 -0.4826
14134SOL    HW144079   1.788   8.051   0.328  0.8095 -0.7397 -0.2969
14134SOL    HW244080   1.817   7.991   0.464 -1.0800  2.2271  1.4831
14135SOL     OW44081   9.122   1.926   3.195  0.1148 -0.7920  0.2826
14135SOL    HW144082   9.174   2.004   3.176 -0.2241 -1.2790 -2.8134
14135SOL    HW244083   9.145   1.904   3.286  1.4800  1.8957  0.6391
14136SOL     OW44084   6.993   7.570   3.201  0.1095  0.3158  0.1404
14136SOL    HW144085   7.021   7.655   3.167 -0.8408  0.3404 -0.6042
14136SOL    HW244086   6.962   7.523   3.124  2.0825 -1.3104  0.3051
14137SOL     OW44087   7.465   5.851   2.095  0.0253 -0.0804 -0.0697
14137SOL    HW144088   7.524   5.920   2.067 -1.5037  0.7383 -1.4150
14137SOL    HW244089   7.521   5.774   2.106  1.4153  0.8129 -0.7270
14138SOL     OW44090   6.922   2.379   4.402 -0.1287 -0.1775  0.1555
14138SOL    HW144091   6.878   2.364   4.318 -1.5112  1.5435  0.5421
14138SOL    HW244092   7.006   2.418   4.378 -1.4416  2.4701 -0.4126
14139SOL     OW44093   0.132   4.113   1.828 -0.2282  0.0958 -0.5165
14139SOL    HW144094   0.079   4.067   1.764  1.0748 -1.6270 -0.4084
14139SOL    HW244095   0.196   4.162   1.776  1.3959 -2.0114 -0.5340
14140SOL     OW44096   6.341   4.322   8.554  0.2805 -0.1571  0.4497
14140SOL    HW144097   6.289   4.342   8.476  1.7015  0.2477 -0.4075
14140SOL    HW244098   6.412   4.385   8.552  0.0685  0.1438  2.3395
14141SOL     OW44099   7.960   7.182   6.038  0.2021 -0.3502 -0.4179
14141SOL    HW144100   8.013   7.227   5.973  0.2609  1.6793  0.9948
14141SOL    HW244101   7.886   7.240   6.053 -1.3997 -2.2340 -0.9017
14142SOL     OW44102   1.191   0.162   5.497  0.1802 -0.7719  0.2562
14142SOL    HW144103   1.214   0.193   5.409 -0.7104  1.2014  0.6893
14142SOL    HW244104   1.263   0.103   5.521  0.6408 -1.0225 -1.6225
14143SOL     OW44105   6.237   7.931   2.445  0.5031 -0.1910 -0.0822
14143SOL    HW144106   6.216   7.971   2.360  1.3525 -0.7755 -0.5724
14143SOL    HW244107   6.183   7.852   2.449  1.1327 -0.6436 -0.4772
14144SOL     OW44108   4.054   6.078   7.729  0.0839 -0.0577 -0.2426
14144SOL    HW144109   3.966   6.088   7.692 -0.0211  2.1142  0.5039
14144SOL    HW244110   4.111   6.073   7.652 -0.5054  0.5098 -0.7264
14145SOL     OW44111   3.553   6.552   7.393 -0.0075  0.7097  0.7153
14145SOL    HW144112   3.625   6.598   7.350  1.3040 -1.1904  0.7990
14145SOL    HW244113   3.505   6.510   7.320  0.9795 -0.7828  0.8946
14146SOL     OW44114   7.095   9.169   8.314 -0.2473 -0.4669 -0.6043
14146SOL    HW144115   7.027   9.148   8.251 -0.9737 -0.4889  0.1752
14146SOL    HW244116   7.050   9.216   8.384  0.6090 -0.1110 -0.2765
14147SOL     OW44117   8.889   6.980   4.726  0.3944  0.3009  0.2887
14147SOL    HW144118   8.940   6.984   4.645  1.0142 -1.2951  0.5756
14147SOL    HW244119   8.798   6.972   4.697  0.3055  2.6617 -0.2229
14148SOL     OW44120   6.800   1.930   3.221  0.0503  0.5213  0.8107
14148SOL    HW144121   6.766   2.007   3.266 -1.4882 -1.0418  2.3440
14148SOL    HW244122   6.735   1.912   3.153 -0.7104 -0.7057  1.8508
14149SOL     OW44123   2.045   8.122   5.222 -0.1655 -0.7280  0.4940
14149SOL    HW144124   2.005   8.097   5.139  0.2084  0.5346 -0.0795
14149SOL    HW244125   1.981   8.098   5.288  0.2122 -3.2630 -0.0166
14150SOL     OW44126   3.242   8.865   5.127 -0.3458 -0.5522 -0.5874
14150SOL    HW144127   3.199   8.781   5.142 -0.9918 -0.1588 -0.1876
14150SOL    HW244128   3.222   8.887   5.036  1.2108 -1.6066 -1.2134
14151SOL     OW44129   5.274   8.386   4.969  0.1912  0.1166  0.1066
14151SOL    HW144130   5.320   8.305   4.988 -2.7589 -1.6499  0.0908
14151SOL    HW244131   5.255   8.423   5.056  1.7407  0.9306  0.1079
14152SOL     OW44132   0.114   3.878   3.594  0.2246  0.1210 -0.1418
14152SOL    HW144133   0.101   3.822   3.670 -0.0420  1.0476  0.5066
14152SOL    HW244134   0.058   3.954   3.610  0.8877  0.7663 -0.8029
14153SOL     OW44135   9.201   8.492   1.623 -0.2265 -0.1364 -0.0198
14153SOL    HW144136   9.187   8.437   1.700  1.0132 -3.0957 -1.7949
14153SOL    HW244137   9.294   8.513   1.626 -0.2867  0.1908 -0.4235
14154SOL     OW44138   6.821   1.956   2.095  0.2217 -0.0317  0.1916
14154SOL    HW144139   6.893   2.001   2.139 -0.3114  1.6686 -0.6299
14154SOL    HW244140   6.782   1.900   2.163  0.6423  1.0632  1.3415
14155SOL     OW44141   3.263   6.094   7.998 -0.5061  0.0708  0.3407
14155SOL    HW144142   3.219   6.022   8.043  1.8749 -1.4632  0.3240
14155SOL    HW244143   3.267   6.164   8.063 -0.6298 -0.7215  1.2087
14156SOL     OW44144   1.617   3.702   6.779 -0.1983 -0.0613  0.0894
14156SOL    HW144145   1.689   3.706   6.842 -2.5784  0.9428  2.8856
14156SOL    HW244146   1.585   3.612   6.783 -0.9686  0.2495  1.0756
14157SOL     OW44147   2.395   1.648   3.022  0.2868  0.1963  0.4271
14157SOL    HW144148   2.319   1.660   2.965  1.0471  0.2394 -0.5922
14157SOL    HW244149   2.469   1.634   2.961  1.2638  1.1512  1.3772
14158SOL     OW44150   1.201   7.454   0.636  0.4432  0.0684  0.1262
14158SOL    HW144151   1.133   7.448   0.569 -0.9431 -0.7290  1.5649
14158SOL    HW244152   1.153   7.472   0.717  1.9675 -0.3268  1.1440
14159SOL     OW44153   8.854   3.332   4.323  0.0202 -0.0011  0.1730
14159SOL    HW144154   8.772   3.298   4.358  0.5748 -0.8811  0.6615
14159SOL    HW244155   8.892   3.258   4.275 -0.3507  0.9585 -1.6233
14160SOL     OW44156   6.956   3.361   0.972  0.1471  0.2388 -0.4564
14160SOL    HW144157   6.890   3.297   0.943 -0.1218  0.4443 -0.2997
14160SOL    HW244158   7.039   3.313   0.970  0.3164  0.5687 -2.7022
14161SOL     OW44159   7.383   9.227   2.967 -0.4468 -0.5956  0.4616
14161SOL    HW144160   7.316   9.186   3.022 -1.2599  1.4046  0.9834
14161SOL    HW244161   7.447   9.262   3.028 -1.0139  1.0538  0.1422
14162SOL     OW44162   0.781   2.394   5.498  0.4281 -0.1019 -0.0488
14162SOL    HW144163   0.862   2.343   5.488 -0.2785 -1.2051 -0.1889
14162SOL    HW244164   0.777   2.448   5.419  0.2067 -1.2153 -0.8041
14163SOL     OW44165   0.104   7.088   3.164  0.1103 -0.0261  0.2328
14163SOL    HW144166   0.154   7.007   3.150 -0.0863 -0.2142  0.6082
14163SOL    HW244167   0.147   7.130   3.238  0.8059  0.6916 -0.5755
14164SOL     OW44168   4.618   8.193   7.638 -0.1247 -0.5022  0.5291
14164SOL    HW144169   4.606   8.149   7.722  0.6515 -0.8284  0.4735
14164SOL    HW244170   4.533   8.232   7.619  0.0422  0.6932  2.1113
14165SOL     OW44171   1.690   7.670   0.634  0.2334 -0.1854 -0.1900
14165SOL    HW144172   1.660   7.604   0.572 -2.2049 -0.1159  0.8642
14165SOL    HW244173   1.720   7.619   0.710 -1.2456 -0.1125  0.4523
14166SOL     OW44174   5.097   0.602   8.997  0.1214 -0.0733 -0.8972
14166SOL    HW144175   5.175   0.592   9.051 -0.1396  3.8698  0.3628
14166SOL    HW244176   5.044   0.525   9.017  2.6507 -1.6463 -0.0284
14167SOL     OW44177   8.372   1.671   2.058 -0.4449 -0.0894  0.1447
14167SOL    HW144178   8.438   1.635   2.118  0.2747  1.4152  0.2750
14167SOL    HW244179   8.299   1.695   2.115 -0.5766 -0.5417  0.1666
14168SOL     OW44180   6.007   3.647   0.981 -0.1873  0.4695  0.1952
14168SOL    HW144181   6.018   3.668   1.074  0.8237 -3.9103  1.1769
14168SOL    HW244182   5.914   3.629   0.972 -0.4537  1.8587  0.1312
14169SOL     OW44183   3.772   0.123   1.847  0.6598  0.2930  0.4284
14169SOL    HW144184   3.767   0.036   1.808  0.8776 -0.0359  1.1295
14169SOL    HW244185   3.766   0.183   1.773  0.4937 -0.3182 -0.0541
14170SOL     OW44186   7.451   2.766   0.767 -0.3348 -0.2731  0.1315
14170SOL    HW144187   7.406   2.732   0.690 -0.9422  1.4362 -0.2915
14170SOL    HW244188   7.514   2.698   0.791 -0.3476 -0.9346 -1.7008
14171SOL     OW44189   4.616   7.894   0.522  0.4626 -0.1558  0.4119
14171SOL    HW144190   4.564   7.855   0.452  1.9206 -0.9624 -0.2568
14171SOL    HW244191   4.554   7.911   0.592 -1.5684  3.1545 -2.0519
14172SOL     OW44192   3.432   1.138   9.217  0.2183 -0.3615 -0.3829
14172SOL    HW144193   3.389   1.139   9.132 -1.6804 -1.6134  0.5302
14172SOL    HW244194   3.377   1.083   9.272  2.0577 -0.5618  1.3434
14173SOL     OW44195   0.045   0.694   8.588 -0.5613  0.2349  0.0067
14173SOL    HW144196   0.066   0.726   8.675  0.4046 -0.8111  0.1776
14173SOL    HW244197   0.080   0.760   8.529  2.0357 -0.7697  0.3301
14174SOL     OW44198   4.293   6.967   2.208  0.4319 -0.1193  0.1539
14174SOL    HW144199   4.284   6.979   2.303 -0.5983  1.6485 -0.1459
14174SOL    HW244200   4.387   6.968   2.192  0.5685  0.9137  0.9931
14175SOL     OW44201   0.801   7.031   3.275 -0.1500 -0.1320  0.1206
14175SOL    HW144202   0.722   7.041   3.328  0.3579 -0.3185  0.9150
14175SOL    HW244203   0.856   7.105   3.300  1.1006 -1.5391  1.6321
14176SOL     OW44204   2.614   4.210   5.506 -0.8868 -0.1405  0.0978
14176SOL    HW144205   2.597   4.301   5.529 -1.1670 -0.2425  0.3015
14176SOL    HW244206   2.689   4.185   5.560 -0.3953  0.1664 -0.4442
14177SOL     OW44207   3.935   4.325   1.726 -0.6240  0.1000 -0.4391
14177SOL    HW144208   4.001   4.260   1.700  0.0929  1.0781 -1.0894
14177SOL    HW244209   3.975   4.372   1.799 -1.1439 -0.2013  0.0342
14178SOL     OW44210   8.684   3.484   3.202  0.4760 -0.3016  0.6940
14178SOL    HW144211   8.619   3.507   3.136  0.5320  1.2071  1.1485
14178SOL    HW244212   8.755   3.547   3.188  1.5535 -1.5039  0.6317
14179SOL     OW44213   4.533   1.896   2.158  0.4967  0.2243  0.4240
14179SOL    HW144214   4.617   1.917   2.200 -0.7088  1.2140  2.4443
14179SOL    HW244215   4.470   1.897   2.230 -1.6534  1.9277 -1.4218
14180SOL     OW44216   9.242   5.422   2.117  0.0720  0.8345 -0.1198
14180SOL    HW144217   9.197   5.501   2.087 -1.4585  0.4421  1.0955
14180SOL    HW244218   9.232   5.423   2.212  0.9538 -0.2789 -0.0048
14181SOL     OW44219   9.088   2.931   7.240 -0.3866  0.1319  0.0954
14181SOL    HW144220   9.112   2.841   7.217  0.7584  0.5473 -0.3893
14181SOL    HW244221   9.010   2.950   7.188 -0.8366 -0.6954  0.4566
14182SOL     OW44222   1.985   2.295   0.737 -0.0639  0.5512 -0.0416
14182SOL    HW144223   2.045   2.366   0.757 -0.4696  1.4525 -1.8854
14182SOL    HW244224   2.025   2.250   0.663 -1.7520  1.3086 -1.4479
14183SOL     OW44225   8.198   3.427   8.004 -0.0184  0.6692  0.4145
14183SOL    HW144226   8.163   3.361   7.945 -1.4342  0.6402  1.2750
14183SOL    HW244227   8.123   3.458   8.054  1.3835 -0.3380  3.2347
14184SOL     OW44228   8.000   8.322   9.042  0.0569 -0.1670  0.1746
14184SOL    HW144229   8.001   8.296   8.950 -1.1042 -0.9889  0.3801
14184SOL    HW244230   7.914   8.362   9.054  1.4165  2.9871  0.1072
14185SOL     OW44231   7.562   4.861   5.473 -0.0979  0.0318  0.2171
14185SOL    HW144232   7.489   4.840   5.530  0.8040 -2.4057  0.5683
14185SOL    HW244233   7.529   4.844   5.384  0.6970 -3.4605  0.5096
14186SOL     OW44234   6.263   5.154   1.674  0.2470 -0.0667 -1.0974
14186SOL    HW144235   6.276   5.219   1.743  0.6538 -1.3158  0.0318
14186SOL    HW244236   6.265   5.204   1.593  1.7812  1.1628 -0.3283
14187SOL     OW44237   5.790   4.013   8.629  0.0807  0.0454 -0.0946
14187SOL    HW144238   5.726   3.983   8.564 -0.0642 -0.2971  0.2082
14187SOL    HW244239   5.743   4.080   8.679  0.6947  1.4844 -1.3765
14188SOL     OW44240   4.797   7.047   4.563  0.1703 -0.2067  0.4914
14188SOL    HW144241   4.829   7.122   4.512 -0.4797 -0.7182 -0.6839
14188SOL    HW244242   4.706   7.037   4.536 -0.3400 -0.1535  2.1645
14189SOL     OW44243   8.376   5.574   1.146 -0.1004  0.2015  0.0456
14189SOL    HW144244   8.361   5.638   1.076  1.7085  1.5764  0.8968
14189SOL    HW244245   8.368   5.624   1.227  0.7569 -0.7776  0.7488
14190SOL     OW44246   3.668   8.314   1.287 -0.2632  0.1166 -0.3441
14190SOL    HW144247   3.618   8.365   1.222 -1.1963  0.3628  0.5614
14190SOL    HW244248   3.704   8.241   1.237 -1.3771  0.0365 -1.0503
14191SOL     OW44249   4.094   9.059   0.204 -0.7478  0.0653  0.3727
14191SOL    HW144250   4.106   9.152   0.225 -1.6261  0.2648  0.0359
14191SOL    HW244251   4.132   9.050   0.116  0.3008 -0.1340  0.8403
14192SOL     OW44252   8.432   1.756   7.362  0.6294 -0.5515  0.2071
14192SOL    HW144253   8.476   1.812   7.426 -0.4878  1.7502 -0.9615
14192SOL    HW244254   8.452   1.667   7.390  0.6711  0.4031  3.3734
14193SOL     OW44255   5.343   7.389   0.399  0.5401  0.0848  0.1983
14193SOL    HW144256   5.302   7.442   0.467 -0.0728  0.5930 -0.5622
14193SOL    HW244257   5.274   7.330   0.369  0.3437  0.9134 -1.0586
14194SOL     OW44258   0.236   5.761   4.133 -0.1811  0.7422  0.4310
14194SOL    HW144259   0.257   5.846   4.172  0.7994  0.6493  0.1028
14194SOL    HW244260   0.208   5.707   4.207 -1.5441  1.5693  0.5406
14195SOL     OW44261   2.686   8.868   3.707 -0.2673  0.3694  0.4773
14195SOL    HW144262   2.715   8.954   3.677 -1.1269 -0.3129 -2.4261
14195SOL    HW244263   2.711   8.865   3.800 -1.0514  4.0659  0.8555
14196SOL     OW44264   3.477   7.693   8.231 -0.1770 -0.5096  0.0423
14196SOL    HW144265   3.455   7.622   8.291  0.0143  0.2261  0.9966
14196SOL    HW244266   3.541   7.654   8.170  1.4390 -0.6101  1.7720
14197SOL     OW44267   0.136   4.262   0.076 -0.0727  0.5187  0.2177
14197SOL    HW144268   0.109   4.237   0.164  0.7058 -1.6705 -0.1245
14197SOL    HW244269   0.054   4.270   0.027 -0.4212 -0.1826  0.6681
14198SOL     OW44270   3.000   6.724   3.399  0.1331 -0.1327 -0.2436
14198SOL    HW144271   2.979   6.767   3.316  1.3997 -0.7218 -0.8785
14198SOL    HW244272   3.077   6.670   3.379  0.1211 -0.6841  1.1819
14199SOL     OW44273   5.313   0.029   1.406 -0.3795 -0.0750 -0.2227
14199SOL    HW144274   5.365  -0.004   1.480  0.5341  2.0027  0.0864
14199SOL    HW244275   5.282  -0.050   1.362  0.2187 -1.3494  1.5749
14200SOL     OW44276   3.776   2.390   5.949 -0.0355  0.3459  0.5019
14200SOL    HW144277   3.753   2.304   5.983 -0.1813 -0.0890 -0.7023
14200SOL    HW244278   3.704   2.447   5.976 -1.0819 -0.4012 -0.7283
14201SOL     OW44279   0.126   8.135   6.343 -0.2981 -0.2372  0.2283
14201SOL    HW144280   0.071   8.097   6.275  0.1605  0.5575 -0.6026
14201SOL    HW244281   0.207   8.159   6.297 -0.6267  1.8421  0.6933
14202SOL     OW44282   8.838   8.681   1.013 -0.2149 -0.3558  0.3564
14202SOL    HW144283   8.821   8.661   0.922  0.6079  1.5007 -0.2423
14202SOL    HW244284   8.752   8.680   1.055 -0.6638 -0.6219 -0.5611
14203SOL     OW44285   1.361   7.955   4.876  0.1559  0.4667 -0.4147
14203SOL    HW144286   1.396   7.886   4.932 -0.1026 -0.8684 -1.8580
14203SOL    HW244287   1.438   7.998   4.840  0.3199  0.4743 -0.0553
14204SOL     OW44288   8.196   5.700   0.970  0.5621  0.5979 -0.5327
14204SOL    HW144289   8.182   5.781   0.920 -1.0965  1.2983  1.0008
14204SOL    HW244290   8.136   5.708   1.045  1.3718 -1.4428  0.3546
14205SOL     OW44291   0.486   5.300   6.960 -0.6489 -0.0865  0.1464
14205SOL    HW144292   0.495   5.350   6.879  0.8003  2.5841  1.8822
14205SOL    HW244293   0.560   5.239   6.959 -1.0834 -0.6070 -0.8857
14206SOL     OW44294   6.209   5.054   8.557  0.0566 -0.1826  0.1563
14206SOL    HW144295   6.179   5.112   8.626 -1.5605 -0.3463 -0.3988
14206SOL    HW244296   6.162   4.972   8.571 -0.6107 -0.0878 -1.3653
14207SOL     OW44297   2.061   1.819   4.191 -0.5087 -0.3474 -0.2347
14207SOL    HW144298   2.072   1.751   4.258  0.0117  1.6175  1.7142
14207SOL    HW244299   1.967   1.816   4.170 -0.6361 -1.1390  0.3987
14208SOL     OW44300   6.560   3.837   2.154  0.0164 -0.5952  0.6385
14208SOL    HW144301   6.560   3.832   2.250 -1.1471  2.2343  0.8602
14208SOL    HW244302   6.512   3.918   2.135 -0.0331 -1.2706 -2.3572
14209SOL     OW44303   1.633   1.292   7.414 -0.4274 -0.1219 -0.4921
14209SOL    HW144304   1.641   1.205   7.374  0.1712 -0.7054  0.8821
14209SOL    HW244305   1.723   1.322   7.425 -0.5985  0.1133  0.2594
14210SOL     OW44306   2.023   0.269   3.345  0.4253 -0.1835  0.5454
14210SOL    HW144307   2.010   0.204   3.275 -1.0241 -1.6361  2.1251
14210SOL    HW244308   2.112   0.300   3.332  1.0277 -2.2437 -0.4512
14211SOL     OW44309   7.555   3.586   7.088 -0.0657 -0.1263 -0.2587
14211SOL    HW144310   7.484   3.557   7.031  0.0816 -1.2448  0.1197
14211SOL    HW244311   7.618   3.514   7.086  0.6885  0.5193  0.0473
14212SOL     OW44312   7.909   1.062   8.553  0.4521 -0.4394  0.8959
14212SOL    HW144313   7.976   1.011   8.599  2.1727  1.9113  1.1351
14212SOL    HW244314   7.894   1.138   8.610 -1.8253 -0.5092  0.4373
14213SOL     OW44315   3.141   4.910   6.345  0.3531  0.2885 -0.3429
14213SOL    HW144316   3.192   4.922   6.265 -0.2182  1.2846 -0.5708
14213SOL    HW244317   3.062   4.864   6.317 -0.3080  1.5209 -0.5340
14214SOL     OW44318   0.387   8.645   7.490  0.0437 -0.1749 -0.5925
14214SOL    HW144319   0.317   8.582   7.471  0.4808 -0.7677 -0.2626
14214SOL    HW244320   0.451   8.595   7.540  1.4188 -0.0123 -2.1875
14215SOL     OW44321   8.018   0.802   7.671  0.4107  0.0845  0.1439
14215SOL    HW144322   7.938   0.815   7.621  0.1558  2.1627  1.0647
14215SOL    HW244323   7.989   0.763   7.753  0.3623  0.6628  0.4015
14216SOL     OW44324   1.617   3.018   3.854 -0.4222  0.1513 -0.8534
14216SOL    HW144325   1.537   3.055   3.816  0.2430 -0.3148 -2.7327
14216SOL    HW244326   1.686   3.080   3.830 -0.3650  1.1729  1.7741
14217SOL     OW44327   5.408   2.914   8.840  0.4772 -0.3441 -0.0090
14217SOL    HW144328   5.392   2.891   8.932  1.5873  1.6337  0.7291
14217SOL    HW244329   5.498   2.886   8.824  0.5074 -0.1000 -0.2715
14218SOL     OW44330   3.778   7.289   7.189 -0.3613 -0.0454 -0.5292
14218SOL    HW144331   3.755   7.369   7.237 -0.7717 -0.7268  0.4276
14218SOL    HW244332   3.741   7.302   7.102 -2.0571  0.0120  0.1867
14219SOL     OW44333   4.838   2.787   2.088  0.2915  0.4372  0.8231
14219SOL    HW144334   4.811   2.750   2.004  3.7856  0.2914 -0.3568
14219SOL    HW244335   4.797   2.731   2.154  0.7945 -2.0065 -0.8560
14220SOL     OW44336   7.649   3.566   0.957  0.4743  0.6766  0.4619
14220SOL    HW144337   7.630   3.652   0.918 -0.5256  0.0117 -0.5536
14220SOL    HW244338   7.568   3.516   0.946  0.8939 -0.2397  1.4862
14221SOL     OW44339   7.215   6.294   6.128 -0.0747 -0.1450  0.0753
14221SOL    HW144340   7.126   6.260   6.134 -0.0273 -0.2153  0.4279
14221SOL    HW244341   7.207   6.373   6.075 -0.1415 -0.8683 -1.0115
14222SOL     OW44342   0.619   2.042   6.485  0.0542  0.0315  0.0448
14222SOL    HW144343   0.599   1.977   6.418  0.7490  0.7313 -0.8656
14222SOL    HW244344   0.643   1.991   6.563 -2.3428 -0.7952  0.2774
14223SOL     OW44345   0.883   5.208   5.652 -0.4964 -0.1899  0.0824
14223SOL    HW144346   0.827   5.145   5.606 -0.1705 -0.5351  0.1610
14223SOL    HW244347   0.967   5.204   5.607 -0.2885 -0.2568  0.4737
14224SOL     OW44348   0.228   0.973   4.627  0.4167  0.4692 -0.4735
14224SOL    HW144349   0.161   0.936   4.683  0.2808  0.4587 -0.6421
14224SOL    HW244350   0.181   1.029   4.565  0.4658 -0.2061 -1.1311
14225SOL     OW44351   5.081   4.372   3.479 -0.0838 -0.0955  0.2242
14225SOL    HW144352   5.051   4.398   3.391  1.4010  1.4512  0.1454
14225SOL    HW244353   5.109   4.281   3.469 -0.9149 -0.2668 -0.6484
14226SOL     OW44354   2.820   8.377   6.600 -0.8306 -0.0211  0.4929
14226SOL    HW144355   2.743   8.404   6.551 -0.9047 -0.6973  0.2361
14226SOL    HW244356   2.849   8.456   6.644 -1.0499  0.4731 -0.2499
14227SOL     OW44357   7.910   2.422   7.660 -0.1312  0.3124  0.7408
14227SOL    HW144358   7.974   2.459   7.721  0.0547  1.6915 -0.2684
14227SOL    HW244359   7.907   2.485   7.587  0.2108 -1.6505 -1.0305
14228SOL     OW44360   6.869   6.823   1.137 -0.1172 -0.3207  0.3805
14228SOL    HW144361   6.821   6.783   1.064 -0.7269  0.3167  0.4303
14228SOL    HW244362   6.822   6.794   1.215 -0.2164  0.0238  0.4480
14229SOL     OW44363   1.593   4.950   2.285  0.0164 -0.2908  0.5396
14229SOL    HW144364   1.588   4.976   2.377  0.0140 -0.5255  0.6054
14229SOL    HW244365   1.511   4.981   2.247  0.3199  0.4357  0.4523
14230SOL     OW44366   4.186   5.456   8.713 -0.1302 -0.0221 -0.4047
14230SOL    HW144367   4.179   5.512   8.791  0.0384 -2.5217  1.4825
14230SOL    HW244368   4.097   5.453   8.678 -0.5683 -0.1798  0.6746
14231SOL     OW44369   6.599   7.554   1.684  0.4485 -0.5506  0.1631
14231SOL    HW144370   6.551   7.480   1.721  0.8881 -1.1497 -0.4612
14231SOL    HW244371   6.533   7.607   1.641  0.5054 -2.1229 -1.9646
14232SOL     OW44372   3.625   3.881   1.395 -0.0409  0.2081  0.5381
14232SOL    HW144373   3.584   3.878   1.481  0.5420 -0.2087  0.8013
14232SOL    HW244374   3.685   3.956   1.399  0.8378 -0.5092  0.8792
14233SOL     OW44375   6.247   3.522   7.099 -0.2191 -0.0466  0.0186
14233SOL    HW144376   6.253   3.617   7.086 -0.5783 -0.0564 -0.2472
14233SOL    HW244377   6.330   3.488   7.067  0.0664  0.2174  0.4804
14234SOL     OW44378   1.651   1.410   4.399 -0.4612  0.2465  0.8896
14234SOL    HW144379   1.657   1.328   4.350  0.0513  1.4562 -1.1253
14234SOL    HW244380   1.574   1.399   4.454 -2.3944 -0.3276 -1.8228
14235SOL     OW44381   5.566   0.095   0.985  0.5400  0.8642 -0.2030
14235SOL    HW144382   5.475   0.123   0.970 -0.2370 -1.0327  0.9362
14235SOL    HW244383   5.563  -0.000   0.981  2.6081  0.7975 -0.7303
14236SOL     OW44384   3.149   1.365   3.533 -0.0572 -0.8579  0.1551
14236SOL    HW144385   3.186   1.450   3.558 -0.4454 -0.6919  0.1571
14236SOL    HW244386   3.138   1.318   3.616 -0.6256 -0.5961  0.2265
14237SOL     OW44387   3.300   1.684   9.064  0.1055  0.1234  0.4070
14237SOL    HW144388   3.221   1.631   9.063  1.0855 -1.4576  1.7886
14237SOL    HW244389   3.343   1.661   9.147  1.4677  1.7418  0.1907
14238SOL     OW44390   8.685   6.024   8.786  0.1615 -0.3324  0.1454
14238SOL    HW144391   8.661   6.007   8.695  0.3976 -0.0924  0.0388
14238SOL    HW244392   8.767   5.977   8.798 -1.2461 -2.6593  1.0292
14239SOL     OW44393   0.765   5.869   7.501  0.1634  0.2918 -0.2039
14239SOL    HW144394   0.723   5.880   7.416  0.5737  1.5415 -0.2469
14239SOL    HW244395   0.776   5.958   7.535  3.0431  0.0530 -0.3250
14240SOL     OW44396   1.605   5.426   1.434 -0.6572 -0.4914  0.3839
14240SOL    HW144397   1.687   5.385   1.462 -0.6437 -1.2201 -0.6782
14240SOL    HW244398   1.606   5.512   1.474  0.3054 -0.7573  0.9474
14241SOL     OW44399   4.709   2.680   5.690 -0.1564  0.4540 -0.2928
14241SOL    HW144400   4.636   2.741   5.675  0.7219  2.5109  3.2715
14241SOL    HW244401   4.676   2.618   5.754  0.7047  0.4338  0.1387
14242SOL     OW44402   0.694   5.456   6.457  0.4156  0.0798 -0.2852
14242SOL    HW144403   0.773   5.511   6.458 -2.3573  4.2849 -1.2258
14242SOL    HW244404   0.666   5.452   6.549 -1.3299  3.3398 -0.6163
14243SOL     OW44405   5.887   1.773   6.333 -0.0142  0.6267  0.3536
14243SOL    HW144406   5.836   1.845   6.295  0.8087  0.6339 -0.7422
14243SOL    HW244407   5.951   1.816   6.389 -0.5693  0.6622  0.9715
14244SOL     OW44408   6.216   3.479   4.421  0.1582  0.6236 -0.6562
14244SOL    HW144409   6.228   3.516   4.333 -0.9258  1.1058 -0.6126
14244SOL    HW244410   6.140   3.421   4.413 -2.0085  3.1672  0.6849
14245SOL     OW44411   1.748   5.132   4.842 -0.2582 -0.4884 -0.3241
14245SOL    HW144412   1.705   5.137   4.928 -0.6399 -1.5397 -0.4465
14245SOL    HW244413   1.819   5.068   4.854  1.5796  1.5347 -0.0065
14246SOL     OW44414   4.631   8.743   0.685  0.4403 -0.4495 -0.2336
14246SOL    HW144415   4.693   8.790   0.742 -0.3777 -0.5253  0.7295
14246SOL    HW244416   4.610   8.806   0.617 -2.3024  1.4292  2.2165
14247SOL     OW44417   3.531   4.583   1.958 -0.1296  0.6651  0.1546
14247SOL    HW144418   3.523   4.537   1.875  2.2656 -0.2740  0.4165
14247SOL    HW244419   3.479   4.663   1.946 -4.3388 -1.9642 -0.3381
14248SOL     OW44420   5.050   7.283   7.475  0.3594 -0.4086 -0.1152
14248SOL    HW144421   5.125   7.312   7.423  1.6671  0.0361  1.9947
14248SOL    HW244422   4.975   7.324   7.432  1.7013  2.2438 -0.0497
14249SOL     OW44423   5.523   8.373   1.416 -0.1469 -0.8062  0.1702
14249SOL    HW144424   5.543   8.300   1.357 -1.1915 -2.3143  1.6276
14249SOL    HW244425   5.509   8.448   1.358  0.5089 -1.8636 -1.3861
14250SOL     OW44426   8.584   6.160   2.951  0.1784 -0.1302 -0.6696
14250SOL    HW144427   8.495   6.147   2.919 -0.0753  1.2612 -0.5816
14250SOL    HW244428   8.608   6.077   2.993 -1.1200 -0.4594 -0.5755
14251SOL     OW44429   6.387   1.085   8.661 -0.0058  0.6980  0.1016
14251SOL    HW144430   6.390   1.070   8.756 -2.3089  0.2539  0.1427
14251SOL    HW244431   6.435   1.012   8.623 -0.9783 -0.3496  0.8551
14252SOL     OW44432   5.211   8.259   3.147 -0.0134 -0.2270  0.5266
14252SOL    HW144433   5.222   8.190   3.213  1.6604  0.0699  0.5739
14252SOL    HW244434   5.130   8.235   3.101 -2.3375  0.6455  3.9393
14253SOL     OW44435   6.842   2.376   9.171 -0.5423  0.0653  0.1394
14253SOL    HW144436   6.764   2.335   9.208 -0.2572  0.8350  1.6491
14253SOL    HW244437   6.841   2.465   9.207 -1.2349  1.4645 -3.1792
14254SOL     OW44438   4.692   7.924   7.078  1.0440  0.5327 -0.3479
14254SOL    HW144439   4.610   7.974   7.082  0.1002 -1.0717  1.4476
14254SOL    HW244440   4.750   7.969   7.139  0.3325 -0.2551  0.9533
14255SOL     OW44441   0.776   0.758   7.884  0.2790 -0.4300  0.0454
14255SOL    HW144442   0.800   0.845   7.917  0.6629 -0.6669  0.3896
14255SOL    HW244443   0.778   0.767   7.789 -0.9321  0.2879  0.0630
14256SOL     OW44444   5.871   6.568   0.619  0.5629  0.3591 -0.3886
14256SOL    HW144445   5.812   6.515   0.673  1.9600 -1.6466 -0.7923
14256SOL    HW244446   5.909   6.631   0.680  1.2015 -1.0957  0.7545
14257SOL     OW44447   3.397   0.807   8.895 -0.3433  0.2788 -0.0216
14257SOL    HW144448   3.424   0.898   8.901  2.8708 -0.6376  0.4439
14257SOL    HW244449   3.360   0.786   8.981 -0.7344  1.0270 -0.0067
14258SOL     OW44450   2.230   7.677   8.988 -0.3298 -0.4120  0.4667
14258SOL    HW144451   2.188   7.695   9.071  0.8358  0.1750  0.9388
14258SOL    HW244452   2.303   7.619   9.009  0.4482  0.3717 -0.0305
14259SOL     OW44453   0.652   1.418   4.256  0.9542 -0.1750  0.3460
14259SOL    HW144454   0.606   1.349   4.305  2.3254 -0.3600  1.4043
14259SOL    HW244455   0.662   1.489   4.320  2.3689 -0.2412  0.2138
14260SOL     OW44456   6.997   2.516   3.594 -0.0577 -0.1479  0.4733
14260SOL    HW144457   6.943   2.446   3.560 -0.2187  0.5317 -0.6915
14260SOL    HW244458   6.986   2.588   3.532  1.7105  0.2111  0.5369
14261SOL     OW44459   7.521   3.699   8.061  0.2111 -0.3114  0.2004
14261SOL    HW144460   7.576   3.678   7.986  0.3698  1.1849 -0.1122
14261SOL    HW244461   7.434   3.667   8.036  0.1502  0.6323 -0.8345
14262SOL     OW44462   1.738   8.389   1.788 -0.0530 -0.5727 -0.1490
14262SOL    HW144463   1.746   8.356   1.698  0.0414  0.0755 -0.3783
14262SOL    HW244464   1.728   8.310   1.841  0.4755 -0.9899 -0.6646
14263SOL     OW44465   2.306   4.316   7.737  0.4359 -0.2460  0.2416
14263SOL    HW144466   2.256   4.391   7.769 -0.5803 -1.1581  0.8213
14263SOL    HW244467   2.246   4.271   7.677  1.1517 -0.4253 -0.3555
14264SOL     OW44468   6.963   6.717   5.346 -0.3656 -0.2406 -0.3292
14264SOL    HW144469   6.925   6.728   5.434  0.2978 -0.2845 -0.0346
14264SOL    HW244470   6.888   6.702   5.290 -1.1883  3.6469 -0.4017
14265SOL     OW44471   7.137   1.261   4.073  0.0516 -0.6798  0.5330
14265SOL    HW144472   7.103   1.262   4.163 -1.3979  2.5141  0.0178
14265SOL    HW244473   7.210   1.323   4.075  0.0202 -0.6121 -0.5122
14266SOL     OW44474   1.780   4.265   7.693 -0.2494  0.2192 -0.1910
14266SOL    HW144475   1.830   4.324   7.636 -0.8763  1.2450  0.3112
14266SOL    HW244476   1.845   4.235   7.757 -0.2363  1.5140  0.4331
14267SOL     OW44477   0.972   1.057   9.210 -0.2752 -0.0114  0.5958
14267SOL    HW144478   0.941   0.975   9.248 -1.5619  1.1796  2.2098
14267SOL    HW244479   1.015   1.103   9.282  1.8959  0.0455 -0.6923
14268SOL     OW44480   3.261   6.014   2.745 -0.2048  0.0121  0.0332
14268SOL    HW144481   3.211   6.078   2.796  0.0376  0.1184  0.1357
14268SOL    HW244482   3.323   5.976   2.808 -0.1747 -0.1396 -0.0887
14269SOL     OW44483   9.092   0.128   5.231 -0.0492  0.4398  0.9605
14269SOL    HW144484   9.046   0.084   5.303 -0.1810 -2.4877 -0.8274
14269SOL    HW244485   9.177   0.151   5.268 -0.4048 -0.3186  2.3053
14270SOL     OW44486   1.470   1.842   6.883  0.3904 -0.1569 -0.3686
14270SOL    HW144487   1.505   1.904   6.948  0.8722 -1.1324  0.3257
14270SOL    HW244488   1.497   1.878   6.799  1.9254 -0.1603  0.0959
14271SOL     OW44489   5.300   3.599   4.923  0.0502 -0.0614  0.3110
14271SOL    HW144490   5.221   3.546   4.933  1.4555 -2.5065 -1.0472
14271SOL    HW244491   5.332   3.610   5.013 -0.6055 -0.9626  0.6645
14272SOL     OW44492   2.108   0.645   5.331 -0.0992 -0.0058  0.4562
14272SOL    HW144493   2.090   0.563   5.286 -0.0494  1.5775 -2.5361
14272SOL    HW244494   2.025   0.666   5.375 -2.1058  1.3177 -3.6825
14273SOL     OW44495   1.057   7.197   0.534 -0.1780 -0.1620 -0.0459
14273SOL    HW144496   1.038   7.120   0.587 -1.0343 -0.7512 -1.1739
14273SOL    HW244497   1.153   7.203   0.534 -0.0749 -1.6255 -0.4927
14274SOL     OW44498   2.612   3.346   1.042 -0.5234  0.4602 -0.3620
14274SOL    HW144499   2.675   3.418   1.048 -1.4299  1.4531 -2.1872
14274SOL    HW244500   2.631   3.304   0.958  1.4852 -2.9098  1.6929
14275SOL     OW44501   7.781   3.306   4.823 -0.1736  0.4515 -0.1936
14275SOL    HW144502   7.768   3.280   4.732  0.2231 -0.3101 -0.0369
14275SOL    HW244503   7.778   3.402   4.821  1.6203  0.5122 -1.2838
14276SOL     OW44504   9.264   6.019   7.303 -0.4553  0.3372  0.1430
14276SOL    HW144505   9.172   6.009   7.280 -0.0518  0.1339 -1.3954
14276SOL    HW244506   9.272   5.974   7.387 -1.4635 -0.8638 -0.3871
14277SOL     OW44507   6.219   4.392   8.336  0.4887  0.2093  0.3536
14277SOL    HW144508   6.259   4.330   8.275 -1.1341 -1.5231  1.0048
14277SOL    HW244509   6.149   4.433   8.286  0.9511  0.8261  0.2107
14278SOL     OW44510   8.338   1.608   4.747  0.0043  0.3686  0.2016
14278SOL    HW144511   8.359   1.520   4.718  0.6476  1.0069 -1.3476
14278SOL    HW244512   8.243   1.617   4.732  0.2910  0.6083 -1.5214
14279SOL     OW44513   0.066   8.644   7.761  0.4276  0.1830 -0.4059
14279SOL    HW144514   0.116   8.594   7.696  1.7575  0.5655  0.2921
14279SOL    HW244515   0.047   8.582   7.831  1.2082  0.3770 -0.0055
14280SOL     OW44516   1.694   2.173   2.638 -0.0390 -0.0280  0.7685
14280SOL    HW144517   1.653   2.257   2.660  0.0400  0.5584 -1.1875
14280SOL    HW244518   1.653   2.110   2.697 -1.9034  0.9827  0.5793
14281SOL     OW44519   1.041   2.888   3.217 -0.6008 -0.4395 -0.3812
14281SOL    HW144520   1.040   2.793   3.210  2.3005 -0.4825 -0.7393
14281SOL    HW244521   1.077   2.906   3.303  0.7717  0.3178 -1.0923
14282SOL     OW44522   6.205   1.858   1.673 -0.5507  0.3741 -0.0085
14282SOL    HW144523   6.117   1.887   1.651 -0.3835  1.5776  0.8473
14282SOL    HW244524   6.242   1.826   1.591 -2.3615 -1.7221 -0.0490
14283SOL     OW44525   8.746   6.349   0.392 -0.7810  0.2053  0.3501
14283SOL    HW144526   8.668   6.298   0.413 -1.8464  1.9951  0.8559
14283SOL    HW244527   8.714   6.419   0.334  0.9547 -0.7205 -1.7914
14284SOL     OW44528   7.687   6.635   4.087  0.3021 -0.2474 -0.3050
14284SOL    HW144529   7.766   6.688   4.078 -0.0936  0.4825  0.5680
14284SOL    HW244530   7.617   6.698   4.102 -0.5086 -0.8684 -1.3768
14285SOL     OW44531   1.953   2.791   6.756 -0.3523 -0.4417 -0.0155
14285SOL    HW144532   1.978   2.712   6.804  1.0347 -0.1115 -0.1661
14285SOL    HW244533   2.003   2.784   6.674  0.9410  1.3157  0.5950
14286SOL     OW44534   8.087   7.585   1.706 -0.5326 -0.1151 -0.3488
14286SOL    HW144535   8.147   7.511   1.722  0.4337  0.9768  1.2244
14286SOL    HW244536   8.139   7.662   1.727 -2.1483  0.9247 -0.1125
14287SOL     OW44537   6.049   1.326   4.711  0.0067  0.0403  0.7269
14287SOL    HW144538   6.015   1.371   4.788 -0.8990  0.5224  0.0495
14287SOL    HW244539   6.027   1.383   4.638 -0.5624 -1.1796 -0.0725
14288SOL     OW44540   4.505   6.999   6.959 -0.5135  0.2361  0.0906
14288SOL    HW144541   4.494   7.015   7.053 -2.4671  0.7815 -0.1964
14288SOL    HW244542   4.446   6.926   6.940  1.9300 -1.7096 -0.2304
14289SOL     OW44543   7.951   5.182   1.601 -0.5149  0.3269  0.1973
14289SOL    HW144544   8.007   5.158   1.527  0.9786 -0.2279  1.4919
14289SOL    HW244545   7.955   5.278   1.604 -1.5899  0.4380 -1.1917
14290SOL     OW44546   4.049   1.766   7.833 -0.1998  0.3004 -0.1737
14290SOL    HW144547   4.064   1.830   7.903  2.2017  1.1677 -1.4198
14290SOL    HW244548   4.029   1.684   7.879 -0.2739  1.2468  1.5030
14291SOL     OW44549   8.578   9.154   5.672 -0.1856  0.3373  0.0456
14291SOL    HW144550   8.515   9.128   5.739 -1.9447  1.0059 -1.3073
14291SOL    HW244551   8.538   9.229   5.629  0.6439 -0.4417 -2.1483
14292SOL     OW44552   8.578   1.136   3.137  0.4206 -0.0001 -0.0488
14292SOL    HW144553   8.646   1.084   3.094  2.8478  0.7830  2.7167
14292SOL    HW244554   8.606   1.227   3.123  0.0494  0.3221  1.3071
14293SOL     OW44555   6.629   0.163   4.334  0.5169  0.3276 -0.2481
14293SOL    HW144556   6.695   0.146   4.401  2.2181  0.9274 -1.7411
14293SOL    HW244557   6.548   0.176   4.383  1.2754 -1.5053  1.5482
14294SOL     OW44558   4.110   8.010   3.181 -0.4154  0.1306  0.1099
14294SOL    HW144559   4.202   7.992   3.202 -0.3196  1.4430  0.8645
14294SOL    HW244560   4.113   8.081   3.118 -0.8735 -0.9316 -1.1364
14295SOL     OW44561   5.749   5.998   4.083 -0.5523  0.1835  0.3188
14295SOL    HW144562   5.808   6.052   4.029 -2.3037 -0.3008 -2.1773
14295SOL    HW244563   5.775   6.018   4.173  3.6822 -0.3267 -0.6610
14296SOL     OW44564   3.491   7.518   6.302 -0.1870  0.0516 -0.4769
14296SOL    HW144565   3.545   7.552   6.374 -2.1964  0.7596  0.7427
14296SOL    HW244566   3.544   7.449   6.262  0.8460 -0.5515  1.8679
14297SOL     OW44567   4.848   7.380   4.931 -0.0246 -0.2412 -0.2382
14297SOL    HW144568   4.886   7.300   4.966  1.4025  1.2978  1.7920
14297SOL    HW244569   4.921   7.427   4.891 -1.0166 -0.3527 -2.2631
14298SOL     OW44570   0.212   2.764   5.187  0.4505  0.1208  0.4057
14298SOL    HW144571   0.168   2.834   5.235  0.4461  0.7050 -0.4526
14298SOL    HW244572   0.145   2.695   5.179  0.0686  0.5152  0.1734
14299SOL     OW44573   4.987   2.566   4.242  0.6961 -0.9038 -0.3211
14299SOL    HW144574   4.983   2.661   4.247  1.4607 -0.7454 -2.2022
14299SOL    HW244575   4.897   2.539   4.224  0.5260 -0.5218 -0.0471
14300SOL     OW44576   7.464   6.987   8.689  0.2425  0.3165  0.6028
14300SOL    HW144577   7.417   6.947   8.762 -1.3655 -0.6422 -0.9055
14300SOL    HW244578   7.395   7.008   8.626  1.3809  2.9175  0.1738
14301SOL     OW44579   8.655   8.023   2.384 -0.3833  0.1360 -0.3341
14301SOL    HW144580   8.591   8.089   2.356 -0.9960 -0.3461 -0.0914
14301SOL    HW244581   8.622   7.992   2.468  0.0991 -0.2240 -0.2766
14302SOL     OW44582   7.620   6.646   3.645  0.0190  0.3349  0.2743
14302SOL    HW144583   7.671   6.665   3.566  0.2526  0.9467  0.5710
14302SOL    HW244584   7.603   6.731   3.684 -2.2366  0.2332 -0.4290
14303SOL     OW44585   0.161   4.983   7.354  0.7080 -0.2737  0.2054
14303SOL    HW144586   0.161   4.995   7.449  2.3508 -0.4574  0.2408
14303SOL    HW244587   0.248   4.949   7.334  0.9318  1.2719 -1.5550
14304SOL     OW44588   1.541   4.622   3.950 -0.2963 -0.1666 -0.1415
14304SOL    HW144589   1.450   4.646   3.932 -0.8076 -1.5810  0.5396
14304SOL    HW244590   1.565   4.675   4.026 -0.7983 -0.3660  0.1571
14305SOL     OW44591   8.317   0.620   8.611  0.3356 -0.5002  0.3419
14305SOL    HW144592   8.274   0.537   8.633 -0.4052 -0.3942 -0.7037
14305SOL    HW244593   8.264   0.657   8.541 -0.2001  1.5712  1.7797
14306SOL     OW44594   0.981   9.248   5.327 -0.4567  0.4581 -0.4224
14306SOL    HW144595   0.934   9.167   5.341 -0.0861  0.0318 -1.5679
14306SOL    HW244596   1.049   9.249   5.394 -1.8523  0.9121  1.0130
14307SOL     OW44597   0.932   7.466   6.737  0.0193 -0.1625  0.3990
14307SOL    HW144598   0.855   7.505   6.696  0.4064  1.2911  1.0248
14307SOL    HW244599   0.901   7.432   6.821 -0.4165 -1.6321 -0.3482
14308SOL     OW44600   8.336   7.430   5.339 -0.0571 -0.0801  0.3821
14308SOL    HW144601   8.361   7.522   5.330  1.0726 -0.5936 -2.0393
14308SOL    HW244602   8.417   7.385   5.362 -0.1992 -0.7429 -0.4051
14309SOL     OW44603   4.303   5.234   5.862 -0.5830 -0.3655  0.2325
14309SOL    HW144604   4.260   5.241   5.776 -0.4501 -1.3587  0.0841
14309SOL    HW244605   4.293   5.321   5.900  0.5449  0.4658 -1.3441
14310SOL     OW44606   6.630   4.236   4.323 -0.3092  0.2526 -0.6655
14310SOL    HW144607   6.634   4.274   4.236  2.4314 -0.6009 -0.9568
14310SOL    HW244608   6.560   4.170   4.317 -1.0412  1.1188 -1.8088
14311SOL     OW44609   7.023   3.023   0.337  0.0378 -0.4063  0.4578
14311SOL    HW144610   7.037   3.026   0.243 -0.5920  0.4096  0.3816
14311SOL    HW244611   7.109   3.039   0.375  0.1727 -0.0590  0.0105
14312SOL     OW44612   1.065   6.112   5.277 -0.0657  0.6500 -0.0389
14312SOL    HW144613   0.980   6.113   5.234 -0.8597 -5.0396  0.9550
14312SOL    HW244614   1.048   6.140   5.367 -0.4072  1.8858 -0.4857
14313SOL     OW44615   0.944   0.956   2.310  0.5557  0.0270  0.0740
14313SOL    HW144616   1.022   0.947   2.365  0.6235  0.3432  0.0285
14313SOL    HW244617   0.977   0.943   2.221  0.6217  0.5343  0.0232
14314SOL     OW44618   8.021   1.682   2.582 -0.3610 -0.8056  0.3109
14314SOL    HW144619   8.068   1.616   2.531  0.3216  0.2273 -0.4267
14314SOL    HW244620   8.083   1.711   2.648  0.0393  0.5380 -0.6439
14315SOL     OW44621   2.509   8.186   7.516 -0.0178 -0.4471 -0.1547
14315SOL    HW144622   2.596   8.163   7.482  0.6567  0.3307  1.0081
14315SOL    HW244623   2.506   8.145   7.603 -0.5622  0.0641  0.0709
14316SOL     OW44624   7.004   7.885   0.339 -0.0445  0.3722  0.0257
14316SOL    HW144625   7.041   7.799   0.360  0.1194  0.5362  0.4362
14316SOL    HW244626   6.910   7.873   0.350 -0.0112  0.2808  0.2354
14317SOL     OW44627   5.994   2.995   7.947  0.0090 -0.2981 -0.0055
14317SOL    HW144628   6.041   2.911   7.941 -0.5533 -0.6157 -0.0001
14317SOL    HW244629   6.010   3.037   7.863 -0.4170 -0.7959 -0.3458
14318SOL     OW44630   5.981   0.449   7.769  0.2300  0.0952  0.1746
14318SOL    HW144631   6.017   0.535   7.750  2.7717 -0.6927  1.1749
14318SOL    HW244632   5.957   0.453   7.862 -3.1150  0.8492 -0.6430
14319SOL     OW44633   7.522   8.521   0.168  0.8604  0.2268  0.4507
14319SOL    HW144634   7.551   8.611   0.181  1.9798  0.1673 -1.4998
14319SOL    HW244635   7.455   8.527   0.100  1.8276 -0.5658 -0.5743
14320SOL     OW44636   4.795   4.731   2.469  0.0315 -0.1743 -0.3318
14320SOL    HW144637   4.871   4.789   2.467  0.2586 -0.4915 -2.4338
14320SOL    HW244638   4.824   4.656   2.521  0.5595  0.4913  0.3424
14321SOL     OW44639   8.952   1.369   4.086 -0.2263  0.5097  0.2378
14321SOL    HW144640   8.868   1.347   4.128 -0.3864 -1.0685 -0.8628
14321SOL    HW244641   8.937   1.349   3.993  0.0799  4.0546 -0.6157
14322SOL     OW44642   6.557   5.538   2.533 -0.1711  0.0901  1.0098
14322SOL    HW144643   6.541   5.568   2.623  1.5426  0.0965  1.3180
14322SOL    HW244644   6.534   5.612   2.478 -1.8690 -0.1303  1.3935
14323SOL     OW44645   0.972   0.828   0.852  0.3533  0.0920  0.4299
14323SOL    HW144646   0.886   0.840   0.891 -0.5452 -1.8208 -0.8955
14323SOL    HW244647   0.970   0.879   0.772  0.8701  0.9623  0.9616
14324SOL     OW44648   5.386   3.209   8.234  0.4357 -0.1476 -0.0820
14324SOL    HW144649   5.400   3.185   8.326  0.2853 -1.4569 -0.3886
14324SOL    HW244650   5.325   3.143   8.202  1.0096 -0.0823 -1.3136
14325SOL     OW44651   8.789   2.270   1.299 -0.0552  0.3429 -0.6610
14325SOL    HW144652   8.871   2.319   1.308  0.9370 -1.4584  0.1995
14325SOL    HW244653   8.769   2.239   1.387 -0.6568 -0.8585 -1.2150
14326SOL     OW44654   6.805   1.269   7.504  0.3995  0.0974 -0.0145
14326SOL    HW144655   6.896   1.252   7.482  0.3032  0.5371 -0.7508
14326SOL    HW244656   6.779   1.341   7.448 -0.7901 -0.8957 -0.7666
14327SOL     OW44657   2.604   8.862   7.176 -0.3022  0.6502 -0.0426
14327SOL    HW144658   2.633   8.836   7.088 -1.2245 -0.1794 -0.1115
14327SOL    HW244659   2.633   8.791   7.233  0.6406  1.3738  0.3996
14328SOL     OW44660   6.760   8.984   0.548 -0.7782  0.1836  0.2042
14328SOL    HW144661   6.721   9.071   0.548 -0.8846  0.1377 -0.0469
14328SOL    HW244662   6.709   8.935   0.483  1.1783  0.7915 -1.8646
14329SOL     OW44663   4.643   7.938   7.406 -0.5746  0.2927  0.1057
14329SOL    HW144664   4.668   8.029   7.391 -0.6510  0.2015 -0.5799
14329SOL    HW244665   4.640   7.929   7.502 -1.5123  1.2672  0.1730
14330SOL     OW44666   2.031   2.659   3.958 -0.3087 -0.2547  0.5467
14330SOL    HW144667   1.972   2.725   3.994  1.4271  0.7722  1.5652
14330SOL    HW244668   2.090   2.708   3.901  1.2005 -0.8537  1.5644
14331SOL     OW44669   6.850   1.184   7.032 -0.0291  0.7422 -0.1363
14331SOL    HW144670   6.795   1.263   7.037 -0.4909  0.3514  1.0458
14331SOL    HW244671   6.810   1.131   6.964 -1.6781  0.0535  1.3270
14332SOL     OW44672   4.889   7.419   4.207  0.0747 -0.2319 -0.8395
14332SOL    HW144673   4.895   7.330   4.243 -1.6638 -0.0847 -0.1101
14332SOL    HW244674   4.806   7.419   4.160 -0.1659  1.1424 -0.4273
14333SOL     OW44675   8.073   7.599   0.054  0.1544  0.0452 -0.0955
14333SOL    HW144676   7.979   7.608   0.073  0.3484 -1.3185  1.6076
14333SOL    HW244677   8.113   7.675   0.096 -0.1725  0.6992 -0.9304
14334SOL     OW44678   0.144   9.108   1.032  0.3244  0.1814 -0.2033
14334SOL    HW144679   0.069   9.098   0.973 -0.5280 -0.3571  0.9567
14334SOL    HW244680   0.105   9.124   1.118  1.5625  2.1577  0.0373
14335SOL     OW44681   8.318   3.207   9.204  0.0176 -0.0596 -0.0944
14335SOL    HW144682   8.338   3.180   9.294  1.4413  0.5039 -0.2332
14335SOL    HW244683   8.383   3.161   9.151 -1.5045 -1.2384 -0.9523
14336SOL     OW44684   3.017   7.971   5.190  0.4992 -0.7391  0.2850
14336SOL    HW144685   2.968   7.903   5.144  0.2648 -0.2952 -0.1269
14336SOL    HW244686   3.104   7.968   5.150 -0.2524  0.9369 -1.5415
14337SOL     OW44687   9.286   4.081   6.655 -0.1616 -0.2797 -0.3296
14337SOL    HW144688   9.334   4.133   6.590 -3.0367  1.6025 -1.0143
14337SOL    HW244689   9.195   4.108   6.646 -1.1877 -2.6995  1.9646
14338SOL     OW44690   9.074   3.249   3.741  0.3920  0.3886  0.0236
14338SOL    HW144691   9.061   3.157   3.716 -2.4828  1.2094 -1.6530
14338SOL    HW244692   9.167   3.265   3.723  0.7911 -1.9813 -0.2950
14339SOL     OW44693   8.062   5.669   1.758  0.0330  0.5648  0.2848
14339SOL    HW144694   8.034   5.695   1.670  2.1451 -0.1773 -0.6526
14339SOL    HW244695   8.106   5.746   1.793  0.9626  0.2278 -0.1180
14340SOL     OW44696   4.400   8.236   0.412  0.4559 -0.4688 -0.2209
14340SOL    HW144697   4.489   8.267   0.398  0.8511 -2.1899 -1.6315
14340SOL    HW244698   4.380   8.261   0.502  2.6980 -0.9161  0.4247
14341SOL     OW44699   7.629   5.743   4.879  0.1472 -0.6360  0.4805
14341SOL    HW144700   7.711   5.702   4.905  1.6516  1.5032 -0.7322
14341SOL    HW244701   7.642   5.836   4.897 -1.3418 -0.0240 -1.4368
14342SOL     OW44702   1.583   1.448   3.430 -0.3101  0.2113  0.1740
14342SOL    HW144703   1.549   1.479   3.513  0.6139  0.2800  0.5371
14342SOL    HW244704   1.595   1.354   3.442 -0.2588  0.2070  0.0917
14343SOL     OW44705   4.982   3.002   2.150 -0.1780  0.5243  0.7446
14343SOL    HW144706   4.980   3.005   2.245 -1.0282  1.3952  0.7065
14343SOL    HW244707   4.936   2.921   2.127 -0.5161  0.6311  1.0531
14344SOL     OW44708   3.362   8.169   5.400 -0.5145 -0.6036 -0.3979
14344SOL    HW144709   3.358   8.074   5.407 -0.3345 -0.6092 -0.3702
14344SOL    HW244710   3.385   8.186   5.308  0.5140 -0.6110 -0.1487
14345SOL     OW44711   4.136   7.603   2.414 -0.4257  0.0784 -0.0293
14345SOL    HW144712   4.209   7.544   2.396 -0.7254 -0.6450  1.1006
14345SOL    HW244713   4.060   7.545   2.423 -1.3414  0.8797 -2.1190
14346SOL     OW44714   5.837   4.403   2.303  0.0059 -0.1975 -0.0536
14346SOL    HW144715   5.907   4.392   2.238 -0.3921 -1.4749 -0.2867
14346SOL    HW244716   5.874   4.368   2.384 -0.3119 -0.7533 -0.1463
14347SOL     OW44717   5.753   6.145   5.536 -0.1178 -0.0306 -0.2396
14347SOL    HW144718   5.671   6.195   5.536 -0.5382 -0.7026 -0.6674
14347SOL    HW244719   5.724   6.054   5.532  0.5684 -0.4334  2.9264
14348SOL     OW44720   2.879   6.657   0.311 -0.1029  0.2211  0.4958
14348SOL    HW144721   2.964   6.613   0.322 -0.5999 -0.1493  3.1702
14348SOL    HW244722   2.826   6.594   0.263  1.0328  0.3303 -0.9408
14349SOL     OW44723   3.189   0.597   4.948  0.5632 -0.0060  0.4371
14349SOL    HW144724   3.247   0.606   5.024  0.6799  0.0147  0.3458
14349SOL    HW244725   3.213   0.669   4.891 -0.5323  0.8416  1.0370
14350SOL     OW44726   3.910   1.068   4.633  0.3641 -1.0606 -0.3247
14350SOL    HW144727   3.974   1.027   4.691  0.2231  1.5001  1.7311
14350SOL    HW244728   3.826   1.031   4.660  0.3633 -0.2779  0.8010
14351SOL     OW44729   1.832   1.359   1.837  0.2023  0.1443  0.3186
14351SOL    HW144730   1.917   1.401   1.824  0.1305 -0.2912 -1.7268
14351SOL    HW244731   1.768   1.423   1.808 -0.1020  0.0002  0.6674
14352SOL     OW44732   0.493   1.393   4.674 -0.2685  0.5505 -0.0963
14352SOL    HW144733   0.400   1.395   4.697 -0.2512 -2.5826  0.5627
14352SOL    HW244734   0.532   1.465   4.723 -1.6307 -0.8025  3.1115
14353SOL     OW44735   0.173   3.139   5.915 -0.5346 -0.3946  0.1556
14353SOL    HW144736   0.261   3.145   5.953 -1.1816  0.4931  1.5352
14353SOL    HW244737   0.158   3.224   5.874 -0.8325 -0.4752  0.0968
14354SOL     OW44738   6.356   1.076   7.347  0.4546  0.2854  0.0899
14354SOL    HW144739   6.448   1.054   7.334  0.0597 -0.0327 -2.2222
14354SOL    HW244740   6.309   1.034   7.275 -1.1918  2.6387 -0.2840
14355SOL     OW44741   0.326   5.884   5.035 -0.1366 -0.0142 -0.4829
14355SOL    HW144742   0.323   5.883   5.131 -0.0939 -1.1624 -0.4900
14355SOL    HW244743   0.408   5.840   5.013  0.0943  0.6906 -1.0364
14356SOL     OW44744   3.414   8.464   2.283  0.1330 -0.4590  0.4915
14356SOL    HW144745   3.381   8.423   2.364 -0.9602  0.8368  0.7039
14356SOL    HW244746   3.452   8.391   2.234  0.1456 -1.3876  1.8351
14357SOL     OW44747   4.415   2.181   2.942 -0.0734 -0.3132 -0.5220
14357SOL    HW144748   4.458   2.182   3.027 -0.7508 -2.4290 -0.1263
14357SOL    HW244749   4.434   2.094   2.906 -2.5084 -0.6701 -1.0914
14358SOL     OW44750   2.349   4.382   4.323  0.0835  0.5525  0.2243
14358SOL    HW144751   2.387   4.345   4.403 -0.8502  0.9008  0.8426
14358SOL    HW244752   2.262   4.341   4.317 -0.2913  1.3679 -0.0002
14359SOL     OW44753   4.965   3.953   3.386  0.0463 -0.2202 -0.1484
14359SOL    HW144754   5.026   3.887   3.353 -0.6100 -1.3535  0.8431
14359SOL    HW244755   5.020   4.029   3.406  0.9456 -0.7836 -0.4507
14360SOL     OW44756   5.444   5.278   6.653  0.2148  0.6868 -0.2116
14360SOL    HW144757   5.497   5.280   6.573 -0.7295  0.9734 -0.8313
14360SOL    HW244758   5.423   5.370   6.670  1.1796  0.7104  0.8808
14361SOL     OW44759   0.509   8.876   3.876 -0.5255 -0.2808  0.8961
14361SOL    HW144760   0.495   8.963   3.837 -0.9731 -1.0465 -0.7250
14361SOL    HW244761   0.447   8.872   3.948 -2.0308 -0.0418 -0.3427
14362SOL     OW44762   3.988   0.419   2.925 -0.7208 -0.2345  0.0147
14362SOL    HW144763   4.027   0.506   2.917  0.6724 -0.9910 -1.7821
14362SOL    HW244764   3.902   0.428   2.884 -1.0917  0.6065  0.9625
14363SOL     OW44765   3.941   1.495   6.910 -0.2509 -0.1747  0.6330
14363SOL    HW144766   3.878   1.430   6.943 -0.4346 -0.0455  0.5390
14363SOL    HW244767   4.026   1.463   6.940 -0.1656 -1.3153 -0.7428
14364SOL     OW44768   4.370   2.368   6.784  0.1662 -0.2472 -0.0490
14364SOL    HW144769   4.412   2.286   6.809  1.3223  1.0721  2.4541
14364SOL    HW244770   4.398   2.383   6.694 -1.5591 -3.5224 -1.1995
14365SOL     OW44771   6.706   3.359   8.276 -1.0268 -0.2678  0.6372
14365SOL    HW144772   6.738   3.364   8.186 -0.3177  2.9760  0.9940
14365SOL    HW244773   6.616   3.329   8.269 -0.1344 -2.6989 -0.9257
14366SOL     OW44774   0.708   7.019   0.503 -0.2155 -0.9076  0.3906
14366SOL    HW144775   0.657   7.057   0.574  1.7600 -1.5720  2.2255
14366SOL    HW244776   0.780   7.081   0.489 -1.2476 -0.1768 -1.8793
14367SOL     OW44777   6.531   7.396   0.277  0.6055 -0.2190  0.7789
14367SOL    HW144778   6.516   7.358   0.363 -0.1845 -1.7081  0.0110
14367SOL    HW244779   6.491   7.334   0.216  0.3923  1.2211 -0.6042
14368SOL     OW44780   2.610   5.810   6.901  0.2292 -0.5194 -0.3807
14368SOL    HW144781   2.575   5.778   6.984 -1.3984 -0.4361 -1.0110
14368SOL    HW244782   2.556   5.767   6.834 -0.0999  1.2719 -1.3122
14369SOL     OW44783   7.274   8.753   8.319 -0.0858 -0.1694 -0.1597
14369SOL    HW144784   7.368   8.759   8.303 -0.2604  0.3940 -0.9926
14369SOL    HW244785   7.235   8.763   8.232 -0.8214 -2.7540 -0.1830
14370SOL     OW44786   2.507   6.739   8.544 -0.0827  0.1286  0.1724
14370SOL    HW144787   2.413   6.751   8.529 -0.3889 -0.5887  1.4822
14370SOL    HW244788   2.545   6.738   8.456 -1.3645 -0.0583 -0.3918
14371SOL     OW44789   8.385   2.236   5.672  0.0441  0.5801  0.2545
14371SOL    HW144790   8.330   2.197   5.604  0.0022  0.8823  0.1147
14371SOL    HW244791   8.428   2.161   5.713  0.6709  0.4467 -0.6213
14372SOL     OW44792   1.997   1.657   7.194  0.1125  0.4376  0.4266
14372SOL    HW144793   1.914   1.651   7.145 -0.2468  0.4483  1.0284
14372SOL    HW244794   2.064   1.633   7.130 -0.3996 -0.0290  0.0553
14373SOL     OW44795   9.052   3.489   6.093  0.3684  0.5987  0.0767
14373SOL    HW144796   9.019   3.457   6.009 -0.0933  0.4121  0.3303
14373SOL    HW244797   9.107   3.417   6.126  0.9462  0.8626 -0.2890
14374SOL     OW44798   5.333   5.594   4.862 -0.7766 -0.2084  0.6296
14374SOL    HW144799   5.351   5.526   4.798 -1.6009 -0.7267  0.9360
14374SOL    HW244800   5.373   5.563   4.943  2.4877  1.6242 -0.2039
14375SOL     OW44801   5.012   1.680   8.350 -0.0952 -0.0269  0.1948
14375SOL    HW144802   4.920   1.658   8.336  0.2900 -1.1146 -0.6422
14375SOL    HW244803   5.011   1.738   8.426 -1.6727  1.6924 -1.0885
14376SOL     OW44804   5.237   4.953   2.460 -0.4407  0.2577  0.1972
14376SOL    HW144805   5.237   4.955   2.556  1.8667 -0.0634  0.2238
14376SOL    HW244806   5.286   4.873   2.439 -0.8036  0.4227 -1.2592
14377SOL     OW44807   8.762   7.218   8.917  0.1421 -0.3554 -0.3140
14377SOL    HW144808   8.778   7.129   8.946 -0.0843 -1.2666 -2.8357
14377SOL    HW244809   8.677   7.241   8.956  0.3849 -1.0903  0.6559
14378SOL     OW44810   1.784   6.240   2.888 -0.2916 -0.1725 -0.1361
14378SOL    HW144811   1.847   6.313   2.893 -1.7861  1.0414  2.2548
14378SOL    HW244812   1.701   6.279   2.914 -0.6919 -3.1784  3.5133
14379SOL     OW44813   5.245   2.971   8.154 -0.0971  0.4517  0.4916
14379SOL    HW144814   5.224   2.897   8.098  0.3659  0.4464  0.3223
14379SOL    HW244815   5.336   2.956   8.180 -0.0435  0.8929  0.5614
14380SOL     OW44816   5.150   2.602   1.055 -0.1789  0.1015 -0.0690
14380SOL    HW144817   5.229   2.649   1.079  1.1555 -1.8652 -0.4445
14380SOL    HW244818   5.175   2.551   0.977 -1.3129 -1.8101  0.7754
14381SOL     OW44819   0.694   6.595   6.633  0.4471  0.0340  0.0291
14381SOL    HW144820   0.784   6.581   6.602  1.0706  0.6454  1.5449
14381SOL    HW244821   0.672   6.683   6.603  0.7282  0.2847  0.5640
14382SOL     OW44822   7.664   6.780   0.528 -0.2357 -0.6999  0.9488
14382SOL    HW144823   7.746   6.744   0.497  0.4985 -0.3577  2.4597
14382SOL    HW244824   7.617   6.705   0.566  0.0686 -0.5921  1.5345
14383SOL     OW44825   4.019   3.173   7.831 -0.1846 -0.3377  0.8241
14383SOL    HW144826   3.943   3.129   7.793 -1.2855  0.6641  1.8098
14383SOL    HW244827   4.092   3.114   7.816 -0.8081 -0.4894 -1.8203
14384SOL     OW44828   2.547   8.617   9.181 -0.8016 -0.9124 -0.1336
14384SOL    HW144829   2.471   8.652   9.228 -0.3340  0.4754 -0.3886
14384SOL    HW244830   2.599   8.694   9.159  0.7771 -1.8668  0.1879
14385SOL     OW44831   7.418   3.395   0.959  0.3121  0.2316 -0.9011
14385SOL    HW144832   7.376   3.480   0.974 -1.0935 -0.3819 -1.2311
14385SOL    HW244833   7.430   3.391   0.864  1.5755  0.5967 -0.7695
14386SOL     OW44834   3.727   3.533   6.450 -0.1149  0.5567  0.3506
14386SOL    HW144835   3.796   3.478   6.488  0.3845  1.6619  1.0777
14386SOL    HW244836   3.672   3.472   6.401  0.0750 -0.6797  1.6537
14387SOL     OW44837   9.183   5.117   6.600  0.0008  0.0705 -0.1836
14387SOL    HW144838   9.176   5.204   6.562 -0.8585 -0.0317 -0.2642
14387SOL    HW244839   9.274   5.090   6.583  0.4174  1.1441  0.2780
14388SOL     OW44840   3.657   0.339   9.233 -0.0399  0.4327  0.6003
14388SOL    HW144841   3.586   0.349   9.170  0.5102 -1.3064 -0.3377
14388SOL    HW244842   3.614   0.322   9.316 -0.7596  1.9142  0.5423
14389SOL     OW44843   6.553   8.844   2.523  0.0631 -0.0348  0.5918
14389SOL    HW144844   6.488   8.854   2.592  1.1748  1.3456  1.4682
14389SOL    HW244845   6.590   8.932   2.512 -0.4539 -0.1129 -2.1199
14390SOL     OW44846   3.622   5.651   1.933 -0.2288  0.0433  0.5128
14390SOL    HW144847   3.702   5.679   1.888 -0.3281 -0.1726  0.2006
14390SOL    HW244848   3.564   5.727   1.928  0.2712  0.4966  1.4902
14391SOL     OW44849   0.616   5.844   3.106  0.2288  0.4334  0.1350
14391SOL    HW144850   0.581   5.916   3.159  0.4473  1.0495 -0.5533
14391SOL    HW244851   0.553   5.773   3.118  0.5131  0.4092  1.5811
14392SOL     OW44852   3.465   8.113   2.020  0.0178  0.5442 -0.0526
14392SOL    HW144853   3.414   8.195   2.021 -2.3841 -0.8959 -0.1163
14392SOL    HW244854   3.452   8.077   1.932 -1.9863 -1.6873  1.0952
14393SOL     OW44855   6.381   4.476   3.532 -0.3831  0.2209  0.3418
14393SOL    HW144856   6.477   4.482   3.536 -0.3145 -0.6465  0.2392
14393SOL    HW244857   6.352   4.563   3.507  0.3488  0.6439  0.9628
14394SOL     OW44858   6.744   6.092   5.781  0.3307  0.4579  0.3833
14394SOL    HW144859   6.785   6.095   5.695 -1.0756  0.8349 -0.2915
14394SOL    HW244860   6.817   6.090   5.842  1.3490  0.1941 -0.8148
14395SOL     OW44861   1.329   8.790   3.173  0.7660 -0.2526 -0.0615
14395SOL    HW144862   1.357   8.821   3.259 -2.9730  1.7529  0.5702
14395SOL    HW244863   1.266   8.720   3.192 -2.3239  2.1348 -0.8988
14396SOL     OW44864   1.032   1.398   0.712 -0.0446  0.0923 -0.2676
14396SOL    HW144865   0.995   1.366   0.629 -0.2462  1.3537 -0.6704
14396SOL    HW244866   0.986   1.348   0.779 -0.1267 -0.6954 -0.8969
14397SOL     OW44867   3.693   5.768   0.672 -0.5502  0.4124  0.2355
14397SOL    HW144868   3.668   5.848   0.718 -0.8564 -0.5167  1.7432
14397SOL    HW244869   3.612   5.718   0.665  0.1382 -0.9979  1.8548
14398SOL     OW44870   5.571   2.333   0.184  0.0402 -0.0541 -0.4895
14398SOL    HW144871   5.550   2.241   0.200 -2.1066  0.3605 -0.7553
14398SOL    HW244872   5.491   2.380   0.207  0.8175  1.6596 -1.2162
14399SOL     OW44873   7.538   7.910   1.697 -0.1269  0.1029 -0.0341
14399SOL    HW144874   7.489   7.896   1.616 -1.0561 -0.2113  0.5692
14399SOL    HW244875   7.516   8.000   1.722  0.7430  0.4516 -0.5157
14400SOL     OW44876   7.981   3.842   2.607 -0.3030  0.0115  0.5426
14400SOL    HW144877   8.003   3.928   2.643  0.1720 -0.2282  0.8290
14400SOL    HW244878   7.890   3.850   2.580 -0.5587  0.3022  1.4784
14401SOL     OW44879   2.800   8.003   8.961 -0.0317 -0.2227 -0.2896
14401SOL    HW144880   2.832   8.085   8.998 -1.9613 -0.0888  1.1050
14401SOL    HW244881   2.773   8.026   8.872  0.9504  0.2960 -0.4574
14402SOL     OW44882   6.596   6.737   9.203 -0.3162  0.1476 -0.3371
14402SOL    HW144883   6.622   6.776   9.286  0.4961  1.1344 -1.0530
14402SOL    HW244884   6.625   6.799   9.136  1.8432 -2.0839 -1.5618
14403SOL     OW44885   5.074   5.907   7.192  0.3052  0.1710 -0.1418
14403SOL    HW144886   5.011   5.973   7.164 -0.2892 -0.3602 -0.0505
14403SOL    HW244887   5.151   5.958   7.218 -0.2421  0.8525  0.1819
14404SOL     OW44888   8.435   2.124   9.039 -0.6896 -0.0133 -0.0626
14404SOL    HW144889   8.402   2.147   8.952  0.8261 -3.2076 -1.6008
14404SOL    HW244890   8.430   2.028   9.041  1.5308 -0.1300  2.4405
14405SOL     OW44891   4.552   1.006   6.690  0.7231 -0.0092  0.2847
14405SOL    HW144892   4.463   1.011   6.657  0.3264 -0.8600  1.2057
14405SOL    HW244893   4.607   1.019   6.613 -0.1854  2.0882 -0.0393
14406SOL     OW44894   3.072   6.705   0.008  0.1680 -0.0735  0.1199
14406SOL    HW144895   3.155   6.685   0.052  0.7358  1.5839 -0.1499
14406SOL    HW244896   3.084   6.794  -0.026 -1.2793 -0.2890 -0.9887
14407SOL     OW44897   0.470   3.449   7.053  0.3855  0.1759 -0.1568
14407SOL    HW144898   0.516   3.401   6.984 -1.8425 -1.7522 -0.3532
14407SOL    HW244899   0.536   3.460   7.121  1.4814 -1.5669 -0.8753
14408SOL     OW44900   3.631   4.233   5.131  0.0614 -0.0832  0.1322
14408SOL    HW144901   3.563   4.246   5.065 -0.2184 -0.1813  0.4006
14408SOL    HW244902   3.665   4.321   5.147  1.4177 -0.2942 -1.5078
14409SOL     OW44903   5.600   2.274   4.937 -0.0338 -0.1713  0.0255
14409SOL    HW144904   5.545   2.221   4.880  2.0289 -1.6862 -0.5931
14409SOL    HW244905   5.624   2.350   4.884 -0.2439 -0.2753 -0.2152
14410SOL     OW44906   2.490   6.547   6.550 -0.1055  0.1347  0.1703
14410SOL    HW144907   2.499   6.552   6.455  0.0231 -1.2953  0.0931
14410SOL    HW244908   2.503   6.454   6.570 -0.1580  0.4245  1.5798
14411SOL     OW44909   7.897   1.357   5.264  0.1112  0.6437 -0.9313
14411SOL    HW144910   7.887   1.305   5.184 -0.2520 -0.7761  0.0142
14411SOL    HW244911   7.976   1.322   5.306 -1.0362 -0.3006  0.5274
14412SOL     OW44912   0.702   3.901   4.891  0.1504  0.1373  0.0056
14412SOL    HW144913   0.763   3.827   4.884 -2.7358 -2.2289 -0.9600
14412SOL    HW244914   0.658   3.888   4.975 -1.6715 -0.3161 -0.9958
14413SOL     OW44915   7.589   5.592   7.861  0.4347  0.0646 -0.0486
14413SOL    HW144916   7.684   5.580   7.856  0.5804  1.4655 -0.7505
14413SOL    HW244917   7.577   5.681   7.894 -0.6501 -0.8969  2.2932
14414SOL     OW44918   4.937   6.141   5.468 -0.3239 -0.1134  0.0808
14414SOL    HW144919   4.960   6.136   5.560  0.7496  0.6815 -0.1359
14414SOL    HW244920   4.848   6.106   5.463 -0.3604 -0.2068  1.4010
14415SOL     OW44921   4.739   4.629   0.570  0.0380 -0.7328  0.1594
14415SOL    HW144922   4.769   4.633   0.479  1.4814  0.3351  0.6593
14415SOL    HW244923   4.652   4.667   0.568  0.3718  0.0085 -0.6476
14416SOL     OW44924   4.640   7.152   3.930  0.4818  0.3007  0.6137
14416SOL    HW144925   4.711   7.107   3.975  0.7597  0.3805  0.2555
14416SOL    HW244926   4.591   7.082   3.886  0.5196  0.2763  0.6112
14417SOL     OW44927   7.503   3.825   3.137  0.7538 -0.3532  0.1398
14417SOL    HW144928   7.542   3.846   3.221 -0.4705  1.1037  0.3625
14417SOL    HW244929   7.516   3.904   3.084 -0.6244 -0.3703 -0.2315
14418SOL     OW44930   0.132   5.876   7.090 -0.1289  0.3144  0.0452
14418SOL    HW144931   0.130   5.919   7.176  0.3118  0.8781 -0.2264
14418SOL    HW244932   0.116   5.784   7.109  1.8325  0.1316  0.9297
14419SOL     OW44933   8.283   1.761   6.070 -0.0266  0.5777  0.5426
14419SOL    HW144934   8.244   1.837   6.027  1.5641  1.2246  0.2049
14419SOL    HW244935   8.217   1.692   6.062 -0.2385  1.0123 -1.9773
14420SOL     OW44936   8.896   7.713   2.656 -0.3316 -0.2308 -0.0184
14420SOL    HW144937   8.929   7.799   2.629  0.4231 -0.2607  0.8090
14420SOL    HW244938   8.960   7.681   2.719 -0.8782 -1.1856  0.0604
14421SOL     OW44939   2.524   1.042   5.488  0.3580 -0.3061  0.1951
14421SOL    HW144940   2.572   0.982   5.432  1.1913  0.1010  0.4768
14421SOL    HW244941   2.568   1.126   5.478 -0.2395  0.0544  0.5158
14422SOL     OW44942   2.004   0.087   3.107  0.5926 -0.0337  0.0653
14422SOL    HW144943   2.027   0.047   3.023  1.7750 -0.1933  0.4588
14422SOL    HW244944   1.944   0.158   3.083 -1.9344 -2.3170 -0.5754
14423SOL     OW44945   1.732   2.322   5.572 -0.1832 -0.3124 -0.2870
14423SOL    HW144946   1.704   2.354   5.658  1.5584  0.4023  0.0271
14423SOL    HW244947   1.695   2.234   5.566 -1.0450 -0.0386  0.8190
14424SOL     OW44948   1.068   1.206   0.982  0.7910 -0.0154 -0.5908
14424SOL    HW144949   1.061   1.259   1.061  1.2057 -0.6959 -0.0904
14424SOL    HW244950   0.978   1.203   0.948  0.5971  0.2315 -0.1144
14425SOL     OW44951   4.216   2.296   3.366 -0.5167  0.1585 -0.0701
14425SOL    HW144952   4.227   2.203   3.345 -0.3966  0.1622 -0.0218
14425SOL    HW244953   4.162   2.297   3.445  0.5472  0.0968  0.6581
14426SOL     OW44954   8.353   8.824   1.274  0.2187 -0.0596 -0.5276
14426SOL    HW144955   8.399   8.790   1.351 -0.8903 -0.7848 -0.1652
14426SOL    HW244956   8.265   8.786   1.281 -0.1020  0.4487 -1.7723
14427SOL     OW44957   1.631   5.887   8.056  0.5509 -0.3115  0.2785
14427SOL    HW144958   1.564   5.823   8.030  0.5761  0.3632 -1.5251
14427SOL    HW244959   1.585   5.948   8.114 -0.1837 -0.3519 -0.2492
14428SOL     OW44960   3.370   5.348   7.615 -0.5148  0.0280  0.0380
14428SOL    HW144961   3.278   5.329   7.598  0.0622 -1.6564 -1.3426
14428SOL    HW244962   3.404   5.270   7.658  0.3393  0.5116  0.2532
14429SOL     OW44963   0.433   4.368   4.937  0.6840 -0.0917 -0.5468
14429SOL    HW144964   0.453   4.282   4.899 -1.1008 -0.1227 -1.4859
14429SOL    HW244965   0.392   4.417   4.865 -2.5279 -0.0467  1.2344
14430SOL     OW44966   5.390   8.356   2.391  0.1090 -0.2609 -0.7629
14430SOL    HW144967   5.455   8.359   2.461  0.8438  1.1269 -1.4671
14430SOL    HW244968   5.312   8.396   2.429  0.4733  0.3983 -0.6963
14431SOL     OW44969   0.085   5.326   2.687  0.1358 -0.1252 -0.1588
14431SOL    HW144970   0.177   5.300   2.694  0.1714  0.2833  1.0528
14431SOL    HW244971   0.036   5.252   2.724  0.0838  0.3395  0.7311
14432SOL     OW44972   3.925   2.288   2.440 -0.3378  0.0311 -0.7409
14432SOL    HW144973   3.836   2.322   2.430 -0.2958  0.1210 -0.8114
14432SOL    HW244974   3.945   2.300   2.533 -0.2188  0.4592 -0.8210
14433SOL     OW44975   8.649   5.426   4.564  0.0146 -0.0437  0.4238
14433SOL    HW144976   8.619   5.492   4.502 -2.8222  0.2469  1.9890
14433SOL    HW244977   8.577   5.419   4.628  1.4118 -2.6879  1.8016
14434SOL     OW44978   6.664   6.911   6.350 -1.0323  0.6648  0.1092
14434SOL    HW144979   6.625   6.970   6.286 -1.0728  1.2535  0.6702
14434SOL    HW244980   6.695   6.969   6.420 -1.4984 -0.0055  0.8846
14435SOL     OW44981   1.957   1.735   1.529  0.1797 -0.1472  0.4447
14435SOL    HW144982   2.030   1.794   1.550 -0.5169  0.3469  1.4820
14435SOL    HW244983   1.905   1.783   1.465  0.3715 -0.2110  0.2395
14436SOL     OW44984   5.897   1.590   4.084 -0.0183 -0.1688 -0.2508
14436SOL    HW144985   5.952   1.640   4.024 -0.8134  0.0906 -0.7738
14436SOL    HW244986   5.848   1.657   4.132 -0.5740 -0.4270 -0.4594
14437SOL     OW44987   8.267   4.712   7.208  0.0197  0.4170  0.1912
14437SOL    HW144988   8.322   4.770   7.261  1.5270 -0.5489 -0.2611
14437SOL    HW244989   8.293   4.624   7.234 -1.4275 -0.0663  0.0460
14438SOL     OW44990   1.251   2.349   7.157 -0.0948 -0.5726  0.5129
14438SOL    HW144991   1.200   2.389   7.227  0.0093  0.4161  0.0393
14438SOL    HW244992   1.196   2.277   7.126  0.8844 -2.5351  3.1631
14439SOL     OW44993   6.148   4.388   1.595 -0.8953  0.2051 -0.1095
14439SOL    HW144994   6.127   4.414   1.684 -1.8466  0.5228 -0.4291
14439SOL    HW244995   6.216   4.320   1.606 -1.2691 -0.0242  0.8624
14440SOL     OW44996   0.402   3.243   5.688  0.3721  0.1520 -0.2094
14440SOL    HW144997   0.446   3.251   5.773  0.0811 -1.6139  0.1357
14440SOL    HW244998   0.313   3.276   5.704  0.3379 -0.1124  0.1623
14441SOL     OW44999   2.602   7.214   6.735  0.2967 -0.0288  0.2096
14441SOL    HW145000   2.549   7.181   6.663 -1.9267  0.5518  1.5599
14441SOL    HW245001   2.651   7.138   6.765 -1.5521 -1.1165  0.4928
14442SOL     OW45002   6.638   6.250   5.036  0.1311 -0.2835  0.0116
14442SOL    HW145003   6.561   6.210   4.996  1.5147 -2.3141 -0.7106
14442SOL    HW245004   6.609   6.279   5.122 -1.2370 -1.6621  0.0197
14443SOL     OW45005   7.693   9.258   3.081 -0.3539  0.1254 -0.3475
14443SOL    HW145006   7.674   9.176   3.126  0.3745  0.5570  0.7701
14443SOL    HW245007   7.784   9.249   3.052  0.7692  1.7134  2.4659
14444SOL     OW45008   7.720   6.532   5.692  0.5155  0.4664 -0.6987
14444SOL    HW145009   7.751   6.595   5.627  0.6023  2.0807  0.8794
14444SOL    HW245010   7.799   6.485   5.719  0.6419  0.5030 -1.0034
14445SOL     OW45011   0.622   3.458   3.119  0.1267 -0.5846 -0.4982
14445SOL    HW145012   0.588   3.396   3.183  1.8779 -0.8838  0.1821
14445SOL    HW245013   0.698   3.414   3.081  1.0236  0.8788 -0.4565
14446SOL     OW45014   1.066   2.775   2.776  0.0431 -0.4437  0.1322
14446SOL    HW145015   1.157   2.752   2.756  0.2046  0.1363  0.2033
14446SOL    HW245016   1.014   2.705   2.735  0.5264 -0.8651  0.2339
14447SOL     OW45017   3.458   3.025   8.925  0.4055  0.4760  0.4766
14447SOL    HW145018   3.506   2.968   8.985  0.2066  0.6087  0.7631
14447SOL    HW245019   3.526   3.074   8.880  0.6651 -1.0971 -0.9028
14448SOL     OW45020   3.811   4.001   1.137  0.5377  0.0928  0.4072
14448SOL    HW145021   3.860   3.982   1.217 -0.3171 -0.2260  0.8649
14448SOL    HW245022   3.727   3.956   1.149  0.1386  0.6189 -0.3645
14449SOL     OW45023   7.850   3.463   6.596 -0.0818  0.5168  0.6534
14449SOL    HW145024   7.888   3.476   6.509  1.2017  2.5588  1.4715
14449SOL    HW245025   7.797   3.541   6.611 -0.9648 -0.2092  1.3660
14450SOL     OW45026   4.312   3.564   4.129 -0.2306  0.0383  0.0710
14450SOL    HW145027   4.251   3.566   4.203 -0.2753  1.3879  0.0088
14450SOL    HW245028   4.270   3.617   4.061  0.3013 -0.3037 -0.5304
14451SOL     OW45029   0.735   2.177   5.813 -0.2222 -0.3371 -0.3157
14451SOL    HW145030   0.729   2.107   5.748 -2.1224 -0.4363 -0.0709
14451SOL    HW245031   0.647   2.214   5.816  0.2291  0.6544  1.1158
14452SOL     OW45032   2.850   5.009   7.376  0.2006 -0.4161 -0.0729
14452SOL    HW145033   2.809   4.928   7.346 -2.1149  1.3544 -1.8862
14452SOL    HW245034   2.798   5.035   7.453 -0.1776  0.2268 -0.5377
14453SOL     OW45035   6.186   7.707   1.067  0.9423  0.2911 -0.0831
14453SOL    HW145036   6.105   7.690   1.115 -0.4381  1.9592 -1.7483
14453SOL    HW245037   6.225   7.621   1.053 -1.2474 -0.6567 -0.4564
14454SOL     OW45038   2.147   0.888   3.255  0.0617  0.0713  0.6861
14454SOL    HW145039   2.223   0.841   3.220  0.4857 -0.4005  2.2334
14454SOL    HW245040   2.184   0.961   3.304 -0.4763 -0.2356  1.5577
14455SOL     OW45041   6.413   2.321   2.094  0.0449 -0.0852  0.3515
14455SOL    HW145042   6.366   2.306   2.176 -2.0769  1.0201 -0.6329
14455SOL    HW245043   6.478   2.250   2.090 -0.8531 -1.0432  2.2373
14456SOL     OW45044   8.720   8.546   4.470  0.7780 -0.1372  0.2674
14456SOL    HW145045   8.685   8.457   4.465 -0.7843  0.4998 -0.6174
14456SOL    HW245046   8.730   8.574   4.379  1.5313  0.4906  0.5356
14457SOL     OW45047   5.532   2.516   4.784 -0.0366  0.6680  0.2558
14457SOL    HW145048   5.448   2.547   4.752 -0.7817  0.8659  2.3391
14457SOL    HW245049   5.586   2.507   4.705 -1.5466  1.9000 -0.9463
14458SOL     OW45050   1.037   2.021   6.836  0.2763 -0.3235  0.2156
14458SOL    HW145051   0.966   1.987   6.890 -0.1930  1.6731  0.8850
14458SOL    HW245052   1.086   2.079   6.893  1.3160 -0.1990 -0.7791
14459SOL     OW45053   3.997   4.593   2.116  0.5229  0.0323  0.1841
14459SOL    HW145054   3.922   4.535   2.104  1.5471 -1.2824  0.1138
14459SOL    HW245055   4.068   4.552   2.067  1.6882  0.5045  1.4434
14460SOL     OW45056   4.576   7.756   2.603  0.0601 -0.7086  0.1905
14460SOL    HW145057   4.482   7.752   2.587 -0.0848  0.5510  0.7338
14460SOL    HW245058   4.615   7.737   2.517 -0.6870 -0.0526 -0.2976
14461SOL     OW45059   3.466   8.031   4.873  0.2933 -0.6963  0.8109
14461SOL    HW145060   3.553   7.999   4.895  0.4731 -0.1177  0.9558
14461SOL    HW245061   3.466   8.042   4.778  1.1050  1.3763  1.0211
14462SOL     OW45062   6.778   5.753   7.058 -0.0631 -0.1013 -0.6391
14462SOL    HW145063   6.825   5.757   7.141 -0.0625  0.4965 -0.6692
14462SOL    HW245064   6.826   5.812   7.000 -0.1673 -0.3800 -1.0124
14463SOL     OW45065   8.355   3.568   5.553  0.1421 -0.3588  0.0451
14463SOL    HW145066   8.381   3.581   5.644  1.2562 -1.5161 -0.0921
14463SOL    HW245067   8.301   3.489   5.553 -1.6326  0.8261 -0.0005
14464SOL     OW45068   2.619   2.170   2.695  0.1712  0.3290 -0.3697
14464SOL    HW145069   2.563   2.155   2.771  1.8182  1.7658  1.1739
14464SOL    HW245070   2.558   2.181   2.622 -1.4839  0.4109  1.0000
14465SOL     OW45071   0.692   4.615   0.107  0.0010 -0.1931 -0.0423
14465SOL    HW145072   0.671   4.648   0.020  0.4836  0.6367  0.1487
14465SOL    HW245073   0.647   4.530   0.112  0.1195 -0.3345 -1.1608
14466SOL     OW45074   7.711   7.494   6.415 -0.2469 -0.3344 -0.5790
14466SOL    HW145075   7.673   7.443   6.344 -0.3920  0.2457 -0.9163
14466SOL    HW245076   7.799   7.459   6.425 -0.5620 -1.0907 -0.3747
14467SOL     OW45077   0.465   5.957   1.178  0.5921  0.3046  0.4699
14467SOL    HW145078   0.436   6.046   1.157  2.3527  0.9443  0.6836
14467SOL    HW245079   0.464   5.911   1.094  3.5569  1.6853 -0.4056
14468SOL     OW45080   3.005   6.545   4.987  0.3796 -0.2845  0.1489
14468SOL    HW145081   3.033   6.636   4.992  0.7732 -0.4988  2.1729
14468SOL    HW245082   3.055   6.500   5.055 -0.2092 -1.9170 -0.4603
14469SOL     OW45083   8.016   7.977   1.925  0.4185 -0.0071 -0.7198
14469SOL    HW145084   7.933   7.972   1.972  1.4658 -0.2639  1.1457
14469SOL    HW245085   7.998   7.937   1.840 -0.9421 -1.5592  0.2723
14470SOL     OW45086   6.936   5.806   7.261  0.2523 -0.0467 -0.2974
14470SOL    HW145087   7.028   5.832   7.261  0.7278 -1.6476 -0.9967
14470SOL    HW245088   6.930   5.736   7.326  0.1019 -1.7488 -2.0768
14471SOL     OW45089   4.646   5.609   5.043  0.1018 -0.4327  0.4326
14471SOL    HW145090   4.612   5.525   5.013  0.2860 -0.5233  0.4753
14471SOL    HW245091   4.606   5.622   5.129  0.7512 -0.8910  0.8080
14472SOL     OW45092   1.190   4.068   2.345 -0.1017  0.5347  0.5634
14472SOL    HW145093   1.220   4.152   2.379 -0.8932  0.7095  0.8463
14472SOL    HW245094   1.165   4.086   2.255 -0.4800  0.6554  0.6911
14473SOL     OW45095   6.404   4.938   3.201  0.1546 -0.3131 -0.1329
14473SOL    HW145096   6.441   4.869   3.256 -0.9332  0.0087  1.0053
14473SOL    HW245097   6.335   4.894   3.151  2.0007 -0.9115 -2.2521
14474SOL     OW45098   3.383   3.915   6.957  0.3484 -0.1149 -0.4770
14474SOL    HW145099   3.326   3.922   6.881  1.2354 -1.6311 -1.2907
14474SOL    HW245100   3.323   3.901   7.030 -0.3966 -0.4126 -1.1400
14475SOL     OW45101   2.567   6.632   4.970 -0.1556  0.3498  0.2690
14475SOL    HW145102   2.607   6.706   4.924  0.6519 -1.1179 -1.4513
14475SOL    HW245103   2.634   6.603   5.031  1.2055 -1.6151 -2.0640
14476SOL     OW45104   2.119   2.553   3.310 -0.4338 -0.2318  0.0301
14476SOL    HW145105   2.160   2.480   3.263  2.0561  0.1944  1.4922
14476SOL    HW245106   2.085   2.514   3.390 -1.0879 -0.1924 -0.2254
14477SOL     OW45107   1.545   2.820   8.499  0.2532 -0.3482 -0.4063
14477SOL    HW145108   1.563   2.743   8.552  1.7173 -0.7223 -1.4163
14477SOL    HW245109   1.563   2.894   8.558  0.4679 -0.7560  0.0476
14478SOL     OW45110   5.766   1.779   3.795  0.1369 -0.0137  0.1090
14478SOL    HW145111   5.764   1.865   3.752  0.7291 -1.0309 -1.9796
14478SOL    HW245112   5.675   1.750   3.793 -0.0302  0.4412  0.6335
14479SOL     OW45113   6.574   7.434   3.794  0.1357 -0.0874  0.3430
14479SOL    HW145114   6.580   7.339   3.801 -2.6322 -0.3913 -0.7199
14479SOL    HW245115   6.597   7.466   3.881  1.8050 -1.6613  0.5060
14480SOL     OW45116   5.712   2.028   6.265 -0.1274 -0.2363 -0.5634
14480SOL    HW145117   5.767   2.100   6.296 -0.8021 -0.5831  1.5834
14480SOL    HW245118   5.625   2.066   6.257 -0.3186 -0.5938 -0.2401
14481SOL     OW45119   1.242   5.131   7.646  0.1601 -0.3013  0.0990
14481SOL    HW145120   1.296   5.157   7.571  0.7868 -0.3249  0.5400
14481SOL    HW245121   1.152   5.152   7.619  0.2868 -1.1549 -1.0152
14482SOL     OW45122   5.905   8.216   4.138 -0.2735 -0.2161 -0.3514
14482SOL    HW145123   5.911   8.148   4.070 -2.2020  0.7981 -1.5844
14482SOL    HW245124   5.825   8.194   4.185  0.1672  0.0644  0.5270
14483SOL     OW45125   1.016   3.000   1.586 -0.0960 -0.2087 -0.3692
14483SOL    HW145126   0.957   3.074   1.572  0.3966  0.2002 -0.2988
14483SOL    HW245127   0.967   2.924   1.556 -0.4848  0.1899 -0.7492
14484SOL     OW45128   7.008   1.175   5.040  0.5177 -0.3297  0.3719
14484SOL    HW145129   7.071   1.230   4.995  1.1752 -1.6430 -0.3493
14484SOL    HW245130   6.936   1.234   5.063  0.5691  0.5348 -1.5879
14485SOL     OW45131   1.128   1.890   1.015  0.4966 -0.0644  0.0903
14485SOL    HW145132   1.132   1.890   0.920 -1.2397 -1.4697 -0.0037
14485SOL    HW245133   1.037   1.909   1.036  0.7344 -0.3536  1.4617
14486SOL     OW45134   7.208   8.197   3.536 -0.2398 -0.0016  0.4439
14486SOL    HW145135   7.295   8.200   3.577  0.1580  1.8565 -0.4464
14486SOL    HW245136   7.196   8.106   3.511  2.0962 -0.0469 -0.6693
14487SOL     OW45137   7.741   1.557   3.260 -0.1586  0.0625 -0.0214
14487SOL    HW145138   7.810   1.493   3.274 -0.1563 -0.0155 -0.3922
14487SOL    HW245139   7.671   1.508   3.217 -1.6988 -0.6243  3.0600
14488SOL     OW45140   5.558   0.473   5.209  0.1224 -0.5508  0.2191
14488SOL    HW145141   5.473   0.430   5.220 -0.1380 -0.0502  0.1769
14488SOL    HW245142   5.604   0.419   5.145 -0.4561 -0.4104 -0.3192
14489SOL     OW45143   4.350   3.487   5.827 -0.2613  0.3612 -0.0819
14489SOL    HW145144   4.299   3.560   5.863  0.6789  1.8106 -1.5885
14489SOL    HW245145   4.291   3.412   5.832 -2.1126  1.7326 -0.6122
14490SOL     OW45146   6.126   3.527   4.175  0.1165  0.0821  0.4285
14490SOL    HW145147   6.158   3.598   4.119 -0.3048 -0.5543 -0.6385
14490SOL    HW245148   6.031   3.530   4.166  0.0165  0.3420  1.5713
14491SOL     OW45149   5.164   3.881   5.175  0.0722  0.0347  0.6704
14491SOL    HW145150   5.130   3.801   5.217 -0.7239  0.7296  1.3663
14491SOL    HW245151   5.086   3.924   5.140  0.4225  0.8197  0.8419
14492SOL     OW45152   8.868   7.653   0.518  0.0644 -0.2129  0.2981
14492SOL    HW145153   8.785   7.698   0.502 -0.2576 -1.5145 -1.8916
14492SOL    HW245154   8.903   7.695   0.596 -1.2163  2.4069 -0.4722
14493SOL     OW45155   0.535   0.813   3.938 -0.1121  0.1166 -0.1942
14493SOL    HW145156   0.601   0.863   3.986  1.0120 -2.2098  0.7497
14493SOL    HW245157   0.549   0.837   3.846  2.5316 -0.8831 -0.0884
14494SOL     OW45158   5.559   3.468   1.836  0.3906 -0.0228  0.3717
14494SOL    HW145159   5.637   3.524   1.843  0.0146  0.6941 -1.0283
14494SOL    HW245160   5.487   3.524   1.865  0.2985 -0.4693  1.0127
14495SOL     OW45161   7.414   2.632   6.125 -0.8406  0.1031  0.3645
14495SOL    HW145162   7.417   2.655   6.218  0.6318 -1.8433  0.8078
14495SOL    HW245163   7.501   2.652   6.093 -0.9084 -0.6242 -0.2729
14496SOL     OW45164   2.232   1.880   4.619  0.3125  0.3916  0.0938
14496SOL    HW145165   2.143   1.851   4.637  0.3393  0.0238 -0.3543
14496SOL    HW245166   2.249   1.851   4.529  0.6952  0.9188 -0.0057
14497SOL     OW45167   1.449   3.118   0.064 -0.4666 -0.6177  0.1683
14497SOL    HW145168   1.413   3.204   0.043 -0.6091 -1.3183 -2.6300
14497SOL    HW245169   1.544   3.131   0.062 -0.4908 -0.3117  0.7808
14498SOL     OW45170   6.888   0.858   7.538  0.2273 -0.3145 -0.3769
14498SOL    HW145171   6.886   0.930   7.474  1.2573  0.1426  0.0981
14498SOL    HW245172   6.928   0.785   7.490  0.0411 -0.2925 -0.5699
14499SOL     OW45173   2.976   1.623   2.048 -0.1380 -0.4041  0.0260
14499SOL    HW145174   3.050   1.684   2.052 -0.5391  0.2802 -2.0967
14499SOL    HW245175   3.016   1.537   2.037  0.3513 -0.0251 -1.2170
14500SOL     OW45176   3.757   0.438   2.784 -0.3100  0.3442 -0.1078
14500SOL    HW145177   3.766   0.531   2.764  0.7942  0.6505  1.7437
14500SOL    HW245178   3.665   0.428   2.810 -0.2550  1.0548  0.3740
14501SOL     OW45179   7.746   5.910   6.273 -0.5015 -0.1173 -0.1186
14501SOL    HW145180   7.743   5.997   6.313 -1.4331  0.4928 -1.4342
14501SOL    HW245181   7.654   5.885   6.264 -0.2087 -2.5525  2.9172
14502SOL     OW45182   0.674   2.143   3.783 -0.0648 -0.1470  0.2465
14502SOL    HW145183   0.740   2.087   3.823  0.8089  0.3937 -0.4205
14502SOL    HW245184   0.591   2.103   3.807  0.5330 -1.3763  0.2856
14503SOL     OW45185   1.040   0.307   5.664 -0.0656 -0.2939 -0.1103
14503SOL    HW145186   1.049   0.393   5.623  1.0950 -0.1396  0.4529
14503SOL    HW245187   1.099   0.250   5.614  0.4862 -0.3633  0.6165
14504SOL     OW45188   8.367   5.722   8.375  0.6577 -0.3312  0.4139
14504SOL    HW145189   8.288   5.668   8.375 -0.0331  0.6457  1.1017
14504SOL    HW245190   8.390   5.730   8.467  0.5775  0.7768  0.3441
14505SOL     OW45191   2.419   8.252   1.091  0.0220 -0.0579 -0.5924
14505SOL    HW145192   2.496   8.296   1.054 -0.8615  0.5287 -1.7690
14505SOL    HW245193   2.344   8.293   1.047 -0.9312 -1.1174  0.0080
14506SOL     OW45194   5.716   1.904   6.887  0.1449 -0.0548  0.3362
14506SOL    HW145195   5.664   1.930   6.963 -1.4620  0.8362 -1.0262
14506SOL    HW245196   5.800   1.876   6.924 -0.2055  1.3898  2.3337
14507SOL     OW45197   5.567   0.434   8.578  0.3755 -0.0074  0.5277
14507SOL    HW145198   5.587   0.342   8.595  1.5323  0.0889 -0.2217
14507SOL    HW245199   5.491   0.432   8.520  1.4133 -0.5453 -0.8364
14508SOL     OW45200   0.187   7.593   4.164 -0.6267 -0.0351 -0.3307
14508SOL    HW145201   0.183   7.536   4.087 -2.7313  2.2634 -2.0110
14508SOL    HW245202   0.108   7.570   4.214 -0.7640  0.4730 -0.3182
14509SOL     OW45203   1.376   7.593   4.751  0.1488 -0.2581  0.0537
14509SOL    HW145204   1.369   7.498   4.753 -1.1594 -0.1688  0.0885
14509SOL    HW245205   1.394   7.614   4.660  0.2740 -0.5310  0.0164
14510SOL     OW45206   4.353   0.775   1.363 -0.2137  0.3799 -0.0125
14510SOL    HW145207   4.415   0.849   1.358  0.3850 -0.0980  0.2390
14510SOL    HW245208   4.282   0.800   1.305  0.4958  0.6750 -0.7715
14511SOL     OW45209   3.669   3.318   0.624 -0.0133 -0.0690  0.1628
14511SOL    HW145210   3.665   3.306   0.719  0.0800  0.6069  0.2491
14511SOL    HW245211   3.577   3.330   0.598  0.1387  1.6330  0.4058
14512SOL     OW45212   1.695   2.706   0.140  0.5820  0.0655  0.2930
14512SOL    HW145213   1.786   2.715   0.114  0.8494  1.4799  1.5684
14512SOL    HW245214   1.692   2.626   0.192  1.2046  0.2165  0.5728
14513SOL     OW45215   4.131   4.569   1.410  0.2922  0.5088  0.2557
14513SOL    HW145216   4.082   4.620   1.345 -0.0616 -0.8095 -0.5364
14513SOL    HW245217   4.119   4.478   1.382  1.1967  0.0191  1.4517
14514SOL     OW45218   8.734   7.559   4.452 -0.2450 -0.9116  0.9699
14514SOL    HW145219   8.653   7.540   4.405  0.5349  1.3628 -1.4409
14514SOL    HW245220   8.711   7.634   4.507  0.4440  0.4304 -0.5225
14515SOL     OW45221   4.381   0.461   1.286  0.7359 -0.0098  0.1635
14515SOL    HW145222   4.456   0.519   1.292  0.5263  0.4444 -1.4620
14515SOL    HW245223   4.319   0.495   1.351  0.5869  1.6533 -0.8178
14516SOL     OW45224   7.097   0.688   4.543  0.2599 -0.2554 -0.0555
14516SOL    HW145225   7.163   0.628   4.508  0.3781 -1.0388  1.4627
14516SOL    HW245226   7.137   0.724   4.622 -1.5483 -1.5861  1.5080
14517SOL     OW45227   0.077   6.713   7.776 -0.9112  0.4305 -0.1469
14517SOL    HW145228   0.036   6.753   7.699  0.2778  0.5783 -0.7227
14517SOL    HW245229   0.023   6.743   7.849 -1.2677  1.4038 -0.7829
14518SOL     OW45230   3.133   3.927   2.758 -0.8406  0.1067 -0.4443
14518SOL    HW145231   3.139   3.837   2.790 -0.5575  0.3912  0.3174
14518SOL    HW245232   3.216   3.967   2.783 -2.9781  2.0873  4.0399
14519SOL     OW45233   8.524   8.937   2.106 -0.1121 -0.5542  0.3301
14519SOL    HW145234   8.465   9.011   2.125 -0.6043 -0.5944 -0.9842
14519SOL    HW245235   8.589   8.974   2.046  0.1483 -0.9658  0.3626
14520SOL     OW45236   0.572   5.715   1.271 -0.1845  0.1525 -0.0652
14520SOL    HW145237   0.522   5.794   1.247 -3.1611 -1.1952  1.3595
14520SOL    HW245238   0.617   5.739   1.352 -1.1802  0.3818  0.4347
14521SOL     OW45239   7.330   8.098   2.049 -0.4166  0.2253  0.4122
14521SOL    HW145240   7.235   8.108   2.044 -0.5120 -0.2998  1.1115
14521SOL    HW245241   7.344   8.004   2.054  0.1133  0.3316  0.9560
14522SOL     OW45242   4.150   5.014   1.005 -0.0568  0.5494 -0.2556
14522SOL    HW145243   4.218   5.052   0.949 -0.8575  1.2829 -0.7356
14522SOL    HW245244   4.093   4.967   0.945 -0.1849  0.2440  0.1035
14523SOL     OW45245   6.441   3.845   0.410  0.4913 -0.0543  0.0777
14523SOL    HW145246   6.362   3.872   0.363 -2.2993 -1.9925  3.4680
14523SOL    HW245247   6.452   3.753   0.388  1.8517  0.1784 -0.3195
14524SOL     OW45248   0.144   2.312   3.432 -0.0674  0.3662  0.1151
14524SOL    HW145249   0.231   2.314   3.472 -0.6503 -0.1981  1.4330
14524SOL    HW245250   0.096   2.381   3.477 -1.1204 -1.1191  1.3125
14525SOL     OW45251   3.223   1.768   4.260 -0.1413 -0.4886  0.4191
14525SOL    HW145252   3.214   1.729   4.173  0.6120  0.1172  0.0678
14525SOL    HW245253   3.315   1.758   4.281 -0.0792  0.4807  0.6257
14526SOL     OW45254   8.541   8.741   8.221 -0.8062  0.3238 -0.0405
14526SOL    HW145255   8.620   8.745   8.168 -1.0468  1.9497 -0.3153
14526SOL    HW245256   8.570   8.762   8.310 -1.0306  1.5900 -0.2647
14527SOL     OW45257   7.555   2.676   1.959 -0.5704 -0.3154  0.2420
14527SOL    HW145258   7.634   2.688   2.011  0.4557 -1.6343 -0.9904
14527SOL    HW245259   7.490   2.645   2.022  0.3883 -0.9865  0.9191
14528SOL     OW45260   6.901   6.248   1.020 -0.3778 -0.0073 -0.0995
14528SOL    HW145261   6.887   6.277   1.110 -1.1186 -0.5057 -0.0480
14528SOL    HW245262   6.949   6.166   1.029  0.2294  0.3392 -0.1849
14529SOL     OW45263   7.098   4.271   3.475  0.1097 -0.4253 -0.1009
14529SOL    HW145264   7.005   4.292   3.484 -0.4182 -2.8059  0.3759
14529SOL    HW245265   7.103   4.221   3.394  1.6529  3.1043 -2.3238
14530SOL     OW45266   2.819   2.495   6.971 -0.3729  0.0500  0.0917
14530SOL    HW145267   2.740   2.447   6.994 -0.5694 -0.4156 -1.5447
14530SOL    HW245268   2.863   2.440   6.907  1.6517 -0.0294  1.4987
14531SOL     OW45269   8.544   1.163   7.769 -0.8594  0.4155  0.7336
14531SOL    HW145270   8.459   1.158   7.814 -0.2048 -0.6591  1.8840
14531SOL    HW245271   8.583   1.077   7.782  0.4744  0.9570  0.3466
14532SOL     OW45272   2.938   6.767   3.646 -0.2283  0.3609  0.0147
14532SOL    HW145273   2.951   6.752   3.553  0.7127  0.3420  0.1414
14532SOL    HW245274   3.027   6.774   3.682 -0.5847  1.7133  0.6930
14533SOL     OW45275   1.404   0.316   8.375 -0.2277  0.1173  0.6111
14533SOL    HW145276   1.413   0.378   8.448  2.1654 -0.9706  1.3044
14533SOL    HW245277   1.312   0.290   8.377 -0.4028  0.7852  2.6780
14534SOL     OW45278   7.421   0.508   0.419  0.0661  0.4248 -0.7416
14534SOL    HW145279   7.346   0.525   0.477  0.7126  0.3643  0.1335
14534SOL    HW245280   7.382   0.475   0.338 -0.8917  1.0719 -0.5549
14535SOL     OW45281   5.492   1.915   8.143  0.0431  0.5375 -0.2129
14535SOL    HW145282   5.424   1.859   8.183  0.5060  0.2083  0.1246
14535SOL    HW245283   5.470   1.917   8.050 -0.1907  0.0921 -0.1695
14536SOL     OW45284   9.277   4.532   8.687 -0.2647 -0.3086 -0.1374
14536SOL    HW145285   9.207   4.515   8.750 -1.6915  0.7557 -1.4010
14536SOL    HW245286   9.325   4.449   8.682 -0.8032 -0.7394  1.4974
14537SOL     OW45287   4.997   4.947   8.645  0.1039  0.4401  0.2294
14537SOL    HW145288   5.021   4.918   8.733  0.5179  0.4613  0.1274
14537SOL    HW245289   5.029   4.877   8.588  0.2263  0.6338  0.0629
14538SOL     OW45290   6.060   8.455   2.533  0.0147  0.5360 -0.1361
14538SOL    HW145291   6.079   8.422   2.621  0.1130 -1.7363 -0.9895
14538SOL    HW245292   5.968   8.432   2.518 -0.2282  1.6147 -0.3310
14539SOL     OW45293   8.221   3.619   4.698 -0.1863 -0.0397  0.6743
14539SOL    HW145294   8.189   3.571   4.621 -1.0608 -0.1181  1.0823
14539SOL    HW245295   8.230   3.709   4.668  1.0329 -0.3546  0.0310
14540SOL     OW45296   4.247   6.429   3.610 -0.0732  0.1705 -0.2690
14540SOL    HW145297   4.167   6.399   3.653  0.4011 -0.5529  0.1061
14540SOL    HW245298   4.215   6.483   3.537 -0.8985  0.0350 -0.0197
14541SOL     OW45299   8.598   5.132   6.483  0.1260  0.1613 -0.3635
14541SOL    HW145300   8.674   5.077   6.464 -0.5740 -1.2915  0.9383
14541SOL    HW245301   8.537   5.074   6.528 -2.1072  1.1030 -2.0792
14542SOL     OW45302   3.538   2.588   5.955  0.0123 -0.0790  0.5405
14542SOL    HW145303   3.546   2.618   6.045 -1.9710 -1.2005  1.1292
14542SOL    HW245304   3.508   2.665   5.907 -0.9310 -0.0108  1.2266
14543SOL     OW45305   9.228   8.301   1.994 -0.3215  0.0822  0.2126
14543SOL    HW145306   9.316   8.338   1.987 -0.6513  0.4315 -2.4670
14543SOL    HW245307   9.170   8.378   1.998 -0.4259 -0.1144  4.0814
14544SOL     OW45308   1.149   2.990   4.874  0.4478  0.1991 -0.3659
14544SOL    HW145309   1.111   3.047   4.807  0.4262  0.3858 -0.1966
14544SOL    HW245310   1.242   3.012   4.874  0.6616 -0.6622 -1.1775
14545SOL     OW45311   3.782   9.228   0.351 -0.7471  0.4380 -0.2601
14545SOL    HW145312   3.818   9.284   0.419 -0.6105  2.9475 -2.3264
14545SOL    HW245313   3.763   9.145   0.395 -0.6969  2.0050  2.7953
14546SOL     OW45314   4.059   8.390   1.852  0.2387 -0.0269  0.7466
14546SOL    HW145315   4.011   8.468   1.827  1.5787  1.1931  1.8949
14546SOL    HW245316   4.031   8.323   1.790 -1.8510  1.0238  0.5238
14547SOL     OW45317   1.754   6.161   5.230  0.6626 -0.0035 -0.6945
14547SOL    HW145318   1.773   6.178   5.137  2.4563 -3.2180 -0.9881
14547SOL    HW245319   1.787   6.073   5.245 -0.7164  0.0079  2.7391
14548SOL     OW45320   5.982   4.222   5.452 -0.0095 -0.8944  0.1183
14548SOL    HW145321   6.055   4.284   5.447 -0.3017 -0.2535  2.9198
14548SOL    HW245322   5.904   4.277   5.442 -0.2804 -0.7232  2.8561
14549SOL     OW45323   6.753   8.856   1.160  0.3152 -0.8029  0.0119
14549SOL    HW145324   6.703   8.835   1.238  0.9770 -0.3839  0.5549
14549SOL    HW245325   6.813   8.782   1.149 -0.5836 -1.4215 -0.7774
14550SOL     OW45326   7.687   9.168   3.476 -0.0986  0.2689  0.3148
14550SOL    HW145327   7.675   9.111   3.552 -0.4858 -0.6964 -0.4485
14550SOL    HW245328   7.687   9.108   3.401 -1.5627  1.3811 -0.5966
14551SOL     OW45329   4.013   0.012   1.949 -0.5714  0.0195 -0.1271
14551SOL    HW145330   3.933   0.052   1.915  0.3793  0.9410 -1.3295
14551SOL    HW245331   4.064   0.086   1.981  0.0135 -0.5098  0.1581
14552SOL     OW45332   4.719   4.437   0.319 -0.6953 -0.4802 -0.0336
14552SOL    HW145333   4.705   4.357   0.370  2.0929 -1.8822 -1.3262
14552SOL    HW245334   4.814   4.443   0.311 -0.7967  3.4623  0.7305
14553SOL     OW45335   7.419   6.429   4.061 -0.1024 -0.1519 -0.0981
14553SOL    HW145336   7.376   6.389   3.985  2.0052 -1.6257 -0.5604
14553SOL    HW245337   7.457   6.510   4.026  0.0838 -0.3693 -0.4050
14554SOL     OW45338   0.657   2.581   0.076  0.2777  0.1636  0.2351
14554SOL    HW145339   0.638   2.638   0.001  1.2863 -2.3139 -2.0171
14554SOL    HW245340   0.727   2.626   0.123  1.1646  0.7554 -1.5747
14555SOL     OW45341   8.262   0.542   7.028 -0.0387 -0.1587 -0.0064
14555SOL    HW145342   8.260   0.501   6.941  0.7771  0.6622 -0.4236
14555SOL    HW245343   8.354   0.565   7.041  0.0588 -1.3385  1.5894
14556SOL     OW45344   5.940   4.484   6.881 -0.1680  0.0717  0.0295
14556SOL    HW145345   5.964   4.391   6.881 -0.7890 -0.0904  0.1488
14556SOL    HW245346   6.022   4.529   6.899 -0.0776 -0.5200  1.1655
14557SOL     OW45347   5.221   0.617   6.450 -0.0574 -0.3083  0.2453
14557SOL    HW145348   5.222   0.562   6.528  1.9023  0.4177  0.7613
14557SOL    HW245349   5.236   0.556   6.377 -0.5759 -0.8102  0.5588
14558SOL     OW45350   4.163   1.726   6.509  0.0799 -0.4912  0.2866
14558SOL    HW145351   4.253   1.730   6.474 -0.4821  0.2522 -1.1106
14558SOL    HW245352   4.164   1.651   6.568  1.1108 -1.7545 -1.2612
14559SOL     OW45353   6.607   3.937   7.439 -0.1709  0.5795  0.7857
14559SOL    HW145354   6.631   3.880   7.512 -0.4541 -0.5574 -0.0096
14559SOL    HW245355   6.523   3.976   7.465 -0.3425  0.0663  0.9915
14560SOL     OW45356   1.760   5.668   2.593 -0.5777  0.8086  0.2470
14560SOL    HW145357   1.847   5.700   2.570  1.0135 -3.4225 -0.1086
14560SOL    HW245358   1.727   5.628   2.513 -1.1633 -1.0866  1.4114
14561SOL     OW45359   8.991   1.753   8.140  0.0839  1.0901 -0.3402
14561SOL    HW145360   8.985   1.847   8.153 -0.6425  0.8889  0.7825
14561SOL    HW245361   9.081   1.731   8.163 -0.3042  1.2132  1.3424
14562SOL     OW45362   7.636   4.553   5.375 -0.4017  0.1738  0.3459
14562SOL    HW145363   7.708   4.614   5.391  0.2681 -0.1956 -1.1715
14562SOL    HW245364   7.677   4.475   5.338 -1.6549  0.2494 -1.2505
14563SOL     OW45365   7.529   3.767   1.706 -0.0617  0.0041  0.6168
14563SOL    HW145366   7.621   3.760   1.729  0.0188 -0.8469  0.0566
14563SOL    HW245367   7.526   3.746   1.612 -0.5349  2.1694  0.0917
14564SOL     OW45368   7.096   0.772   0.415  0.3727  0.6081 -0.2335
14564SOL    HW145369   7.115   0.789   0.323 -2.2066  0.2230 -0.8590
14564SOL    HW245370   7.102   0.858   0.457  1.9567  0.7238 -0.6358
14565SOL     OW45371   3.793   5.248   8.907  0.5848 -0.4355 -0.1403
14565SOL    HW145372   3.787   5.334   8.950  0.5206 -1.1893  1.3896
14565SOL    HW245373   3.719   5.246   8.847 -0.6409 -0.2193  1.3273
14566SOL     OW45374   7.612   5.920   2.803  0.2855  0.4712 -0.5496
14566SOL    HW145375   7.576   5.842   2.760 -1.3162  0.4934  0.6786
14566SOL    HW245376   7.576   5.993   2.752  1.0191  0.4403 -1.1233
14567SOL     OW45377   3.278   5.450   9.159 -0.7272 -0.2014 -0.3261
14567SOL    HW145378   3.229   5.377   9.197 -2.2342  0.7694 -0.3864
14567SOL    HW245379   3.276   5.433   9.065 -1.2955  0.0364 -0.3609
14568SOL     OW45380   3.486   7.751   2.345  0.3253 -0.2167  0.2622
14568SOL    HW145381   3.472   7.845   2.352  1.4024  0.0543 -1.0430
14568SOL    HW245382   3.564   7.734   2.398  0.2036 -0.3649  0.3953
14569SOL     OW45383   2.588   5.599   2.389 -0.7177  0.0348  0.4460
14569SOL    HW145384   2.531   5.525   2.413 -1.5829  0.6320  0.2562
14569SOL    HW245385   2.575   5.663   2.459 -0.1242  0.0958  0.5023
14570SOL     OW45386   4.976   5.518   7.119  0.1225 -0.6922 -0.0306
14570SOL    HW145387   4.934   5.603   7.110 -1.5968 -1.5150 -0.0322
14570SOL    HW245388   5.069   5.537   7.122 -0.2585  1.2026  0.2068
14571SOL     OW45389   5.892   6.849   8.396  0.0440  0.1793 -0.4251
14571SOL    HW145390   5.831   6.912   8.359  1.1473  1.4946 -0.0380
14571SOL    HW245391   5.866   6.840   8.488 -0.8241 -0.8130 -0.7580
14572SOL     OW45392   2.452   7.948   2.524 -0.1297  0.1356  0.5291
14572SOL    HW145393   2.433   7.983   2.437  0.2036 -0.8730  0.0463
14572SOL    HW245394   2.366   7.932   2.562 -0.2768  0.2223  0.2406
14573SOL     OW45395   4.231   5.835   0.431 -0.8178  0.1892 -0.3386
14573SOL    HW145396   4.137   5.817   0.422 -0.7758 -0.2063  0.0178
14573SOL    HW245397   4.274   5.754   0.404 -0.6107 -0.0068  0.5613
14574SOL     OW45398   8.344   5.366   6.599  0.5148 -0.0292 -0.1115
14574SOL    HW145399   8.375   5.400   6.683 -1.8725  0.2816  0.6945
14574SOL    HW245400   8.373   5.431   6.535  0.7492  0.7035  0.7236
14575SOL     OW45401   4.378   8.186   6.163  0.2601  0.7250 -0.4005
14575SOL    HW145402   4.297   8.136   6.177 -0.1951  1.6789  0.4695
14575SOL    HW245403   4.445   8.119   6.149 -0.1361 -0.2144  1.8432
14576SOL     OW45404   7.308   6.009   0.842  0.4242  0.1076 -0.2217
14576SOL    HW145405   7.299   5.940   0.776 -2.6803 -0.6658  0.9440
14576SOL    HW245406   7.300   6.090   0.792  0.0513 -0.4350 -1.0718
14577SOL     OW45407   9.278   5.050   8.397 -0.0767  0.0326 -0.2845
14577SOL    HW145408   9.329   4.983   8.444 -0.1478 -0.8427 -1.4250
14577SOL    HW245409   9.325   5.061   8.314 -0.7998  0.4568 -0.6363
14578SOL     OW45410   4.424   1.537   2.733 -0.2019  0.0156  0.2948
14578SOL    HW145411   4.355   1.535   2.667 -2.0361 -0.1722  2.1798
14578SOL    HW245412   4.463   1.449   2.731  0.2339  0.2279 -0.9986
14579SOL     OW45413   4.245   9.092   7.730 -0.3725 -0.6280 -0.6442
14579SOL    HW145414   4.150   9.105   7.735 -0.3790 -1.3259  1.6400
14579SOL    HW245415   4.262   9.075   7.637 -2.5610 -1.1649 -0.9859
14580SOL     OW45416   3.121   5.687   4.782  1.0139 -0.0361  0.1086
14580SOL    HW145417   3.113   5.727   4.869 -1.3894  0.9784 -0.5311
14580SOL    HW245418   3.196   5.731   4.742 -0.8695  3.1007 -0.1410
14581SOL     OW45419   4.172   1.423   7.807 -1.0080 -0.1216  0.0639
14581SOL    HW145420   4.088   1.392   7.774 -0.8574  1.0509 -1.4346
14581SOL    HW245421   4.150   1.479   7.881 -1.4182 -1.5005  1.0177
14582SOL     OW45422   3.071   4.167   6.020 -0.7661 -0.2930 -0.2325
14582SOL    HW145423   3.117   4.152   6.103  1.1148  0.9343 -1.0320
14582SOL    HW245424   3.140   4.169   5.954 -1.7305  3.2986 -1.2441
14583SOL     OW45425   4.196   3.650   7.498 -0.0409 -0.3521  0.5478
14583SOL    HW145426   4.139   3.578   7.527  1.3075 -1.1183  1.3411
14583SOL    HW245427   4.169   3.725   7.550 -2.1806  0.0312 -1.0304
14584SOL     OW45428   4.651   0.487   7.670  0.1241  0.3801 -0.2878
14584SOL    HW145429   4.591   0.452   7.736  2.7583  0.0976  2.0535
14584SOL    HW245430   4.664   0.415   7.608  1.5244 -1.1146  1.6910
14585SOL     OW45431   3.421   3.449   0.586  0.1286  0.4153  0.0812
14585SOL    HW145432   3.415   3.513   0.515 -1.0092  0.9166  0.6231
14585SOL    HW245433   3.440   3.501   0.664  2.0000 -0.1941  0.0668
14586SOL     OW45434   8.643   4.613   6.275  0.0054  0.1941  0.1584
14586SOL    HW145435   8.650   4.518   6.290 -1.0360  0.1984  0.7062
14586SOL    HW245436   8.694   4.652   6.345  1.6852  0.0142 -0.9274
14587SOL     OW45437   5.391   4.654   1.162  0.3631  0.5836 -0.1492
14587SOL    HW145438   5.314   4.688   1.208 -0.0183  1.4627 -1.4223
14587SOL    HW245439   5.360   4.571   1.124  0.5007  0.1659  0.6383
14588SOL     OW45440   1.916   3.799   8.028  0.1254 -0.1300 -0.2555
14588SOL    HW145441   1.954   3.766   7.946 -1.1387  0.2657 -1.0294
14588SOL    HW245442   1.824   3.814   8.006 -0.4482 -0.9764  1.5365
14589SOL     OW45443   8.376   3.424   6.220  0.3094  0.3075 -0.7052
14589SOL    HW145444   8.300   3.447   6.166 -0.6790 -1.4669 -0.1044
14589SOL    HW245445   8.428   3.366   6.165 -0.2803 -0.8442 -0.0596
14590SOL     OW45446   1.227   0.755   8.621  0.1267  0.0762 -0.4599
14590SOL    HW145447   1.303   0.768   8.678  0.3628  1.5419 -1.0894
14590SOL    HW245448   1.153   0.745   8.681  0.5725  0.2721  0.1287
14591SOL     OW45449   8.147   0.916   1.401 -0.0281 -0.2573  0.3934
14591SOL    HW145450   8.060   0.942   1.370 -0.1018 -0.6227  0.2871
14591SOL    HW245451   8.135   0.898   1.494  0.0574  0.2427  0.5018
14592SOL     OW45452   6.588   1.619   1.714 -0.2681 -0.6955 -0.0507
14592SOL    HW145453   6.661   1.649   1.768  0.4085 -1.5414 -0.4966
14592SOL    HW245454   6.554   1.699   1.673  0.3821 -0.3026  0.1765
14593SOL     OW45455   4.041   6.841   7.253 -0.2941 -0.8159  0.0601
14593SOL    HW145456   4.119   6.789   7.269 -1.0817 -1.8538  0.5656
14593SOL    HW245457   3.980   6.781   7.211 -0.5037  0.2282 -1.1675
14594SOL     OW45458   4.857   4.697   4.309  0.1747 -0.2543 -0.6271
14594SOL    HW145459   4.771   4.661   4.288 -0.2714 -0.1819  0.9987
14594SOL    HW245460   4.919   4.634   4.272 -0.5869 -0.8261 -0.9363
14595SOL     OW45461   2.437   4.443   8.148  0.5926  0.5463  0.6362
14595SOL    HW145462   2.351   4.443   8.107  1.4151  0.3819 -1.1455
14595SOL    HW245463   2.440   4.361   8.198  0.3810 -0.3045 -0.7308
14596SOL     OW45464   5.831   4.656   1.521  0.1738  0.2184 -0.1838
14596SOL    HW145465   5.752   4.610   1.548  0.0519  0.4374 -0.1708
14596SOL    HW245466   5.800   4.727   1.465  0.1890  1.5426  1.4462
14597SOL     OW45467   1.314   0.808   2.306  0.0931  0.4988  0.8139
14597SOL    HW145468   1.357   0.746   2.247  0.2510  0.2631  1.1788
14597SOL    HW245469   1.337   0.894   2.271 -1.7933  0.3420 -0.9069
14598SOL     OW45470   7.663   6.264   3.690 -0.0010  0.3632 -0.9397
14598SOL    HW145471   7.670   6.327   3.762 -1.8318  1.3346 -1.5579
14598SOL    HW245472   7.611   6.192   3.727 -0.0521  0.3856 -0.9661
14599SOL     OW45473   3.759   2.313   1.248  0.3994  0.0412 -0.4169
14599SOL    HW145474   3.801   2.293   1.164  1.3865  0.0725  0.0546
14599SOL    HW245475   3.769   2.233   1.299  0.7493  0.3729  0.0422
14600SOL     OW45476   8.058   8.738   7.170  0.5677  0.2877 -0.2311
14600SOL    HW145477   8.020   8.816   7.211  1.0562  0.9986 -1.1156
14600SOL    HW245478   8.012   8.729   7.086  0.9767  0.0097 -0.4287
14601SOL     OW45479   3.651   3.873   4.578 -0.4113  0.1615 -0.3279
14601SOL    HW145480   3.685   3.790   4.545 -0.5066  0.0815 -0.2271
14601SOL    HW245481   3.556   3.865   4.568 -0.5762 -0.5715  1.5815
14602SOL     OW45482   3.851   1.486   6.109 -0.1723 -0.4209 -0.2104
14602SOL    HW145483   3.907   1.474   6.186 -0.6641 -0.5853  0.1268
14602SOL    HW245484   3.909   1.471   6.035  0.4903  0.5384  0.1125
14603SOL     OW45485   1.418   0.082   8.009 -0.3142  0.1463 -0.2501
14603SOL    HW145486   1.348   0.062   8.071 -1.2167  0.5033 -1.1205
14603SOL    HW245487   1.469   0.151   8.051 -0.2184 -0.4318  0.5891
14604SOL     OW45488   0.460   4.498   5.374  0.6227 -0.1062 -0.4047
14604SOL    HW145489   0.490   4.491   5.283 -0.4312  0.3635 -0.7911
14604SOL    HW245490   0.535   4.533   5.422  0.6435  1.1998 -1.3884
14605SOL     OW45491   7.752   6.111   1.168 -0.1607 -0.4642  0.1397
14605SOL    HW145492   7.766   6.147   1.080  0.2352 -1.0304 -0.0293
14605SOL    HW245493   7.760   6.016   1.157 -3.3651 -0.7999  0.1794
14606SOL     OW45494   5.602   6.668   1.514 -0.2572 -0.5230  0.3440
14606SOL    HW145495   5.679   6.725   1.519 -0.7910  0.1671  0.7211
14606SOL    HW245496   5.638   6.580   1.502  0.6163 -0.3018  1.3038
14607SOL     OW45497   7.554   4.316   6.646  0.6713 -0.2155 -0.1151
14607SOL    HW145498   7.617   4.243   6.654  1.1037  0.2186  0.4241
14607SOL    HW245499   7.609   4.393   6.630  0.3135  0.2600  0.9037
14608SOL     OW45500   1.082   3.015   8.759  0.2862 -0.2593 -0.0427
14608SOL    HW145501   1.026   2.947   8.796 -0.2141  0.2970  0.2319
14608SOL    HW245502   1.165   2.971   8.742 -0.3641 -1.1980 -0.8382
14609SOL     OW45503   7.668   4.042   7.721  0.0592 -0.2708  0.4764
14609SOL    HW145504   7.740   4.104   7.737 -1.0190  1.1156 -0.0061
14609SOL    HW245505   7.621   4.038   7.804 -2.5623  3.0825 -0.7562
14610SOL     OW45506   7.986   4.396   3.177  0.0323  0.8168 -0.1054
14610SOL    HW145507   8.029   4.344   3.245 -0.6905  0.1686 -0.1349
14610SOL    HW245508   7.906   4.347   3.157  1.5800 -0.5154 -3.4354
14611SOL     OW45509   9.037   8.573   5.757  0.0645  0.2968  0.0375
14611SOL    HW145510   8.956   8.562   5.807  0.5182  0.6202  0.8433
14611SOL    HW245511   9.087   8.638   5.806 -0.5097  2.4210 -2.1219
14612SOL     OW45512   7.534   4.915   2.898 -0.7757  0.7257  0.0761
14612SOL    HW145513   7.607   4.953   2.849 -0.2766 -1.0582 -0.6221
14612SOL    HW245514   7.471   4.890   2.831 -0.4977 -0.8911  0.3957
14613SOL     OW45515   0.802   4.825   0.218 -0.4463 -0.7729  0.2616
14613SOL    HW145516   0.773   4.739   0.188  0.7940 -0.7654 -1.0115
14613SOL    HW245517   0.756   4.839   0.300 -3.0888 -1.2819 -1.1006
14614SOL     OW45518   2.526   1.272   2.666 -0.5393 -0.3241 -0.2348
14614SOL    HW145519   2.504   1.339   2.601 -3.1865 -0.2873  0.6737
14614SOL    HW245520   2.486   1.192   2.633  2.2493 -1.4591 -1.0890
14615SOL     OW45521   5.585   0.909   6.078  0.5144 -0.6262  0.2342
14615SOL    HW145522   5.550   0.992   6.112 -0.3392 -0.2840 -1.3810
14615SOL    HW245523   5.679   0.922   6.074  0.1577  1.8178 -3.6775
14616SOL     OW45524   7.262   1.195   0.263 -0.0130  0.6201 -0.1862
14616SOL    HW145525   7.244   1.287   0.243  1.9193  1.3246  1.1638
14616SOL    HW245526   7.298   1.159   0.182 -0.7847  1.0334 -0.7202
14617SOL     OW45527   5.207   7.250   7.932 -0.4845 -0.5236  0.2720
14617SOL    HW145528   5.180   7.164   7.898 -1.4323  0.3317 -1.1812
14617SOL    HW245529   5.181   7.312   7.864 -0.1930  0.9772  1.5023
14618SOL     OW45530   2.276   4.103   1.045  0.1075 -0.2182  0.7227
14618SOL    HW145531   2.277   4.168   0.975 -2.8093 -2.2929 -1.3397
14618SOL    HW245532   2.222   4.143   1.114 -1.2584 -0.2052 -0.3332
14619SOL     OW45533   6.160   4.343   8.759  0.1261  0.2447 -0.0354
14619SOL    HW145534   6.098   4.395   8.707 -1.3340 -2.8155 -1.4948
14619SOL    HW245535   6.238   4.337   8.704 -0.8907 -1.7827 -1.2863
14620SOL     OW45536   1.508   8.468   8.339 -0.5099  1.0200 -0.7538
14620SOL    HW145537   1.540   8.520   8.413  0.3053 -0.8321  0.2256
14620SOL    HW245538   1.531   8.519   8.262  0.4892  1.9925  0.1652
14621SOL     OW45539   5.848   0.799   1.091 -0.0443 -0.1374 -0.2439
14621SOL    HW145540   5.841   0.851   1.171  1.7974 -0.4578  0.1545
14621SOL    HW245541   5.785   0.727   1.103 -0.3688  0.2743  0.5402
14622SOL     OW45542   4.950   7.004   1.306  0.1612  0.3225  0.4873
14622SOL    HW145543   4.970   7.092   1.338  1.3101 -0.4177  1.8618
14622SOL    HW245544   4.911   6.959   1.381  1.8486 -1.0894  0.5571
14623SOL     OW45545   4.325   6.923   8.102 -0.3828  0.7225  0.1575
14623SOL    HW145546   4.335   6.907   8.008 -0.1122 -1.4676  0.5418
14623SOL    HW245547   4.409   6.960   8.129  1.2026 -2.7935  0.3324
14624SOL     OW45548   6.312   4.032   7.395 -0.5498  0.6261  0.1847
14624SOL    HW145549   6.314   4.123   7.368  0.0806  1.3755  2.5908
14624SOL    HW245550   6.237   4.025   7.454 -0.0588 -0.1595  0.7499
14625SOL     OW45551   6.597   5.791   9.159 -0.7492  0.3779  0.0425
14625SOL    HW145552   6.556   5.863   9.111 -0.4702  0.9363  0.6309
14625SOL    HW245553   6.526   5.730   9.177 -0.7850 -0.0368 -1.4380
14626SOL     OW45554   6.099   8.071   5.267 -0.2093 -0.0366 -0.1411
14626SOL    HW145555   6.148   8.075   5.185 -0.9553  0.7736 -0.5598
14626SOL    HW245556   6.156   8.023   5.326  2.0086  2.6009 -0.0007
14627SOL     OW45557   9.102   8.762   1.505 -0.0198  0.1935  0.3395
14627SOL    HW145558   9.134   8.678   1.538  1.8779  0.6186 -0.3464
14627SOL    HW245559   9.051   8.739   1.427  0.4358 -0.3511  0.1917
14628SOL     OW45560   7.919   6.300   3.279 -0.3096 -0.6872  0.1790
14628SOL    HW145561   7.858   6.327   3.210 -0.4677 -0.6905  0.3159
14628SOL    HW245562   7.986   6.367   3.280 -0.8370 -0.1639  0.6953
14629SOL     OW45563   0.733   0.123   8.674  0.8399 -0.1587  0.4506
14629SOL    HW145564   0.658   0.065   8.663  1.4675 -1.2046  1.6072
14629SOL    HW245565   0.760   0.144   8.584 -0.4769 -0.2160  0.0223
14630SOL     OW45566   0.296   7.789   0.370  0.7425  0.2581  0.4153
14630SOL    HW145567   0.265   7.880   0.375 -0.9932 -0.2284 -0.9673
14630SOL    HW245568   0.219   7.736   0.392  1.5746 -0.9080  0.5746
14631SOL     OW45569   0.908   0.320   2.269 -0.0814  0.0429  0.1210
14631SOL    HW145570   0.972   0.283   2.329 -0.0202 -2.3369 -1.3309
14631SOL    HW245571   0.957   0.338   2.189 -0.3354  2.3643  0.4660
14632SOL     OW45572   6.884   5.108   4.155 -0.3281  0.0890  0.5005
14632SOL    HW145573   6.930   5.063   4.225 -0.8363  1.2579  1.6207
14632SOL    HW245574   6.847   5.186   4.197  0.1486  1.3027 -1.2730
14633SOL     OW45575   3.533   2.251   4.737  0.3375 -0.1332 -0.5125
14633SOL    HW145576   3.442   2.236   4.763  0.1621  2.0345  0.2930
14633SOL    HW245577   3.527   2.277   4.645 -0.2122  2.9096  0.3264
14634SOL     OW45578   6.718   0.210   0.458 -0.1864 -0.2144  0.6049
14634SOL    HW145579   6.791   0.209   0.520 -0.8094 -0.8358  1.3509
14634SOL    HW245580   6.717   0.299   0.423 -0.0880  0.2780  1.8186
14635SOL     OW45581   5.861   2.791   0.930  0.2249 -0.0122 -0.5428
14635SOL    HW145582   5.948   2.759   0.953  0.4821  0.3185 -1.0321
14635SOL    HW245583   5.876   2.880   0.898 -0.1782 -0.2712 -1.4726
14636SOL     OW45584   1.929   1.489   9.012 -0.1285  0.3228 -0.1609
14636SOL    HW145585   1.979   1.446   9.082  0.6557  2.4891  0.6623
14636SOL    HW245586   1.929   1.582   9.037 -1.2135  0.8921 -2.2158
14637SOL     OW45587   6.504   4.350   3.118 -0.7002 -0.3209  0.0081
14637SOL    HW145588   6.573   4.361   3.183 -2.3661  1.1304  1.6000
14637SOL    HW245589   6.423   4.372   3.164 -2.0988 -0.6868 -2.1586
14638SOL     OW45590   4.366   1.209   1.864 -0.4018  0.0544 -0.6890
14638SOL    HW145591   4.354   1.282   1.804  0.7834  0.2845 -0.6551
14638SOL    HW245592   4.384   1.250   1.948 -3.0888 -0.2516  0.0875
14639SOL     OW45593   0.294   1.115   6.048 -0.5740 -0.7129  0.0740
14639SOL    HW145594   0.233   1.059   6.000 -0.6131 -1.5725  1.0856
14639SOL    HW245595   0.241   1.186   6.082 -0.9994 -1.3586  0.7907
14640SOL     OW45596   3.900   0.143   3.773  0.0020 -0.3177  0.4685
14640SOL    HW145597   3.877   0.168   3.684 -1.1467  0.3752  0.9577
14640SOL    HW245598   3.988   0.178   3.786 -0.2890  0.5864  0.0140
14641SOL     OW45599   6.259   0.859   5.024 -0.0811 -0.0433 -0.3958
14641SOL    HW145600   6.236   0.853   4.932  1.0604 -0.0939 -0.6871
14641SOL    HW245601   6.225   0.944   5.052 -0.4800 -0.0516 -0.8475
14642SOL     OW45602   0.887   1.890   0.545 -0.1590  0.8823  0.4507
14642SOL    HW145603   0.814   1.831   0.564  0.2418 -0.3744 -1.7518
14642SOL    HW245604   0.845   1.973   0.522 -0.9691 -0.0091 -1.4341
14643SOL     OW45605   3.730   6.162   5.384  0.3794  0.6815 -0.1146
14643SOL    HW145606   3.693   6.174   5.297 -1.4652  2.5670  0.8836
14643SOL    HW245607   3.798   6.096   5.373  0.9004  1.6875 -3.1642
14644SOL     OW45608   3.246   9.217   9.137  0.3517 -0.7758 -0.4321
14644SOL    HW145609   3.274   9.236   9.227  1.3297 -0.4650 -0.8027
14644SOL    HW245610   3.161   9.261   9.129  1.3291  1.1532 -0.4048
14645SOL     OW45611   0.762   5.413   4.398  0.1063 -0.3230  0.1014
14645SOL    HW145612   0.723   5.430   4.484  2.8031  1.3411  1.0595
14645SOL    HW245613   0.850   5.451   4.404 -0.2942  1.4283 -4.0026
14646SOL     OW45614   5.873   1.097   2.423 -0.1551  0.2075  0.4525
14646SOL    HW145615   5.868   1.009   2.387 -0.3720  0.9656 -1.4198
14646SOL    HW245616   5.822   1.093   2.504  1.5388 -1.8732  1.4358
14647SOL     OW45617   0.659   6.822   2.035  0.0200 -0.3646 -0.0326
14647SOL    HW145618   0.721   6.750   2.048 -1.7318 -1.7551  0.8842
14647SOL    HW245619   0.709   6.901   2.054  1.6195 -1.4278  0.2681
14648SOL     OW45620   8.971   0.143   3.277  0.3061 -0.0184  0.0107
14648SOL    HW145621   8.896   0.121   3.332  1.6140 -1.2366  1.3608
14648SOL    HW245622   8.980   0.238   3.286  1.4893 -0.3704  3.2690
14649SOL     OW45623   6.241   0.314   7.990  0.3759  0.1681 -0.1917
14649SOL    HW145624   6.211   0.256   7.920 -0.5813 -1.7265  1.7169
14649SOL    HW245625   6.325   0.277   8.017 -0.3970 -0.5943  1.2680
14650SOL     OW45626   4.527   0.823   9.287 -0.0861 -0.3676 -0.3036
14650SOL    HW145627   4.592   0.889   9.264 -0.8483  0.0794 -1.1912
14650SOL    HW245628   4.458   0.871   9.332  0.0408 -0.7985  0.3683
14651SOL     OW45629   3.408   4.817   4.491  0.0419  0.0446 -0.6011
14651SOL    HW145630   3.457   4.890   4.527  1.0427 -0.8636 -0.0888
14651SOL    HW245631   3.423   4.744   4.552 -0.8539 -0.6195 -1.1457
14652SOL     OW45632   1.805   3.910   5.939 -0.0407 -0.0261  0.7158
14652SOL    HW145633   1.896   3.892   5.963 -0.3380  0.1615  2.0442
14652SOL    HW245634   1.788   3.997   5.974 -0.1652  0.7579 -1.2101
14653SOL     OW45635   8.919   4.112   0.993 -0.5942 -0.5570 -0.0529
14653SOL    HW145636   8.902   4.018   1.007  1.1310 -0.9498 -0.4672
14653SOL    HW245637   8.968   4.116   0.911  0.1878  0.6185  0.4572
14654SOL     OW45638   4.146   1.065   6.256 -1.4159  0.2191  0.1047
14654SOL    HW145639   4.198   0.990   6.229 -1.7356 -0.2502  0.7950
14654SOL    HW245640   4.126   1.111   6.174 -0.7764 -0.1503 -0.2623
14655SOL     OW45641   7.647   4.856   2.379 -0.5471 -0.5369 -0.0744
14655SOL    HW145642   7.569   4.804   2.356 -1.4624  0.3440  0.9999
14655SOL    HW245643   7.612   4.933   2.423  0.9576 -0.1916  0.5392
14656SOL     OW45644   2.259   3.406   1.543 -0.3814 -0.4199  0.0096
14656SOL    HW145645   2.354   3.411   1.556  0.0028 -2.4467 -1.6829
14656SOL    HW245646   2.230   3.341   1.607 -0.2505 -1.5279 -1.0275
14657SOL     OW45647   8.890   1.223   6.384  0.2419  0.2501  0.2976
14657SOL    HW145648   8.845   1.268   6.312 -1.1474 -1.8165 -0.1900
14657SOL    HW245649   8.982   1.220   6.357  0.1618  1.6760 -0.2040
14658SOL     OW45650   1.334   4.693   7.244 -0.1742 -0.2389 -0.1673
14658SOL    HW145651   1.240   4.689   7.224  0.0510  0.2018 -1.3463
14658SOL    HW245652   1.356   4.786   7.233  0.5219 -0.4448 -0.4938
14659SOL     OW45653   8.280   8.039   3.000  0.2387  0.1796 -0.1262
14659SOL    HW145654   8.191   8.059   2.971 -0.8927 -1.5503  1.9729
14659SOL    HW245655   8.297   8.103   3.069  0.2270 -0.1400  0.1737
14660SOL     OW45656   6.316   4.341   2.676  0.3870 -0.5213  0.0450
14660SOL    HW145657   6.368   4.262   2.693  0.4479 -0.6695 -0.8404
14660SOL    HW245658   6.378   4.402   2.635  0.1861 -0.2351  0.1682
14661SOL     OW45659   3.016   1.675   2.801 -0.1157  0.1566  0.4226
14661SOL    HW145660   3.014   1.581   2.818  0.8243  0.2825  1.2810
14661SOL    HW245661   3.071   1.685   2.724  1.0441  0.1250  1.2389
14662SOL     OW45662   5.507   8.441   0.901  0.2284  0.2020 -0.2378
14662SOL    HW145663   5.528   8.428   0.809  2.9377  1.6336  0.1196
14662SOL    HW245664   5.455   8.521   0.903  0.6027  0.4523 -0.4848
14663SOL     OW45665   1.575   0.902   1.364  1.3113 -0.5175  0.1590
14663SOL    HW145666   1.552   0.817   1.400 -2.4873  0.0638 -0.6818
14663SOL    HW245667   1.585   0.887   1.270  0.4770 -0.0323 -0.0158
14664SOL     OW45668   3.484   8.376   6.055  0.1059  0.3635 -0.7334
14664SOL    HW145669   3.539   8.387   6.134 -1.1302 -1.5704  0.4306
14664SOL    HW245670   3.483   8.463   6.015  3.1818  0.7085 -0.2427
14665SOL     OW45671   8.803   4.188   4.293 -0.1603  0.2478  0.0883
14665SOL    HW145672   8.885   4.188   4.243  1.0954 -0.0751  2.1203
14665SOL    HW245673   8.735   4.193   4.226  1.5008  0.2454 -1.6473
14666SOL     OW45674   4.698   1.290   4.605 -0.1742 -0.3866  0.0480
14666SOL    HW145675   4.610   1.323   4.624 -1.0538 -1.1748 -2.5050
14666SOL    HW245676   4.716   1.230   4.677 -1.6813 -0.1310  0.6750
14667SOL     OW45677   6.418   1.607   8.281 -0.3849 -0.3748  0.1015
14667SOL    HW145678   6.511   1.585   8.288 -0.5050 -0.5602  1.1523
14667SOL    HW245679   6.417   1.699   8.256  0.0944 -0.7857 -1.4959
14668SOL     OW45680   3.439   1.708   1.193  0.6243  0.0203  0.9739
14668SOL    HW145681   3.534   1.707   1.198  0.5546 -1.4306  2.0518
14668SOL    HW245682   3.416   1.626   1.149 -0.1676  0.0480  1.3344
14669SOL     OW45683   2.970   4.691   1.532  0.1088 -0.0133 -0.5521
14669SOL    HW145684   3.034   4.745   1.579 -0.8180 -0.6929  1.5299
14669SOL    HW245685   3.023   4.640   1.470  1.5640 -0.3515  0.9351
14670SOL     OW45686   0.439   7.433   2.566 -0.0462 -0.0656 -0.1420
14670SOL    HW145687   0.477   7.459   2.482 -0.1838 -1.2990 -0.5944
14670SOL    HW245688   0.396   7.513   2.598  1.0100  0.7400 -0.6692
14671SOL     OW45689   6.768   2.591   1.122  0.4148 -0.3874 -0.1625
14671SOL    HW145690   6.787   2.608   1.214 -1.6980 -2.1217  0.6404
14671SOL    HW245691   6.768   2.495   1.115  0.9308 -0.2682 -2.0432
14672SOL     OW45692   8.644   0.939   5.275 -0.2200  0.0657  0.5299
14672SOL    HW145693   8.556   0.933   5.311 -0.6942  1.7682 -0.2880
14672SOL    HW245694   8.691   0.997   5.335 -0.3453  1.0385 -0.3000
14673SOL     OW45695   2.381   9.169   0.917  0.0013 -0.1792 -0.0119
14673SOL    HW145696   2.448   9.193   0.981  0.4290 -2.2119  0.3306
14673SOL    HW245697   2.318   9.242   0.921  0.7472  0.4128  1.6772
14674SOL     OW45698   7.422   5.284   1.915  0.3992 -0.3273 -0.3216
14674SOL    HW145699   7.350   5.302   1.854 -2.3386 -0.4195  2.7679
14674SOL    HW245700   7.409   5.194   1.942  0.8238  0.0946  1.3444
14675SOL     OW45701   3.146   7.740   0.685  0.0660 -0.0141 -0.0274
14675SOL    HW145702   3.235   7.752   0.652  0.5047  1.0603  1.4903
14675SOL    HW245703   3.097   7.704   0.611  0.8821  2.8155 -2.0605
14676SOL     OW45704   8.530   2.616   7.132  0.0531  0.0004 -0.7318
14676SOL    HW145705   8.564   2.688   7.080 -1.7144 -0.0974 -2.0985
14676SOL    HW245706   8.599   2.550   7.131  1.3292  1.3137 -0.1906
14677SOL     OW45707   1.002   8.814   4.850 -0.0505 -0.1922 -0.4595
14677SOL    HW145708   0.941   8.764   4.795 -0.4648  0.3544 -0.5001
14677SOL    HW245709   0.950   8.841   4.926 -0.6663  2.6889 -1.8332
14678SOL     OW45710   4.745   6.794   4.891 -0.4948 -0.2016 -0.0602
14678SOL    HW145711   4.762   6.706   4.924  1.7428  0.8911  1.8212
14678SOL    HW245712   4.825   6.818   4.845 -0.6928  1.2259  0.3277
14679SOL     OW45713   4.816   7.056   3.175 -0.6373 -0.1563  0.6907
14679SOL    HW145714   4.752   6.985   3.186  0.8866 -1.5545  0.7778
14679SOL    HW245715   4.763   7.135   3.167 -2.3401 -1.0382  2.6537
14680SOL     OW45716   0.804   8.062   8.492 -0.0756  0.1060  0.2019
14680SOL    HW145717   0.780   8.154   8.499  0.2007  0.3756 -1.8186
14680SOL    HW245718   0.841   8.054   8.403  0.4647 -1.8134  0.5690
14681SOL     OW45719   7.004   4.156   0.095 -0.2947 -0.5203  0.0283
14681SOL    HW145720   6.920   4.184   0.061  0.3810  0.0929 -1.1650
14681SOL    HW245721   7.030   4.226   0.155 -0.1820 -0.2325 -0.3550
14682SOL     OW45722   4.443   7.195   4.821 -0.1336  0.4505 -0.0140
14682SOL    HW145723   4.419   7.210   4.729  1.1465 -0.4099 -0.4962
14682SOL    HW245724   4.473   7.105   4.824  0.2242  0.6016  1.1836
14683SOL     OW45725   3.162   6.226   7.783  0.2110 -0.1417  0.6382
14683SOL    HW145726   3.220   6.206   7.857  0.3859 -0.3542  0.4462
14683SOL    HW245727   3.216   6.281   7.726 -0.1197  0.5170  0.9536
14684SOL     OW45728   7.515   2.033   8.807 -0.4326  0.1475 -0.3648
14684SOL    HW145729   7.491   1.969   8.874 -1.3094  0.1287 -0.6911
14684SOL    HW245730   7.505   1.986   8.724  0.4152  0.2448 -0.5286
14685SOL     OW45731   4.483   1.531   6.727 -0.3627 -0.5954  0.0147
14685SOL    HW145732   4.480   1.504   6.635  1.2361  1.7677 -0.7941
14685SOL    HW245733   4.575   1.520   6.752 -1.1301 -3.0107  1.9399
14686SOL     OW45734   8.341   0.422   0.923  0.2579 -0.4190 -0.1616
14686SOL    HW145735   8.330   0.465   0.838 -1.7391 -0.6325 -0.0172
14686SOL    HW245736   8.426   0.378   0.917  0.3618  0.0018 -1.8481
14687SOL     OW45737   4.121   6.415   0.344 -0.6092 -0.2962 -0.5711
14687SOL    HW145738   4.104   6.363   0.265 -0.9369 -1.2512  0.1111
14687SOL    HW245739   4.215   6.408   0.357 -0.8497 -2.0359  0.3896
14688SOL     OW45740   1.814   1.475   2.142  0.6049 -0.9350 -0.0525
14688SOL    HW145741   1.832   1.519   2.059  1.2436 -0.9561  0.0740
14688SOL    HW245742   1.723   1.447   2.135 -0.5595  2.4808  0.8087
14689SOL     OW45743   4.190   1.939   1.092 -0.2929  0.9636 -0.2432
14689SOL    HW145744   4.239   1.858   1.081  1.0693  1.6852  0.4559
14689SOL    HW245745   4.253   2.008   1.072 -1.5976  1.8518 -1.4221
14690SOL     OW45746   1.003   5.642   4.539  0.4611 -0.4350  0.5604
14690SOL    HW145747   1.076   5.650   4.478  0.1561  1.3834  0.4125
14690SOL    HW245748   1.043   5.620   4.623  1.0702 -0.6734  0.2088
14691SOL     OW45749   8.602   5.115   4.507  0.1796 -0.0958  0.6083
14691SOL    HW145750   8.520   5.164   4.516  0.3862  0.6144 -1.0901
14691SOL    HW245751   8.589   5.036   4.559 -0.8767  0.8817  1.8633
14692SOL     OW45752   4.136   2.044   1.699  0.3916  0.0353  0.2844
14692SOL    HW145753   4.118   2.127   1.745  1.3016  0.2835  0.1894
14692SOL    HW245754   4.221   2.016   1.732  0.7686 -0.1030 -0.7966
14693SOL     OW45755   3.247   0.424   8.603 -0.7437 -0.2994 -0.3067
14693SOL    HW145756   3.275   0.503   8.556 -1.6282  0.5949  0.6694
14693SOL    HW245757   3.157   0.409   8.574 -0.7299 -0.7006 -0.1425
14694SOL     OW45758   8.170   1.198   3.142 -0.0951 -0.1381 -0.1284
14694SOL    HW145759   8.087   1.209   3.188 -0.8389 -1.9280 -0.9916
14694SOL    HW245760   8.145   1.166   3.055  1.5836 -2.8243  0.3193
14695SOL     OW45761   4.469   4.815   7.116 -0.0392  0.5112  0.4064
14695SOL    HW145762   4.392   4.759   7.113  0.4085 -0.1110  0.5688
14695SOL    HW245763   4.531   4.775   7.055 -0.6954  2.2990 -1.5390
14696SOL     OW45764   3.694   6.064   8.949  0.0312 -0.4503 -0.2934
14696SOL    HW145765   3.672   6.103   9.033 -0.2135 -0.1565 -0.4937
14696SOL    HW245766   3.675   5.971   8.960  0.6727 -0.5312  0.2046
14697SOL     OW45767   1.915   1.723   1.995  0.0507  0.3035 -0.6160
14697SOL    HW145768   1.844   1.744   1.934  1.1634  1.2702 -1.5976
14697SOL    HW245769   1.964   1.805   2.004  0.8913 -0.2850  0.2432
14698SOL     OW45770   9.096   6.603   1.841 -0.1800  1.2586 -0.4200
14698SOL    HW145771   9.145   6.520   1.845 -0.0541  1.4190  1.9790
14698SOL    HW245772   9.018   6.587   1.894 -1.7031  1.7064 -2.4900
14699SOL     OW45773   4.797   6.694   2.945  0.5089 -0.1781  0.3073
14699SOL    HW145774   4.749   6.760   2.996 -0.4801 -1.7092  1.3862
14699SOL    HW245775   4.735   6.668   2.876  0.3623 -0.9960  0.7415
14700SOL     OW45776   1.051   4.626   5.986 -0.1107  0.3657 -0.2815
14700SOL    HW145777   1.057   4.720   6.000  0.9547  0.2118  0.4075
14700SOL    HW245778   1.053   4.616   5.891 -0.1820  1.0341 -0.3558
14701SOL     OW45779   3.510   5.560   7.841 -0.1022 -0.5139  0.0329
14701SOL    HW145780   3.602   5.535   7.850 -0.0768  0.1808  1.7633
14701SOL    HW245781   3.510   5.632   7.779  0.7170  0.6188  1.3374
14702SOL     OW45782   8.738   4.572   1.068  0.4735 -0.1249 -0.5481
14702SOL    HW145783   8.774   4.659   1.085 -0.3340  0.3791 -1.3396
14702SOL    HW245784   8.731   4.532   1.155 -2.9198  2.1447  0.3719
14703SOL     OW45785   5.554   9.062   2.434 -0.2468 -0.0076 -0.4975
14703SOL    HW145786   5.525   9.141   2.389  0.9453 -0.5771 -2.3234
14703SOL    HW245787   5.475   9.028   2.476 -1.1245  1.2520 -1.1063
14704SOL     OW45788   4.861   5.214   3.911 -0.2883  0.1180  0.1430
14704SOL    HW145789   4.899   5.143   3.962 -2.6069 -0.3067  1.3610
14704SOL    HW245790   4.854   5.179   3.822  0.6435 -0.3676  0.2605
14705SOL     OW45791   7.153   5.546   2.550 -0.1224  0.4244  0.0715
14705SOL    HW145792   7.138   5.558   2.644  0.2634 -0.7699  0.2885
14705SOL    HW245793   7.088   5.603   2.508 -1.6585 -0.5799  1.0404
14706SOL     OW45794   1.392   3.545   5.706  0.2909  0.2795  0.0562
14706SOL    HW145795   1.354   3.560   5.793 -0.7145 -1.1052 -0.1320
14706SOL    HW245796   1.472   3.496   5.724 -0.2481 -0.5673  0.1620
14707SOL     OW45797   0.966   1.343   5.320  0.1216  0.1480  0.0671
14707SOL    HW145798   0.880   1.351   5.361 -1.3897 -1.1991 -2.6231
14707SOL    HW245799   0.970   1.416   5.258  0.1329 -0.8035 -1.0778
14708SOL     OW45800   4.447   0.197   3.783 -0.2827  0.5574 -0.0403
14708SOL    HW145801   4.395   0.117   3.778 -0.2284  0.4696  0.6504
14708SOL    HW245802   4.538   0.167   3.787 -0.3364  0.5646  1.8793
14709SOL     OW45803   0.422   7.001   4.283  0.5929 -0.5802  0.4171
14709SOL    HW145804   0.339   6.980   4.325  0.1429  1.4503  0.6195
14709SOL    HW245805   0.457   7.074   4.335 -0.1031  2.1747 -2.7895
14710SOL     OW45806   6.406   1.763   3.548 -0.1426 -0.0798 -0.2171
14710SOL    HW145807   6.454   1.717   3.617  0.2535  0.4183 -0.1588
14710SOL    HW245808   6.344   1.698   3.515 -0.3663 -0.3019  0.6393
14711SOL     OW45809   4.096   8.776   0.955  0.0642 -0.0833  0.0432
14711SOL    HW145810   4.034   8.800   1.023 -0.6837  0.2090 -0.7356
14711SOL    HW245811   4.099   8.851   0.897  0.8557 -0.2518 -0.1455
14712SOL     OW45812   3.658   6.602   0.073  0.0792 -0.4171  0.3194
14712SOL    HW145813   3.612   6.557   0.002 -0.8835 -0.5886  1.0443
14712SOL    HW245814   3.668   6.693   0.042  0.1622 -0.6195 -0.2568
14713SOL     OW45815   2.378   0.112   5.961  0.1677  0.2597 -0.3751
14713SOL    HW145816   2.441   0.122   6.032  0.9339  1.8621 -1.2576
14713SOL    HW245817   2.321   0.040   5.990  1.5905 -0.3518  1.0046
14714SOL     OW45818   3.020   6.965   9.073 -0.1665  0.0897  0.0081
14714SOL    HW145819   3.000   6.932   8.985 -1.3613  0.4400  0.1422
14714SOL    HW245820   2.942   6.945   9.124  0.9183 -1.0736  1.2778
14715SOL     OW45821   1.081   2.444   6.555 -0.2229 -0.6267 -0.2282
14715SOL    HW145822   1.040   2.406   6.632  2.3364  0.5849  1.7920
14715SOL    HW245823   1.114   2.369   6.505 -0.1843 -1.3290  0.8487
14716SOL     OW45824   7.827   3.219   0.129  0.1012 -0.2340 -0.4053
14716SOL    HW145825   7.806   3.167   0.207  1.8539 -0.1679  0.1159
14716SOL    HW245826   7.853   3.154   0.063  0.2286 -0.1706 -0.4174
14717SOL     OW45827   7.222   6.750   1.437  0.5032 -0.0090 -0.0059
14717SOL    HW145828   7.231   6.837   1.396 -0.5561  0.3440  0.4825
14717SOL    HW245829   7.160   6.764   1.508  0.1227 -1.2268 -0.0864
14718SOL     OW45830   7.138   7.962   0.906  0.2368  0.2603  0.3471
14718SOL    HW145831   7.066   8.024   0.915  0.9064  1.4283 -1.9248
14718SOL    HW245832   7.155   7.932   0.996 -0.5274  2.8739  1.4184
14719SOL     OW45833   1.414   2.965   2.523 -0.7628  0.0043  0.5555
14719SOL    HW145834   1.375   2.941   2.439 -1.7780  0.3940  0.9066
14719SOL    HW245835   1.367   3.044   2.549  2.2257  2.2075 -0.4155
14720SOL     OW45836   4.791   6.686   7.029  0.2951  0.3857  0.0973
14720SOL    HW145837   4.885   6.704   7.029  0.3419  0.2230 -1.1337
14720SOL    HW245838   4.780   6.619   6.961 -1.1023  2.5739 -1.9312
14721SOL     OW45839   4.835   0.060   6.317  0.0811  0.1999  0.0194
14721SOL    HW145840   4.926   0.031   6.329 -0.1403 -0.5755 -0.1144
14721SOL    HW245841   4.842   0.140   6.265  0.7509  0.7466  0.9352
14722SOL     OW45842   9.123   2.583   6.888  0.9048 -0.0558 -0.0975
14722SOL    HW145843   9.166   2.625   6.814  1.9772  0.8473  1.0184
14722SOL    HW245844   9.053   2.531   6.849  1.3291  0.5719 -1.7205
14723SOL     OW45845   3.009   6.122   3.489 -0.0578  0.1855  0.2080
14723SOL    HW145846   2.960   6.133   3.570 -0.4509 -0.5244  0.0694
14723SOL    HW245847   3.000   6.029   3.467  0.3093  0.3054 -0.4786
14724SOL     OW45848   4.530   8.408   9.259  0.1277 -0.8315 -0.0517
14724SOL    HW145849   4.437   8.393   9.245 -0.3364  0.8154  1.1604
14724SOL    HW245850   4.556   8.467   9.187  0.5365 -2.3031 -1.1301
14725SOL     OW45851   2.067   7.631   7.780  0.0033  0.1271 -0.6114
14725SOL    HW145852   2.099   7.594   7.698 -1.1092  1.6420 -1.7531
14725SOL    HW245853   2.100   7.721   7.780  1.1651 -0.2537  1.2826
14726SOL     OW45854   3.075   5.258   9.008 -0.1988  0.3391 -0.0774
14726SOL    HW145855   2.992   5.221   8.980 -1.0946  2.9554 -1.0487
14726SOL    HW245856   3.075   5.246   9.103 -2.0135  0.9081  0.0159
14727SOL     OW45857   6.412   0.059   6.341  0.2685 -0.2098  0.5246
14727SOL    HW145858   6.454   0.068   6.426  0.7673  1.4040  0.1195
14727SOL    HW245859   6.464  -0.007   6.295 -0.1732 -1.2973  1.5554
14728SOL     OW45860   0.722   8.006   4.078  0.5118  0.3045  0.4463
14728SOL    HW145861   0.798   7.973   4.127  0.3580 -0.4053  0.2228
14728SOL    HW245862   0.730   8.101   4.081  2.3610  0.2279 -1.0190
14729SOL     OW45863   4.431   6.264   8.754  0.0095  0.3908  0.0156
14729SOL    HW145864   4.480   6.222   8.683 -1.6866 -0.0791 -0.8855
14729SOL    HW245865   4.369   6.322   8.710 -0.2873  0.9498  1.1554
14730SOL     OW45866   3.978   9.281   9.172 -0.6878  0.3026 -0.1890
14730SOL    HW145867   3.943   9.200   9.135  0.0283 -0.6908  1.2496
14730SOL    HW245868   4.052   9.253   9.226 -0.7799  1.8594  0.7958
14731SOL     OW45869   1.012   2.800   6.254 -0.1054  0.3236  0.1030
14731SOL    HW145870   1.091   2.746   6.245  0.7720  1.8463 -1.5139
14731SOL    HW245871   0.959   2.754   6.320  2.0347 -0.8144  1.0662
14732SOL     OW45872   5.334   2.188   1.278  0.4818  0.5239  0.0569
14732SOL    HW145873   5.306   2.279   1.290  0.9636  0.5897  0.7747
14732SOL    HW245874   5.405   2.192   1.214 -0.4634  0.4744 -1.0117
14733SOL     OW45875   4.904   4.080   1.902 -0.6163  0.2402  0.9248
14733SOL    HW145876   4.896   4.156   1.961 -0.0250  0.3708  0.8431
14733SOL    HW245877   4.956   4.017   1.952 -0.1672  0.3258  0.5697
14734SOL     OW45878   9.072   4.902   6.475 -0.0919 -0.3241  0.0562
14734SOL    HW145879   9.098   4.994   6.471 -1.3453 -0.0272 -2.3328
14734SOL    HW245880   9.145   4.858   6.517  1.8079  1.3346 -1.4375
14735SOL     OW45881   5.067   6.420   0.366 -0.0483  0.1909  0.0155
14735SOL    HW145882   5.133   6.431   0.435 -1.0380  2.0536  0.7129
14735SOL    HW245883   5.114   6.376   0.295  2.0732  1.8076  0.3446
14736SOL     OW45884   6.868   7.222   0.067 -0.2231 -0.5869 -0.3898
14736SOL    HW145885   6.867   7.317   0.057 -1.2112 -0.2412  2.3782
14736SOL    HW245886   6.961   7.198   0.060  0.0608  0.5981 -0.8576
14737SOL     OW45887   3.640   7.331   0.800  0.0911  0.3158 -0.2532
14737SOL    HW145888   3.646   7.247   0.753 -2.6485  0.2649 -0.5590
14737SOL    HW245889   3.633   7.397   0.731 -1.0852  0.4984  0.0374
14738SOL     OW45890   1.409   3.281   6.457 -0.2032  0.5103 -0.2016
14738SOL    HW145891   1.342   3.268   6.523  0.0623  1.5481  0.2754
14738SOL    HW245892   1.481   3.223   6.484  0.5111  2.0688  1.2635
14739SOL     OW45893   6.365   8.050   3.170 -0.5226 -0.5556  0.4059
14739SOL    HW145894   6.371   7.994   3.248 -0.7451  0.8185  1.4202
14739SOL    HW245895   6.347   7.989   3.099 -1.5925 -1.6976  1.6198
14740SOL     OW45896   4.145   4.622   2.392 -0.1638 -0.2269  1.0191
14740SOL    HW145897   4.124   4.714   2.374 -0.0798 -0.0420  1.8399
14740SOL    HW245898   4.106   4.574   2.319  0.2020  0.5029  0.3437
14741SOL     OW45899   2.099   3.570   7.026 -0.0923 -0.3525  0.0333
14741SOL    HW145900   2.179   3.612   7.057  1.4390 -0.8777 -3.0613
14741SOL    HW245901   2.104   3.576   6.931 -2.9623 -1.8375 -0.2472
14742SOL     OW45902   0.287   0.519   1.329 -0.3180 -0.3349 -0.1166
14742SOL    HW145903   0.215   0.519   1.392  0.4428 -2.2460  0.7723
14742SOL    HW245904   0.345   0.589   1.359 -0.0204 -1.1499  1.2687
14743SOL     OW45905   0.764   6.951   4.852  0.0425 -0.3026  0.0512
14743SOL    HW145906   0.687   6.894   4.856 -0.5175  0.5613  1.9333
14743SOL    HW245907   0.732   7.031   4.811  0.1951 -0.3342 -0.1293
14744SOL     OW45908   8.808   3.530   2.516 -0.0188 -0.0529  0.1598
14744SOL    HW145909   8.901   3.553   2.512  0.5497 -2.4669 -1.0736
14744SOL    HW245910   8.762   3.615   2.512  2.0811  1.0745 -0.8178
14745SOL     OW45911   2.835   0.924   1.522 -0.0759 -0.5578  0.2081
14745SOL    HW145912   2.749   0.889   1.498  1.0661 -2.2575 -1.4960
14745SOL    HW245913   2.827   0.946   1.615 -2.5898  0.0424 -0.1190
14746SOL     OW45914   5.135   5.602   6.041 -0.0072  0.7471  0.4234
14746SOL    HW145915   5.127   5.687   5.998  0.7262  1.0673  0.9111
14746SOL    HW245916   5.123   5.538   5.971 -1.1056  1.2413  0.1490
14747SOL     OW45917   1.676   0.254   5.622  0.0943  0.6877 -0.0846
14747SOL    HW145918   1.704   0.304   5.699  1.3733 -0.1386  0.0071
14747SOL    HW245919   1.669   0.319   5.552  0.0450  1.2635  0.4526
14748SOL     OW45920   1.264   1.197   4.894  0.3032 -0.0271  0.0734
14748SOL    HW145921   1.271   1.286   4.859  0.0495 -0.1581 -0.3150
14748SOL    HW245922   1.354   1.173   4.915  0.1167  1.2488  2.5120
14749SOL     OW45923   2.340   4.429   1.570 -0.3208  0.5965  0.4400
14749SOL    HW145924   2.395   4.497   1.532 -0.6752  1.6853  1.8361
14749SOL    HW245925   2.392   4.393   1.642 -0.8685  0.6374  0.8564
14750SOL     OW45926   2.395   2.029   8.113 -0.1997 -0.2533 -0.1580
14750SOL    HW145927   2.348   1.946   8.102 -0.3092  0.1825 -3.2836
14750SOL    HW245928   2.341   2.078   8.175 -1.2620 -1.6726  0.0792
14751SOL     OW45929   3.673   8.761   6.797  0.2361 -0.0090 -0.6485
14751SOL    HW145930   3.603   8.756   6.862 -0.6414 -1.1253 -1.6438
14751SOL    HW245931   3.644   8.830   6.736  1.8347  2.1826  1.0085
14752SOL     OW45932   5.202   0.248   3.239 -0.6341  0.1137 -0.6991
14752SOL    HW145933   5.259   0.279   3.309 -1.1580 -0.7161  0.1126
14752SOL    HW245934   5.254   0.182   3.193  0.2112  1.6544 -1.9672
14753SOL     OW45935   1.712   6.218   9.002 -0.1206 -0.3077  0.1707
14753SOL    HW145936   1.774   6.240   9.072  0.6078  0.0928 -0.5920
14753SOL    HW245937   1.630   6.260   9.029  1.1855  3.3453 -1.1622
14754SOL     OW45938   6.749   8.088   8.974 -0.4273 -0.5820 -0.0815
14754SOL    HW145939   6.661   8.062   8.947 -0.9757  0.3584  0.7954
14754SOL    HW245940   6.751   8.072   9.068  0.2088 -0.1818 -0.0245
14755SOL     OW45941   7.571   6.794   4.659  0.0691 -0.6310  0.2764
14755SOL    HW145942   7.637   6.814   4.726  0.1792 -0.9650  0.2749
14755SOL    HW245943   7.489   6.784   4.708  0.0201 -0.2105  0.2782
14756SOL     OW45944   0.225   1.973   7.935 -0.0420  0.1979  0.0283
14756SOL    HW145945   0.133   1.957   7.916  0.1303 -1.4871  0.5101
14756SOL    HW245946   0.272   1.921   7.869  0.5620  0.6457  0.1014
14757SOL     OW45947   6.202   2.767   5.849  0.3500  0.1475 -0.1421
14757SOL    HW145948   6.160   2.697   5.898 -1.9516  3.0058  2.1708
14757SOL    HW245949   6.148   2.776   5.770  1.1605 -1.2134 -0.8666
14758SOL     OW45950   2.171   4.618   0.830 -0.5358  0.5726  0.1482
14758SOL    HW145951   2.120   4.599   0.909 -1.0121 -1.4606 -0.6310
14758SOL    HW245952   2.122   4.687   0.786 -0.9641  0.7999  0.9662
14759SOL     OW45953   7.459   4.267   4.689 -0.0947 -0.4235  0.0190
14759SOL    HW145954   7.420   4.277   4.602 -1.3095  1.7985  0.7692
14759SOL    HW245955   7.438   4.177   4.715 -1.8406 -0.3268 -0.9898
14760SOL     OW45956   4.123   0.022   0.902  0.1855  0.2777 -0.5951
14760SOL    HW145957   4.072   0.101   0.886 -1.4908 -0.8227 -0.7332
14760SOL    HW245958   4.171   0.040   0.983 -1.0979  0.9832  0.0224
14761SOL     OW45959   2.128   2.297   7.841  0.2735  0.1400 -0.2000
14761SOL    HW145960   2.136   2.368   7.777  0.3428  0.2586 -0.0624
14761SOL    HW245961   2.062   2.239   7.805 -0.2371  0.5982 -0.0175
14762SOL     OW45962   6.125   5.440   3.902  0.0045  0.4574 -0.0902
14762SOL    HW145963   6.147   5.510   3.963 -0.4434  1.5292 -1.1430
14762SOL    HW245964   6.191   5.447   3.833 -1.5376  1.5141 -1.5125
14763SOL     OW45965   0.395   6.238   5.158  0.2210  0.6852  0.6383
14763SOL    HW145966   0.355   6.221   5.072  3.2107 -1.3598 -0.4178
14763SOL    HW245967   0.431   6.327   5.150 -0.4173  0.9094  0.1468
14764SOL     OW45968   1.405   8.989   1.417  0.2317  0.6136 -0.0208
14764SOL    HW145969   1.340   9.053   1.446  1.9301  1.4261  2.0688
14764SOL    HW245970   1.467   9.040   1.365 -0.4632 -0.0561 -1.5335
14765SOL     OW45971   0.938   0.016   6.017  0.2098  0.4410 -0.7368
14765SOL    HW145972   0.872   0.004   5.949  0.4530  0.6166 -1.0104
14765SOL    HW245973   1.006   0.069   5.974  1.4909 -1.4421 -1.0930
14766SOL     OW45974   7.721   2.035   1.401  0.4378  0.0117  0.1942
14766SOL    HW145975   7.752   2.103   1.341  1.7196  2.6138  3.6458
14766SOL    HW245976   7.638   2.069   1.435 -0.8992 -2.0055 -0.9606
14767SOL     OW45977   6.836   0.210   3.380 -0.1190 -0.8182 -0.2218
14767SOL    HW145978   6.853   0.265   3.456 -1.6273 -1.1321  0.3758
14767SOL    HW245979   6.844   0.121   3.413  0.2162 -0.9546 -0.6706
14768SOL     OW45980   8.474   4.294   4.796  0.5233  0.7271  0.0831
14768SOL    HW145981   8.429   4.230   4.852 -1.3146  0.9043 -1.1731
14768SOL    HW245982   8.562   4.300   4.834 -0.3524  0.0634  2.3299
14769SOL     OW45983   0.453   2.203   1.236  0.1088  0.0328  0.0204
14769SOL    HW145984   0.470   2.173   1.147  1.5539  2.4767 -0.5681
14769SOL    HW245985   0.365   2.241   1.232  0.3470  0.5353 -0.4705
14770SOL     OW45986   0.121   1.007   5.163  0.3121  0.1929  0.1437
14770SOL    HW145987   0.160   1.012   5.250  0.7137  1.1293 -0.0788
14770SOL    HW245988   0.196   1.018   5.103  0.3671 -2.6099 -0.3559
14771SOL     OW45989   6.240   4.801   0.521 -0.1737 -0.3459 -0.1233
14771SOL    HW145990   6.262   4.869   0.585  0.4007 -1.4426  0.8650
14771SOL    HW245991   6.145   4.802   0.517 -0.1743  0.4900 -0.0943
14772SOL     OW45992   7.440   5.266   4.810 -0.5854 -0.2266 -0.0250
14772SOL    HW145993   7.431   5.174   4.787  0.2336  0.7209 -4.6097
14772SOL    HW245994   7.521   5.294   4.767 -1.3197  2.8615  0.4792
14773SOL     OW45995   8.363   9.041   5.086 -0.0076 -0.2572 -0.5977
14773SOL    HW145996   8.276   9.014   5.114 -0.5013  0.8819 -1.0030
14773SOL    HW245997   8.413   8.960   5.081 -0.1181 -0.5962  2.8184
14774SOL     OW45998   2.465   0.827   0.223  0.3922  0.0646 -0.4534
14774SOL    HW145999   2.493   0.871   0.143  0.7321 -0.5601 -0.6848
14774SOL    HW246000   2.504   0.877   0.293 -1.2310  1.5867 -0.5905
14775SOL     OW46001   4.511   4.936   3.225  0.7289  0.4409 -0.3991
14775SOL    HW146002   4.565   4.881   3.282  0.0315  0.5913  0.4249
14775SOL    HW246003   4.569   5.007   3.198  1.1522  0.2160 -0.0943
14776SOL     OW46004   0.485   4.622   8.934 -0.0194  1.1461 -0.0320
14776SOL    HW146005   0.521   4.631   8.846 -0.5332 -2.3591 -0.6711
14776SOL    HW246006   0.416   4.688   8.938 -0.2904  1.0738 -2.4324
14777SOL     OW46007   5.976   6.873   3.749 -0.7469 -0.3299  0.0778
14777SOL    HW146008   6.024   6.913   3.676  2.2118 -0.6139  1.7812
14777SOL    HW246009   5.987   6.779   3.736 -1.1699 -0.4071  0.2768
14778SOL     OW46010   0.140   7.975   7.143  0.0260  0.5575 -0.2007
14778SOL    HW146011   0.070   7.921   7.107  0.1710  0.2101  0.0436
14778SOL    HW246012   0.205   7.979   7.073  0.9125 -1.2179  0.4918
14779SOL     OW46013   4.491   5.211   0.543  0.0832 -0.0137  0.1346
14779SOL    HW146014   4.440   5.158   0.481  0.6157 -0.3572 -0.0156
14779SOL    HW246015   4.460   5.300   0.530 -0.4427 -0.2133  0.0067
14780SOL     OW46016   5.564   4.645   3.864  0.4611  1.2698 -0.3499
14780SOL    HW146017   5.632   4.599   3.814  0.0140  0.9486 -0.6574
14780SOL    HW246018   5.605   4.728   3.888  1.8461  0.1061  1.5629
14781SOL     OW46019   3.460   3.435   2.972 -0.1595  0.0816  0.3032
14781SOL    HW146020   3.436   3.453   3.063 -0.1064 -1.8768  0.7213
14781SOL    HW246021   3.501   3.516   2.942 -1.7105  1.3361  1.4774
14782SOL     OW46022   2.005   3.553   8.125  0.2033 -0.1896 -0.0245
14782SOL    HW146023   1.998   3.550   8.220  1.5317  0.2199  0.1028
14782SOL    HW246024   1.975   3.641   8.101  0.3704 -0.1060  0.0709
14783SOL     OW46025   4.029   0.577   1.126  0.0054  0.1910 -0.1611
14783SOL    HW146026   4.057   0.655   1.175  0.7233 -1.5373  2.2754
14783SOL    HW246027   3.938   0.595   1.102 -0.6652  0.7209  2.6360
14784SOL     OW46028   4.171   7.878   0.813  0.2237  0.4125  0.1451
14784SOL    HW146029   4.231   7.838   0.876 -1.9579  0.9014  2.5905
14784SOL    HW246030   4.085   7.841   0.833 -1.0192  2.7350 -0.6391
14785SOL     OW46031   1.024   4.004   0.054 -0.1285 -0.3831 -0.1869
14785SOL    HW146032   0.943   4.055   0.065  0.2188  0.2070 -0.3635
14785SOL    HW246033   1.080   4.058  -0.001  0.6465 -0.4936  0.4800
14786SOL     OW46034   6.298   3.830   4.193 -0.1323 -0.4957  0.4382
14786SOL    HW146035   6.302   3.757   4.131 -1.3073  2.0818 -2.8412
14786SOL    HW246036   6.204   3.849   4.201  0.1597  0.6456  1.2182
14787SOL     OW46037   0.544   3.221   6.867 -0.5974  0.5399 -0.1066
14787SOL    HW146038   0.457   3.181   6.873 -0.0583 -1.0332 -1.9939
14787SOL    HW246039   0.539   3.278   6.790  0.2646 -0.2128 -0.7354
14788SOL     OW46040   7.928   0.033   6.275  0.1039 -0.1060 -0.8966
14788SOL    HW146041   7.868  -0.041   6.271  0.0820 -0.1939  0.7439
14788SOL    HW246042   7.973   0.032   6.190  1.9186 -3.5581  0.0077
14789SOL     OW46043   5.429   6.989   7.458  0.1823 -0.4303  0.0073
14789SOL    HW146044   5.396   6.900   7.449  0.1554 -0.6691  2.2035
14789SOL    HW246045   5.480   6.988   7.539 -0.0575  1.6158  0.2175
14790SOL     OW46046   4.362   4.086   3.644  0.0853 -0.0520 -0.0618
14790SOL    HW146047   4.374   4.000   3.604  0.7209 -0.7675  1.6085
14790SOL    HW246048   4.451   4.117   3.661 -0.1339  1.0852 -0.9430
14791SOL     OW46049   6.899   7.474   2.967  0.2598 -0.1580  0.4089
14791SOL    HW146050   6.820   7.420   2.965 -0.2124  0.5294  0.6558
14791SOL    HW246051   6.955   7.436   2.898 -0.0554 -0.9759  0.5946
14792SOL     OW46052   5.665   8.174   5.682 -0.2646 -0.3263  0.0240
14792SOL    HW146053   5.724   8.214   5.619  0.0980 -3.1498 -1.5164
14792SOL    HW246054   5.666   8.233   5.757  3.0738  0.6259 -0.7160
14793SOL     OW46055   1.113   8.443   3.459  0.3124 -0.2600  0.1258
14793SOL    HW146056   1.048   8.374   3.469 -0.9899  0.9509  0.1242
14793SOL    HW246057   1.105   8.495   3.539 -0.4180  1.3146 -0.9603
14794SOL     OW46058   3.898   8.543   5.527 -0.0302 -0.2995  0.1380
14794SOL    HW146059   3.964   8.611   5.514  1.6515 -1.6552  1.4403
14794SOL    HW246060   3.864   8.525   5.439  0.6411  1.0844 -0.4187
14795SOL     OW46061   6.685   4.807   7.636 -0.7121 -0.2995  0.0757
14795SOL    HW146062   6.667   4.729   7.687 -0.5417 -1.6520 -1.8561
14795SOL    HW246063   6.728   4.774   7.557 -0.0293  1.8117 -0.4735
14796SOL     OW46064   0.745   8.283   8.635 -0.5185  0.4484 -1.0941
14796SOL    HW146065   0.689   8.355   8.605  0.4932  2.1860  1.0754
14796SOL    HW246066   0.834   8.321   8.635  0.0321 -0.8407 -0.0275
14797SOL     OW46067   7.736   7.376   4.716 -0.3159  0.2729 -0.0581
14797SOL    HW146068   7.642   7.390   4.726 -0.4162  0.1727 -0.8083
14797SOL    HW246069   7.771   7.380   4.805 -0.9634  0.7842  0.1728
14798SOL     OW46070   1.974   3.320   7.569  0.1830 -1.0368  0.1287
14798SOL    HW146071   1.980   3.366   7.653  3.0383 -1.0262 -0.0536
14798SOL    HW246072   2.060   3.280   7.557 -0.1655 -0.9803 -2.8281
14799SOL     OW46073   7.704   8.510   2.814  0.2332  0.3711  0.4639
14799SOL    HW146074   7.792   8.475   2.804  0.5482  0.9472  1.1493
14799SOL    HW246075   7.692   8.518   2.909 -1.1407 -1.1746  0.4407
14800SOL     OW46076   5.815   1.584   2.744 -1.1594 -0.4236  0.3697
14800SOL    HW146077   5.846   1.555   2.830  0.0223  1.0141  0.4514
14800SOL    HW246078   5.822   1.506   2.689 -0.8140 -1.0582  1.2812
14801SOL     OW46079   0.431   8.519   8.300  0.2108  0.1462 -0.4421
14801SOL    HW146080   0.439   8.560   8.214 -0.4968  1.2147 -0.0059
14801SOL    HW246081   0.401   8.430   8.282 -0.0238  0.3979 -1.2930
14802SOL     OW46082   7.808   3.494   2.631  0.3489  0.2580  0.0245
14802SOL    HW146083   7.791   3.435   2.558 -0.2422 -0.9323  1.0880
14802SOL    HW246084   7.751   3.461   2.701  0.2018  1.9519  0.7174
14803SOL     OW46085   7.780   7.045   2.444  0.0365  0.3458  0.1924
14803SOL    HW146086   7.787   7.007   2.532  1.0126  4.2302  1.8785
14803SOL    HW246087   7.860   7.095   2.433 -1.9559  3.4146 -1.1476
14804SOL     OW46088   8.261   3.751   3.060 -0.2591 -0.4751  0.2101
14804SOL    HW146089   8.277   3.664   3.097 -1.1865  0.0392  1.8627
14804SOL    HW246090   8.198   3.736   2.989 -0.9328 -1.0658  0.9237
14805SOL     OW46091   7.761   5.250   2.296  0.1786 -0.1110  0.1822
14805SOL    HW146092   7.721   5.325   2.254  0.4918  1.5857  2.7954
14805SOL    HW246093   7.688   5.202   2.335  0.2178  0.2250  0.6693
14806SOL     OW46094   0.280   6.743   7.066  0.7517 -0.1729 -0.6161
14806SOL    HW146095   0.216   6.761   7.135  0.5092 -0.0134 -0.8799
14806SOL    HW246096   0.328   6.825   7.055  2.4295 -0.8786  1.0345
14807SOL     OW46097   3.724   3.750   5.936  0.1747  0.1646 -0.2838
14807SOL    HW146098   3.730   3.846   5.929 -0.1718  0.1265 -1.1467
14807SOL    HW246099   3.700   3.721   5.848 -0.4716 -0.6580  0.1629
14808SOL     OW46100   0.353   7.527   2.057 -0.8201 -0.0722  0.1335
14808SOL    HW146101   0.383   7.582   2.129  1.5329 -0.7057 -0.3216
14808SOL    HW246102   0.333   7.442   2.098 -2.7239  0.5575  0.5488
14809SOL     OW46103   4.289   6.838   8.656 -0.2676 -0.7599  0.1723
14809SOL    HW146104   4.230   6.858   8.728  0.3949  1.4965  0.1145
14809SOL    HW246105   4.260   6.893   8.583  0.6971 -1.0685 -0.4662
14810SOL     OW46106   3.254   8.216   1.205 -0.6133 -0.5936  0.3041
14810SOL    HW146107   3.316   8.258   1.265 -1.1901  0.9934 -0.1781
14810SOL    HW246108   3.211   8.150   1.257  2.1245 -2.3712  0.4190
14811SOL     OW46109   0.967   4.902   5.717  0.0696  0.1525 -0.2904
14811SOL    HW146110   1.060   4.914   5.698  1.0431 -1.0743  3.1341
14811SOL    HW246111   0.946   4.972   5.778 -0.7962 -0.5614  0.2405
14812SOL     OW46112   0.440   5.147   1.735  0.0213  0.2788 -0.8642
14812SOL    HW146113   0.459   5.214   1.670 -1.1694  0.7940 -0.6901
14812SOL    HW246114   0.494   5.072   1.708 -0.0508  0.6686 -2.1242
14813SOL     OW46115   7.540   3.100   2.215  0.1364 -0.3014  0.0216
14813SOL    HW146116   7.528   3.084   2.121  2.2387 -1.7177 -0.0447
14813SOL    HW246117   7.536   3.196   2.224 -1.3560 -0.2279 -1.3081
14814SOL     OW46118   4.881   0.018   0.949  1.1024  0.3513 -0.4042
14814SOL    HW146119   4.881   0.101   0.902 -1.0201  0.4181 -0.3074
14814SOL    HW246120   4.839  -0.044   0.889  0.5331 -0.1128  0.4581
14815SOL     OW46121   2.427   3.638   1.285  0.1562 -0.3255 -0.8597
14815SOL    HW146122   2.382   3.609   1.206 -0.1736  0.1272 -0.8445
14815SOL    HW246123   2.443   3.731   1.270  1.3922 -0.5565 -1.0016
14816SOL     OW46124   0.638   5.702   8.378 -0.5747 -0.4455 -0.3222
14816SOL    HW146125   0.562   5.745   8.339 -1.3314 -1.2610  0.2426
14816SOL    HW246126   0.712   5.758   8.354 -1.3141  0.2195 -1.0874
14817SOL     OW46127   7.906   7.158   0.046 -0.2327  0.1081 -1.2984
14817SOL    HW146128   7.922   7.077  -0.002 -1.0363 -1.4316  0.9330
14817SOL    HW246129   7.826   7.194   0.007 -1.5570 -1.7573 -0.3776
14818SOL     OW46130   0.209   6.668   8.361  0.0155 -0.5794 -0.5249
14818SOL    HW146131   0.296   6.656   8.322  0.5645 -1.9385  1.0537
14818SOL    HW246132   0.216   6.628   8.447 -1.9052  0.1913  0.0095
14819SOL     OW46133   3.536   6.188   1.424 -0.0529 -0.0476 -0.7143
14819SOL    HW146134   3.496   6.269   1.393 -1.8368 -0.0409  1.4521
14819SOL    HW246135   3.566   6.209   1.513  1.3842 -1.1453 -0.9372
14820SOL     OW46136   0.617   7.788   4.443 -0.1519  0.2731 -0.7109
14820SOL    HW146137   0.606   7.745   4.528 -1.4957  0.8423 -0.5882
14820SOL    HW246138   0.558   7.740   4.384 -1.0365  1.4164 -0.7606
14821SOL     OW46139   9.205   2.937   8.770 -0.0021  0.7837 -0.2511
14821SOL    HW146140   9.193   2.900   8.683  0.3728  1.8406 -0.7575
14821SOL    HW246141   9.134   3.000   8.780 -2.3012 -1.9755  1.6947
14822SOL     OW46142   4.869   8.779   3.741  0.0574 -0.2697 -0.1511
14822SOL    HW146143   4.927   8.851   3.715 -0.0180 -0.2628 -0.2995
14822SOL    HW246144   4.901   8.703   3.693 -1.4733  0.2379 -2.0266
14823SOL     OW46145   7.822   6.668   3.451  0.5634 -0.1184  0.1301
14823SOL    HW146146   7.832   6.580   3.487  0.2424 -1.1564 -2.2387
14823SOL    HW246147   7.901   6.680   3.398  0.2308  0.7200 -0.1716
14824SOL     OW46148   6.259   9.253   0.283 -0.2685  0.0128 -0.3865
14824SOL    HW146149   6.328   9.286   0.226  1.8460 -3.7226 -0.1266
14824SOL    HW246150   6.283   9.284   0.370  1.6336 -1.9983 -0.1599
14825SOL     OW46151   7.856   7.598   2.874  0.5675  0.5435  0.1008
14825SOL    HW146152   7.839   7.537   2.946  1.3228  1.1974  0.8550
14825SOL    HW246153   7.797   7.571   2.804  0.4610 -0.6606  0.6525
14826SOL     OW46154   2.130   2.842   5.781  0.3608 -0.5418  0.1674
14826SOL    HW146155   2.156   2.787   5.706  0.9965  0.5605 -0.4438
14826SOL    HW246156   2.178   2.806   5.855  2.0810  0.1948 -0.5569
14827SOL     OW46157   1.247   3.114   8.350  0.0603 -0.4062  0.3886
14827SOL    HW146158   1.268   3.076   8.265 -3.3634 -1.4364 -0.0584
14827SOL    HW246159   1.204   3.196   8.329 -1.6054 -1.0872  1.0566
14828SOL     OW46160   5.286   4.185   9.045  0.4873  0.1440 -0.0506
14828SOL    HW146161   5.244   4.116   9.096  0.6594  0.9593  1.2274
14828SOL    HW246162   5.355   4.218   9.103 -0.0098  1.8119 -0.3737
14829SOL     OW46163   5.093   7.176   4.064  0.0557 -0.6726 -0.4115
14829SOL    HW146164   5.007   7.134   4.054 -0.6157  0.1686  1.6443
14829SOL    HW246165   5.118   7.159   4.154  1.0474  0.9955 -0.3529
14830SOL     OW46166   4.434   6.734   2.373  0.1982  0.1764 -0.0052
14830SOL    HW146167   4.482   6.806   2.415 -0.7965  0.6189  0.4166
14830SOL    HW246168   4.497   6.694   2.313  0.7737  1.3872 -0.2246
14831SOL     OW46169   1.977   0.740   4.105 -0.0083 -0.6218 -0.4161
14831SOL    HW146170   2.022   0.692   4.174  0.7868 -1.0786 -1.2406
14831SOL    HW246171   1.914   0.678   4.069 -0.8426 -0.1954  0.2874
14832SOL     OW46172   5.331   1.909   3.535  0.1446 -0.2656  0.0845
14832SOL    HW146173   5.406   1.889   3.479  0.4024 -1.3695  0.8216
14832SOL    HW246174   5.366   1.971   3.600 -0.0734  0.7500 -0.7416
14833SOL     OW46175   9.232   8.238   0.768 -0.3971 -0.3453 -0.1805
14833SOL    HW146176   9.210   8.319   0.722  1.9747 -0.0277 -0.7923
14833SOL    HW246177   9.231   8.170   0.701  0.7264 -0.2759 -0.2789
14834SOL     OW46178   4.009   1.681   2.242  0.3357 -0.2857 -0.3796
14834SOL    HW146179   3.991   1.615   2.175  0.4739 -1.5984  0.8711
14834SOL    HW246180   3.923   1.701   2.280  0.7340 -2.4295  1.7294
14835SOL     OW46181   8.668   5.133   7.261 -0.2221 -0.2622  0.0883
14835SOL    HW146182   8.629   5.201   7.316 -0.3414  0.5044 -0.9285
14835SOL    HW246183   8.744   5.102   7.311 -0.4143  0.3146  0.7482
14836SOL     OW46184   6.472   1.750   1.174  0.6842 -0.4271  0.2060
14836SOL    HW146185   6.446   1.823   1.231 -0.8479 -0.0607 -0.9395
14836SOL    HW246186   6.516   1.792   1.100 -1.8927 -0.4472 -1.4168
14837SOL     OW46187   7.588   8.521   8.867 -0.4109  0.4113  0.3333
14837SOL    HW146188   7.625   8.459   8.930 -0.5849 -0.4482 -0.4118
14837SOL    HW246189   7.527   8.573   8.919 -1.9595 -1.5253  0.4971
14838SOL     OW46190   4.047   8.076   5.136  0.4068  0.3017 -0.1628
14838SOL    HW146191   3.966   8.032   5.111  0.6784  1.0568 -2.4091
14838SOL    HW246192   4.102   8.007   5.172 -0.8212 -0.3929  0.4199
14839SOL     OW46193   1.687   7.117   5.944 -0.1132  0.1509  0.3997
14839SOL    HW146194   1.718   7.028   5.925  0.2296  0.6582 -1.4786
14839SOL    HW246195   1.756   7.155   5.998 -0.3547 -0.7774  1.3883
14840SOL     OW46196   4.501   3.818   3.882 -0.5861 -0.1584 -0.4011
14840SOL    HW146197   4.441   3.814   3.807  0.0008 -1.0046 -0.8408
14840SOL    HW246198   4.523   3.911   3.891 -2.0647  0.1841 -0.1443
14841SOL     OW46199   2.222   6.880   5.308  0.0400  0.1444 -0.5190
14841SOL    HW146200   2.259   6.851   5.224  1.3314  0.2722 -0.0091
14841SOL    HW246201   2.253   6.970   5.318  2.1336 -0.7439  1.3282
14842SOL     OW46202   5.264   4.088   4.497 -0.2950  0.4267  0.4257
14842SOL    HW146203   5.347   4.064   4.456 -0.7935 -1.4664  0.4603
14842SOL    HW246204   5.248   4.178   4.469  0.8344  0.1611 -1.1370
14843SOL     OW46205   5.929   7.417   0.891  0.4820  0.1295 -0.2527
14843SOL    HW146206   5.948   7.379   0.977  1.2832  2.2888  0.5480
14843SOL    HW246207   5.848   7.372   0.863  1.4146 -2.1875  0.6073
14844SOL     OW46208   8.044   2.723   7.253 -0.2940 -0.4964 -0.4327
14844SOL    HW146209   8.038   2.819   7.253  0.3627 -0.4466 -1.3311
14844SOL    HW246210   8.135   2.705   7.275 -0.4488 -0.9222 -0.1480
14845SOL     OW46211   0.437   2.477   0.231 -0.0277 -0.4483 -0.6452
14845SOL    HW146212   0.514   2.523   0.198  0.7974 -1.6330 -0.4322
14845SOL    HW246213   0.373   2.484   0.161  0.6554 -0.3716 -1.2721
14846SOL     OW46214   8.073   0.762   0.386 -0.2088 -0.0156 -0.2267
14846SOL    HW146215   8.004   0.820   0.353 -0.7976 -0.0063  1.0122
14846SOL    HW246216   8.078   0.781   0.479  0.3687 -1.1689 -0.0158
14847SOL     OW46217   2.722   1.363   6.913 -0.2460  0.1547  0.4944
14847SOL    HW146218   2.816   1.348   6.917 -0.5923 -1.7169  1.8140
14847SOL    HW246219   2.705   1.427   6.982 -0.2522 -1.1743  1.7333
14848SOL     OW46220   4.760   7.639   6.611 -0.1338 -0.4148  0.5910
14848SOL    HW146221   4.713   7.556   6.618  0.5264 -0.8933 -0.3517
14848SOL    HW246222   4.756   7.677   6.698 -0.7493 -1.2806  0.9469
14849SOL     OW46223   3.621   3.348   0.284  0.2807 -0.4938  0.1343
14849SOL    HW146224   3.561   3.411   0.324 -1.5425 -1.7958 -0.4441
14849SOL    HW246225   3.622   3.372   0.191  1.4654  0.1559  0.3142
14850SOL     OW46226   2.855   8.743   0.423 -0.0173  0.1935  0.2066
14850SOL    HW146227   2.831   8.807   0.356  0.4492  0.1606  0.0044
14850SOL    HW246228   2.810   8.663   0.397  0.1012  0.2023 -0.0276
14851SOL     OW46229   3.978   8.074   8.699  0.4240 -1.0016 -0.3554
14851SOL    HW146230   3.951   8.075   8.791  0.0819  0.8758 -0.4499
14851SOL    HW246231   3.903   8.037   8.652 -0.6605  0.9375 -0.2128
14852SOL     OW46232   3.512   0.601   6.523 -0.1474 -0.5569 -0.4877
14852SOL    HW146233   3.524   0.552   6.442 -1.0523 -1.0099 -0.3511
14852SOL    HW246234   3.450   0.670   6.500  0.0570 -0.3174 -0.3276
14853SOL     OW46235   8.929   8.202   2.394 -0.3973  0.1453 -0.3935
14853SOL    HW146236   8.878   8.248   2.460 -0.6886  0.2074 -0.6571
14853SOL    HW246237   8.867   8.186   2.323 -0.6822 -1.9029  0.2679
14854SOL     OW46238   7.730   4.711   5.680 -0.1938 -0.2479 -0.0433
14854SOL    HW146239   7.733   4.757   5.596 -0.4552 -0.0132  0.0769
14854SOL    HW246240   7.643   4.728   5.714  1.1529  2.7880  2.0390
14855SOL     OW46241   3.182   8.563   6.040 -0.9024  0.3654 -0.2453
14855SOL    HW146242   3.173   8.470   6.060 -1.7801  0.2833 -1.0095
14855SOL    HW246243   3.272   8.571   6.008 -0.2947  0.0699  1.3499
14856SOL     OW46244   2.988   3.200   6.590 -0.3603 -0.3731 -0.0104
14856SOL    HW146245   2.928   3.272   6.610 -1.3287 -0.6666 -1.7643
14856SOL    HW246246   3.028   3.178   6.674 -1.4084  0.9957  0.8681
14857SOL     OW46247   6.191   5.461   8.355 -0.1213 -0.0395 -0.4223
14857SOL    HW146248   6.285   5.457   8.376 -0.5626 -0.4654  1.4830
14857SOL    HW246249   6.172   5.376   8.316  0.0100 -0.4072  0.3193
14858SOL     OW46250   6.868   2.942   6.815 -0.6788  0.3502 -0.4620
14858SOL    HW146251   6.931   3.012   6.833  0.9592 -1.4787  1.2944
14858SOL    HW246252   6.783   2.985   6.816  0.3679  2.4722 -0.3469
14859SOL     OW46253   7.467   0.076   3.855  0.3172  0.0135  0.2572
14859SOL    HW146254   7.503   0.161   3.830  1.7992 -0.6549  0.0502
14859SOL    HW246255   7.441   0.036   3.772  1.8456 -0.7011  0.1010
14860SOL     OW46256   5.998   5.994   8.461 -0.1378  0.5250  0.3211
14860SOL    HW146257   5.966   5.907   8.482 -0.2226  0.6832  0.8694
14860SOL    HW246258   6.093   5.987   8.465 -0.1265  0.2543 -0.4763
14861SOL     OW46259   4.179   1.358   6.995 -0.5598 -0.2613  0.7136
14861SOL    HW146260   4.134   1.324   7.072 -0.1775 -1.8428  0.2416
14861SOL    HW246261   4.243   1.291   6.971 -1.6640 -0.4605 -1.8551
14862SOL     OW46262   1.345   2.428   4.912 -0.9967  0.5624  0.3461
14862SOL    HW146263   1.313   2.517   4.899  2.0758  1.6946  0.1202
14862SOL    HW246264   1.342   2.415   5.006 -0.7489  1.1721  0.4377
14863SOL     OW46265   6.841   0.730   0.485  1.3509  0.2219 -0.8298
14863SOL    HW146266   6.928   0.755   0.453  1.6761 -1.3643 -1.2405
14863SOL    HW246267   6.824   0.645   0.444 -0.0555  0.1451 -0.1222
14864SOL     OW46268   5.913   5.407   5.526 -0.0673  0.1943 -0.6568
14864SOL    HW146269   5.964   5.477   5.485  0.3145  0.8582  0.8750
14864SOL    HW246270   5.875   5.358   5.454  1.0664  0.9580 -1.7918
14865SOL     OW46271   5.273   4.780   6.547 -0.1917  0.4741  0.1212
14865SOL    HW146272   5.307   4.850   6.604  0.6447  0.3319 -0.1907
14865SOL    HW246273   5.327   4.786   6.468  1.2828 -1.8645  0.9155
14866SOL     OW46274   5.920   1.407   7.080  0.1493 -0.1052  0.2391
14866SOL    HW146275   5.886   1.482   7.129 -1.2540 -0.8419  0.4045
14866SOL    HW246276   5.929   1.338   7.145  0.9936 -0.2329 -0.0062
14867SOL     OW46277   2.169   5.305   5.374 -0.4351 -0.4815  0.3905
14867SOL    HW146278   2.161   5.321   5.468  1.2373 -0.5969  0.5591
14867SOL    HW246279   2.143   5.387   5.334  0.3690  0.0862  1.0075
14868SOL     OW46280   4.418   2.460   5.633 -0.6504  0.3131  0.6554
14868SOL    HW146281   4.472   2.474   5.710  0.0819  2.3499 -0.1949
14868SOL    HW246282   4.372   2.378   5.650  2.1845 -1.1165  1.6792
14869SOL     OW46283   8.803   8.228   3.542  0.0770  0.3136  0.0097
14869SOL    HW146284   8.889   8.219   3.581  0.5012 -0.9453 -1.1645
14869SOL    HW246285   8.818   8.281   3.463 -0.5545  1.7488  0.8314
14870SOL     OW46286   8.447   5.567   1.843 -0.1701 -0.3916 -0.4106
14870SOL    HW146287   8.532   5.578   1.886 -0.1017  0.9604 -0.8795
14870SOL    HW246288   8.388   5.624   1.892 -0.2516  0.5991 -1.6429
14871SOL     OW46289   3.169   2.840   1.275 -0.0619 -0.0141 -0.6334
14871SOL    HW146290   3.146   2.825   1.367  0.4457  0.3716 -0.4383
14871SOL    HW246291   3.181   2.752   1.239 -0.9867 -0.1847 -0.5189
14872SOL     OW46292   4.695   1.827   1.942  0.5826  0.4751 -0.5006
14872SOL    HW146293   4.763   1.834   2.008 -0.5070  1.2012  0.5683
14872SOL    HW246294   4.615   1.812   1.992 -0.0355 -0.3981 -1.7378
14873SOL     OW46295   1.277   4.788   0.113  0.1925 -0.0225  0.6013
14873SOL    HW146296   1.199   4.839   0.135 -0.3747 -0.8488  0.5390
14873SOL    HW246297   1.346   4.853   0.103 -0.2888  0.6412  1.5378
14874SOL     OW46298   7.272   6.569   4.941  0.2311  0.0041  0.4428
14874SOL    HW146299   7.286   6.655   4.901 -1.7411 -0.0490 -0.4170
14874SOL    HW246300   7.183   6.573   4.977  0.2000 -1.5993  0.6005
14875SOL     OW46301   4.466   2.723   6.612 -0.1661  0.7746 -0.0517
14875SOL    HW146302   4.527   2.651   6.627 -2.4696 -0.4848  3.8076
14875SOL    HW246303   4.402   2.688   6.549 -0.2745  0.0750  0.4508
14876SOL     OW46304   4.615   1.057   1.022  0.3915  0.1584 -0.5837
14876SOL    HW146305   4.634   1.037   0.930  1.6471  0.8456 -0.4757
14876SOL    HW246306   4.621   1.152   1.028  0.3024  0.1183  0.2204
14877SOL     OW46307   6.851   1.855   4.336  0.3109 -0.2739 -0.2624
14877SOL    HW146308   6.885   1.933   4.292  0.8109 -0.8329 -0.8859
14877SOL    HW246309   6.856   1.786   4.269 -0.8951 -0.6466  0.0264
14878SOL     OW46310   9.017   3.777   1.191 -0.2490  0.0105  0.1561
14878SOL    HW146311   9.005   3.834   1.268  0.4566  1.3062 -0.6687
14878SOL    HW246312   9.109   3.788   1.168  0.0741 -2.0419  0.4122
14879SOL     OW46313   8.635   0.920   5.954 -0.4086 -0.2217 -0.7394
14879SOL    HW146314   8.686   0.850   5.914 -0.4317 -0.4770 -0.3210
14879SOL    HW246315   8.548   0.882   5.968 -1.1727  0.6692 -2.8281
14880SOL     OW46316   6.309   2.107   1.761 -0.5685  0.2016  0.0825
14880SOL    HW146317   6.264   2.024   1.744  2.6550 -1.7887  0.9216
14880SOL    HW246318   6.256   2.150   1.828 -1.4346 -1.9169  0.7933
14881SOL     OW46319   6.911   4.634   2.553  0.3663 -0.0232 -0.2552
14881SOL    HW146320   6.916   4.684   2.472  3.2822 -2.5733 -1.7611
14881SOL    HW246321   6.855   4.559   2.532 -0.4132  0.2868  0.6670
14882SOL     OW46322   5.329   5.160   5.604  0.0196  0.1945 -0.3330
14882SOL    HW146323   5.320   5.084   5.661 -0.4396  1.4960  1.3673
14882SOL    HW246324   5.240   5.194   5.595  0.4935  1.7495  0.6348
14883SOL     OW46325   2.701   6.741   3.341 -0.2534  0.2433 -0.2978
14883SOL    HW146326   2.610   6.757   3.363  0.0449  1.0481  0.3657
14883SOL    HW246327   2.749   6.750   3.423  0.4373 -0.1273 -0.6440
14884SOL     OW46328   1.874   3.556   8.399 -0.2442 -0.3426  0.8799
14884SOL    HW146329   1.903   3.588   8.484 -1.5746  0.4801  1.0388
14884SOL    HW246330   1.901   3.464   8.397 -0.9123 -0.5988  2.5243
14885SOL     OW46331   0.092   7.213   4.956 -0.2265  0.1436  0.0992
14885SOL    HW146332   0.151   7.282   4.987  0.0658  0.0697 -0.2866
14885SOL    HW246333   0.005   7.253   4.961  0.1078  1.2102 -1.8666
14886SOL     OW46334   1.076   0.826   7.523 -0.7083 -0.2276  0.0527
14886SOL    HW146335   1.119   0.865   7.598 -2.2092  0.3850  0.5955
14886SOL    HW246336   1.136   0.842   7.450  1.1405 -1.5368  1.2362
14887SOL     OW46337   7.179   3.646   8.612  0.3853 -0.8404  0.2879
14887SOL    HW146338   7.230   3.641   8.694 -1.8305 -1.7587  1.6547
14887SOL    HW246339   7.092   3.673   8.640 -0.0366  0.1964 -1.9739
14888SOL     OW46340   3.985   0.755   3.988  0.2284 -0.5422  0.1111
14888SOL    HW146341   4.003   0.700   4.064 -0.4262 -0.9846 -0.0432
14888SOL    HW246342   3.958   0.693   3.920  3.0457 -0.3811 -1.2028
14889SOL     OW46343   0.757   7.038   5.615  0.5515 -0.1154  0.4307
14889SOL    HW146344   0.743   6.947   5.639  2.3805 -0.7833 -0.9288
14889SOL    HW246345   0.779   7.035   5.521 -1.7414  1.9574 -0.2192
14890SOL     OW46346   7.634   5.752   8.889 -0.4757 -0.5590  0.4385
14890SOL    HW146347   7.607   5.762   8.980 -1.6320 -1.9271  0.2664
14890SOL    HW246348   7.552   5.740   8.841  0.1171  0.2495 -0.8066
14891SOL     OW46349   3.389   2.902   4.272  0.3904 -0.6644 -0.1526
14891SOL    HW146350   3.394   2.927   4.180 -2.5204  0.3039 -0.0743
14891SOL    HW246351   3.395   2.806   4.271 -0.7466 -0.7394 -1.4409
14892SOL     OW46352   2.504   6.459   1.897  0.4672  1.0321  0.1808
14892SOL    HW146353   2.484   6.493   1.809  0.0539 -0.3648 -0.2703
14892SOL    HW246354   2.432   6.492   1.951  0.1499  1.0129 -0.2233
14893SOL     OW46355   1.226   7.662   2.686 -0.3485  0.5363  0.5242
14893SOL    HW146356   1.312   7.686   2.653 -1.2363  2.1447 -0.6893
14893SOL    HW246357   1.167   7.727   2.649 -2.6131 -2.5173 -1.4566
14894SOL     OW46358   4.444   9.174   3.148  0.2696 -0.0538 -0.0919
14894SOL    HW146359   4.533   9.172   3.183  1.0773 -1.0347 -2.0926
14894SOL    HW246360   4.429   9.085   3.114 -1.2481  0.2639 -0.3144
14895SOL     OW46361   8.878   6.238   7.949  0.2496 -0.2645  0.0608
14895SOL    HW146362   8.956   6.285   7.919  0.0078  0.7892  1.0213
14895SOL    HW246363   8.811   6.306   7.958 -0.9923 -1.2506 -1.3905
14896SOL     OW46364   5.937   1.556   1.764  0.1967  1.2552  0.5757
14896SOL    HW146365   5.865   1.522   1.816 -1.4465  1.6798 -1.3532
14896SOL    HW246366   6.000   1.484   1.759 -2.2195 -0.8106 -1.5900
14897SOL     OW46367   6.366   7.302   5.454 -0.3262  0.1437  0.5953
14897SOL    HW146368   6.383   7.294   5.548  2.5590  2.4285  0.3150
14897SOL    HW246369   6.388   7.216   5.419 -0.7366 -0.5083  1.8763
14898SOL     OW46370   3.523   7.544   2.176 -0.0181  0.0904  0.1467
14898SOL    HW146371   3.485   7.473   2.227  1.5140  0.4242  1.7947
14898SOL    HW246372   3.508   7.622   2.229  2.9197  0.2399  0.8329
14899SOL     OW46373   8.640   4.468   8.517  0.6061  0.1343 -0.4014
14899SOL    HW146374   8.693   4.545   8.496  1.3310 -0.2725 -0.0960
14899SOL    HW246375   8.650   4.410   8.442  0.5365  0.0929 -0.3785
14900SOL     OW46376   2.922   6.948   4.025  0.3014 -0.1810 -0.3644
14900SOL    HW146377   2.930   6.956   3.930  0.3008 -1.8075 -0.5049
14900SOL    HW246378   2.828   6.943   4.041  0.3009  0.1199 -0.2723
14901SOL     OW46379   2.674   1.198   0.047 -0.2133 -0.0455 -0.7759
14901SOL    HW146380   2.650   1.110   0.074  0.5456  0.2553  0.9150
14901SOL    HW246381   2.618   1.256   0.098  0.7617  0.5083 -0.3118
14902SOL     OW46382   5.344   7.136   4.637  0.3264  0.3615  0.0409
14902SOL    HW146383   5.405   7.067   4.613  1.6180  1.7229 -0.6444
14902SOL    HW246384   5.336   7.130   4.732 -0.5062 -1.4832 -0.1197
14903SOL     OW46385   2.580   3.889   7.840 -0.5818 -0.1556  0.0251
14903SOL    HW146386   2.516   3.923   7.778 -0.9169 -1.2781 -0.2520
14903SOL    HW246387   2.544   3.806   7.869 -0.0743  0.0088  1.1765
14904SOL     OW46388   7.587   6.030   8.610  0.7133  0.4950 -0.3081
14904SOL    HW146389   7.587   6.065   8.521 -1.2315  0.0355 -0.5061
14904SOL    HW246390   7.611   6.104   8.665 -1.1305  1.5914 -0.9374
14905SOL     OW46391   3.965   4.573   6.390  0.2189 -0.0642 -0.2361
14905SOL    HW146392   3.995   4.493   6.433  0.1184 -0.1227 -0.2739
14905SOL    HW246393   3.881   4.592   6.433 -0.0271 -0.2905 -0.6176
14906SOL     OW46394   1.928   5.190   7.583 -0.1997  0.2014 -0.1436
14906SOL    HW146395   1.892   5.118   7.636  0.7993  0.1921  0.5443
14906SOL    HW246396   1.853   5.225   7.535 -0.4704 -2.1914 -1.5564
14907SOL     OW46397   2.180   2.196   6.514  0.0459 -1.0018 -0.4215
14907SOL    HW146398   2.135   2.114   6.533 -1.4427 -0.1404 -0.1818
14907SOL    HW246399   2.273   2.177   6.530 -0.6662 -1.5732  3.3312
14908SOL     OW46400   5.196   3.752   7.790  0.3304 -0.1482 -0.1838
14908SOL    HW146401   5.226   3.662   7.785 -0.3041 -0.4209  0.6815
14908SOL    HW246402   5.141   3.755   7.868 -0.6121  0.7008 -0.8512
14909SOL     OW46403   4.821   5.434   2.425 -0.9449  0.2950  0.0364
14909SOL    HW146404   4.905   5.393   2.402 -0.7380  0.5044  0.4016
14909SOL    HW246405   4.846   5.523   2.451 -1.2633  0.2940  0.3336
14910SOL     OW46406   4.193   7.206   4.259 -0.0488 -0.3916 -0.5665
14910SOL    HW146407   4.288   7.202   4.246  0.1054  1.7663 -0.2229
14910SOL    HW246408   4.159   7.133   4.207  1.8695 -1.8010  0.1031
14911SOL     OW46409   6.793   7.992   0.750 -0.2268  0.1502  0.3161
14911SOL    HW146410   6.833   8.019   0.667 -0.2976  0.8929  0.5220
14911SOL    HW246411   6.744   7.912   0.728 -0.3692  0.4303 -0.3926
14912SOL     OW46412   5.341   4.157   2.176  0.2919  0.3156 -0.3393
14912SOL    HW146413   5.369   4.165   2.267 -0.5125 -0.7978  0.0128
14912SOL    HW246414   5.270   4.220   2.167  0.9441  1.0428 -0.4365
14913SOL     OW46415   4.060   5.646   6.695  0.3045  0.4616 -0.6219
14913SOL    HW146416   3.992   5.712   6.681  0.5026  0.2845 -2.5819
14913SOL    HW246417   4.020   5.581   6.752 -0.2025  1.7977  0.5707
14914SOL     OW46418   4.211   7.379   3.529 -0.6844  0.3766  0.6109
14914SOL    HW146419   4.254   7.448   3.479  0.7568 -0.8614  0.1129
14914SOL    HW246420   4.238   7.394   3.620  1.4447 -0.7986  0.2192
14915SOL     OW46421   5.184   8.604   7.549  0.4802 -0.5065  0.3781
14915SOL    HW146422   5.202   8.520   7.591 -1.9328 -0.7022  1.1345
14915SOL    HW246423   5.134   8.581   7.471 -0.8075  0.2250  0.9621
14916SOL     OW46424   1.805   5.617   4.482  0.0402  0.0376  0.2255
14916SOL    HW146425   1.710   5.616   4.484  0.0371  0.2681  0.2420
14916SOL    HW246426   1.832   5.568   4.559 -0.0634  0.5654  0.5968
14917SOL     OW46427   0.775   3.533   3.766  0.1769  0.0843  0.2129
14917SOL    HW146428   0.681   3.542   3.783  0.0400  0.5184 -0.7289
14917SOL    HW246429   0.814   3.522   3.852 -1.0540 -3.1925  0.4103
14918SOL     OW46430   3.821   5.828   4.818  0.3871  0.5843 -0.6243
14918SOL    HW146431   3.835   5.771   4.894  0.3921 -0.3377 -1.2953
14918SOL    HW246432   3.744   5.880   4.840 -0.2294 -0.4041 -0.4008
14919SOL     OW46433   5.888   9.148   3.747  0.0605 -0.4062  0.0307
14919SOL    HW146434   5.920   9.237   3.760 -0.6466 -0.4852  2.4927
14919SOL    HW246435   5.967   9.097   3.731  0.5280  0.5424 -0.7688
14920SOL     OW46436   5.051   7.150   8.164  0.0126  0.4338  0.0018
14920SOL    HW146437   5.102   7.193   8.095 -0.9731  0.0947 -0.9453
14920SOL    HW246438   5.014   7.222   8.215 -0.2482  0.6987 -0.5599
14921SOL     OW46439   6.394   6.448   1.869  0.9171  0.3579 -0.4654
14921SOL    HW146440   6.398   6.381   1.938 -1.0875 -0.5481 -1.1795
14921SOL    HW246441   6.450   6.415   1.800 -0.5750 -0.9444 -1.0842
14922SOL     OW46442   2.110   8.869   8.477 -0.2979  0.1705 -0.5949
14922SOL    HW146443   2.037   8.896   8.533 -2.2428 -0.3123 -2.8241
14922SOL    HW246444   2.150   8.796   8.524 -1.0165  0.6673  0.8257
14923SOL     OW46445   9.090   5.593   1.492 -0.1003  0.0375  0.1897
14923SOL    HW146446   9.048   5.517   1.451  1.5712 -1.0468  0.4535
14923SOL    HW246447   9.129   5.559   1.573  0.3766  1.2464  0.4850
14924SOL     OW46448   5.870   4.814   7.536 -0.4154  0.3525 -0.2803
14924SOL    HW146449   5.808   4.771   7.595  0.4886 -1.2858 -0.4884
14924SOL    HW246450   5.826   4.813   7.451 -0.1061 -0.8278 -0.4324
14925SOL     OW46451   3.870   8.922   9.202  0.2472  0.1877 -0.0980
14925SOL    HW146452   3.941   8.894   9.259  0.3590 -0.0192 -0.3350
14925SOL    HW246453   3.914   8.961   9.127  0.0705  2.9500  1.1754
14926SOL     OW46454   5.461   3.469   2.297  0.4988  0.6422 -0.5304
14926SOL    HW146455   5.507   3.480   2.214  0.3525  1.5295 -0.4989
14926SOL    HW246456   5.438   3.558   2.324  2.3413  0.5462  1.4733
14927SOL     OW46457   5.171   5.447   6.411 -0.4939 -0.1763  0.4104
14927SOL    HW146458   5.243   5.435   6.472  0.5534 -2.4142 -1.2282
14927SOL    HW246459   5.143   5.358   6.389 -0.3660  0.5580 -2.9005
14928SOL     OW46460   0.016   1.184   2.261  0.2063 -0.0845 -0.3502
14928SOL    HW146461  -0.043   1.119   2.223  0.9462 -0.1799 -1.3738
14928SOL    HW246462   0.018   1.164   2.354 -3.6291  1.7161  0.2328
14929SOL     OW46463   2.861   2.078   5.558  0.0092 -0.5614  0.0682
14929SOL    HW146464   2.786   2.135   5.574  0.8293  0.4543  0.3060
14929SOL    HW246465   2.822   1.992   5.541 -1.2078 -0.0389  0.1633
14930SOL     OW46466   0.840   1.715   6.801 -0.3159  0.0804  0.1175
14930SOL    HW146467   0.851   1.768   6.880  0.1929  1.0857 -0.6182
14930SOL    HW246468   0.745   1.705   6.791 -0.3660 -0.6888  1.2623
14931SOL     OW46469   6.458   1.992   3.414  0.2240  0.4226 -0.1496
14931SOL    HW146470   6.445   1.902   3.444 -2.1663  0.4320 -1.1020
14931SOL    HW246471   6.411   1.998   3.331 -1.6961  3.1836  1.0340
14932SOL     OW46472   1.829   3.119   0.487  0.3197  0.8289 -0.1893
14932SOL    HW146473   1.747   3.071   0.500  1.2154 -0.6361  0.1041
14932SOL    HW246474   1.855   3.098   0.397  1.0981  0.1701  0.1916
14933SOL     OW46475   8.652   1.836   5.609 -0.3351 -0.0780  0.1537
14933SOL    HW146476   8.677   1.830   5.701 -0.5543 -0.5116  0.1855
14933SOL    HW246477   8.557   1.849   5.611 -0.5130 -1.3000 -0.0383
14934SOL     OW46478   5.830   3.848   3.425  0.6862  0.1995 -0.1224
14934SOL    HW146479   5.808   3.778   3.487 -0.3054 -0.6279 -1.3994
14934SOL    HW246480   5.769   3.918   3.446 -0.8016 -0.7266 -1.2704
14935SOL     OW46481   3.350   2.515   8.535  0.4987 -0.3675 -0.3015
14935SOL    HW146482   3.327   2.518   8.442  0.2059  0.9368 -0.1943
14935SOL    HW246483   3.405   2.592   8.549  1.3291 -1.0672  0.4091
14936SOL     OW46484   4.502   2.272   5.887  0.5044  0.7874  0.6163
14936SOL    HW146485   4.503   2.178   5.868  0.1631  0.6027  1.5013
14936SOL    HW246486   4.410   2.296   5.890  0.5732  1.0163  1.0350
14937SOL     OW46487   4.827   7.282   8.019  0.0880 -0.1731  0.0106
14937SOL    HW146488   4.828   7.249   7.929  0.5209  0.1217 -0.0994
14937SOL    HW246489   4.849   7.206   8.073  1.5282  0.0201 -0.2776
14938SOL     OW46490   0.992   4.700   4.399 -0.8413 -0.5421  0.0952
14938SOL    HW146491   0.957   4.787   4.418 -1.1712 -0.6761  0.1043
14938SOL    HW246492   0.981   4.652   4.480  3.1006  0.6112  1.4269
14939SOL     OW46493   7.730   9.143   6.246 -0.2840 -0.1877 -0.2554
14939SOL    HW146494   7.715   9.093   6.326  1.8718 -1.1597 -0.4352
14939SOL    HW246495   7.643   9.152   6.206 -1.0152 -1.7590  0.9704
14940SOL     OW46496   3.484   8.554   4.403 -0.3649 -0.1186 -0.5559
14940SOL    HW146497   3.412   8.589   4.455 -0.2035  0.5460 -0.7779
14940SOL    HW246498   3.563   8.590   4.442 -0.1548 -0.7795 -0.3669
14941SOL     OW46499   0.837   2.237   1.537 -0.2397  0.4268  0.1976
14941SOL    HW146500   0.789   2.307   1.581 -1.2841 -0.5204  0.6137
14941SOL    HW246501   0.845   2.266   1.446 -1.1292  0.8519  0.2527
14942SOL     OW46502   4.259   0.275   0.714  0.9380 -0.2359 -0.4191
14942SOL    HW146503   4.326   0.239   0.772 -0.7529 -0.8995  1.1564
14942SOL    HW246504   4.300   0.275   0.627  1.6786 -4.0757 -0.1369
14943SOL     OW46505   3.745   5.921   5.182 -0.4056 -0.2909  0.1111
14943SOL    HW146506   3.724   6.000   5.132  0.3036  0.1683  0.5084
14943SOL    HW246507   3.726   5.848   5.123 -0.1096  0.2192 -0.6203
14944SOL     OW46508   1.288   8.259   5.479  0.1768 -0.3295 -0.7850
14944SOL    HW146509   1.321   8.342   5.445  0.3709  0.0337  0.2702
14944SOL    HW246510   1.345   8.193   5.440 -0.0825  0.0239 -1.7594
14945SOL     OW46511   4.557   8.229   6.376  0.4750 -0.3105  0.2001
14945SOL    HW146512   4.539   8.294   6.444 -1.6058 -0.8547  0.2332
14945SOL    HW246513   4.498   8.253   6.304  0.5696 -1.4320 -0.2644
14946SOL     OW46514   0.394   3.667   7.161 -0.0834  0.3860  0.1898
14946SOL    HW146515   0.316   3.703   7.121  0.6986  0.7545 -1.0398
14946SOL    HW246516   0.416   3.591   7.107  0.9293  0.8319 -0.0520
14947SOL     OW46517   5.460   8.610   1.286 -0.8273  0.3953 -0.3061
14947SOL    HW146518   5.407   8.666   1.343 -0.6080  0.9597 -0.6544
14947SOL    HW246519   5.493   8.669   1.219  1.8327  0.4633  0.9828
14948SOL     OW46520   2.192   3.730   7.888 -0.5447 -0.0660 -0.1246
14948SOL    HW146521   2.126   3.709   7.822  0.0390 -1.3360 -0.3150
14948SOL    HW246522   2.271   3.686   7.858  0.0583  0.4131  0.7503
14949SOL     OW46523   8.122   4.799   8.090 -0.2377  0.2659 -0.3560
14949SOL    HW146524   8.131   4.849   8.009 -0.0711  1.2780  0.2747
14949SOL    HW246525   8.029   4.806   8.113  0.1695  1.9991  0.8041
14950SOL     OW46526   3.589   5.987   7.167 -0.1303  0.1881 -0.6401
14950SOL    HW146527   3.629   6.061   7.122 -0.9774 -0.8358 -3.2365
14950SOL    HW246528   3.495   6.002   7.159 -0.3040  0.0989  1.0655
14951SOL     OW46529   8.362   0.827   5.955 -0.2486 -0.0471  0.0911
14951SOL    HW146530   8.292   0.853   5.895 -2.9514 -0.9911  2.7318
14951SOL    HW246531   8.337   0.866   6.039  0.3501 -3.6088  1.9818
14952SOL     OW46532   1.697   4.207   8.282 -0.0955  0.3575 -0.0583
14952SOL    HW146533   1.729   4.120   8.305  4.0865  1.4839 -1.1560
14952SOL    HW246534   1.710   4.260   8.361  1.1800  0.9017 -0.6119
14953SOL     OW46535   8.550   5.700   2.630  0.1797 -0.2450 -0.0590
14953SOL    HW146536   8.538   5.606   2.649  0.3297 -0.1630  0.4492
14953SOL    HW246537   8.644   5.713   2.633  0.1390 -0.0094  0.1979
14954SOL     OW46538   5.700   0.644   8.451  0.0079 -0.1234  0.4029
14954SOL    HW146539   5.668   0.563   8.489  1.4251  0.0365  1.9857
14954SOL    HW246540   5.739   0.692   8.524  2.4524  0.3710 -1.1582
14955SOL     OW46541   8.985   8.385   2.946 -0.0062  0.3081 -0.1237
14955SOL    HW146542   8.911   8.332   2.916  0.5167 -0.0919 -0.7117
14955SOL    HW246543   8.959   8.475   2.927 -0.2548  0.1548 -0.5113
14956SOL     OW46544   2.071   8.784   6.425  0.6052 -0.1067 -0.1101
14956SOL    HW146545   2.073   8.732   6.506  0.3682 -0.2341 -0.1846
14956SOL    HW246546   1.983   8.821   6.423 -0.0824 -1.7886 -1.3733
14957SOL     OW46547   1.363   3.396   2.040  0.7559  0.0058  0.4474
14957SOL    HW146548   1.457   3.389   2.022  0.6333 -0.4311  0.0078
14957SOL    HW246549   1.345   3.325   2.102  0.6588 -0.0736  0.3274
14958SOL     OW46550   2.901   1.212   6.638 -0.1377  0.1437  0.6489
14958SOL    HW146551   2.917   1.153   6.712 -1.1763 -1.5771 -0.4540
14958SOL    HW246552   2.825   1.263   6.664 -1.0960 -1.1325  0.3992
14959SOL     OW46553   7.210   5.444   7.321 -0.1730  0.0511  0.1373
14959SOL    HW146554   7.147   5.512   7.301  0.0185 -0.0678 -0.8702
14959SOL    HW246555   7.157   5.369   7.348 -0.3770  0.6360  1.4335
14960SOL     OW46556   2.841   0.615   7.531  0.3739  0.6930 -0.0647
14960SOL    HW146557   2.893   0.676   7.584 -1.9375  2.4492  0.2652
14960SOL    HW246558   2.906   0.566   7.481  2.3778  2.5325  0.6414
14961SOL     OW46559   7.242   6.341   5.619  0.3181 -0.0970 -0.8416
14961SOL    HW146560   7.161   6.307   5.583 -0.1769  0.9690 -0.7574
14961SOL    HW246561   7.311   6.306   5.563 -0.2074 -0.9322 -0.9647
14962SOL     OW46562   2.614   5.159   7.923 -0.5513 -0.4723 -0.1390
14962SOL    HW146563   2.528   5.190   7.894 -0.7472  0.5232  1.4408
14962SOL    HW246564   2.655   5.235   7.965  0.4785 -1.3432  0.4842
14963SOL     OW46565   2.419   2.658   2.637  0.6014  0.7712 -0.2622
14963SOL    HW146566   2.468   2.739   2.622  0.5045  1.0590  0.8812
14963SOL    HW246567   2.410   2.619   2.551 -0.2328  2.5015 -1.0004
14964SOL     OW46568   4.252   3.871   1.182 -0.1415  0.4630  0.1166
14964SOL    HW146569   4.275   3.846   1.093  0.9751  1.4066  0.1171
14964SOL    HW246570   4.315   3.824   1.237  0.7859  1.8020  0.2294
14965SOL     OW46571   2.747   0.011   3.889  0.0999 -0.4871 -0.2487
14965SOL    HW146572   2.749  -0.039   3.807 -1.5033  0.7771 -1.0818
14965SOL    HW246573   2.696  -0.044   3.948 -0.1309 -0.6613 -0.6034
14966SOL     OW46574   4.121   2.317   6.948  0.3276  0.9224 -0.1323
14966SOL    HW146575   4.090   2.227   6.933  2.2395  0.2206 -0.0732
14966SOL    HW246576   4.192   2.328   6.884  1.0384  1.8966  0.8250
14967SOL     OW46577   3.509   8.192   7.057  0.1075 -0.4737  0.1063
14967SOL    HW146578   3.418   8.164   7.058  0.4156 -1.4783  0.5881
14967SOL    HW246579   3.557   8.119   7.018  0.3707  1.1760 -2.7616
14968SOL     OW46580   5.503   5.598   6.403 -0.0577 -0.4106 -0.0195
14968SOL    HW146581   5.524   5.544   6.327 -2.5803  0.2394 -1.2601
14968SOL    HW246582   5.498   5.687   6.368  0.2432  0.0866  1.2025
14969SOL     OW46583   8.703   7.637   0.211  0.0768 -0.6518 -1.4267
14969SOL    HW146584   8.645   7.605   0.280 -2.1654  2.3122 -1.8663
14969SOL    HW246585   8.789   7.601   0.233 -1.4293 -3.1813  0.5560
14970SOL     OW46586   7.955   3.497   6.337  0.0429  0.2515 -0.1223
14970SOL    HW146587   7.952   3.586   6.301  2.5273  0.5924  0.3843
14970SOL    HW246588   8.024   3.453   6.287 -2.0041 -1.8128 -1.1951
14971SOL     OW46589   3.335   2.978   5.654  0.0293 -0.1808  0.3045
14971SOL    HW146590   3.380   2.908   5.607  0.7545  0.2618  0.3225
14971SOL    HW246591   3.242   2.955   5.648  0.1934 -0.6974 -0.4060
14972SOL     OW46592   4.615   4.639   1.488 -0.8138  0.2628  0.0603
14972SOL    HW146593   4.611   4.661   1.582 -0.0460 -1.2846  0.4617
14972SOL    HW246594   4.706   4.657   1.463 -1.0415  0.7694 -0.4262
14973SOL     OW46595   8.978   8.293   7.805 -0.4302 -0.4884 -0.2290
14973SOL    HW146596   9.003   8.338   7.885 -2.6941  1.1446 -0.3792
14973SOL    HW246597   8.920   8.222   7.834 -1.3206  0.1575 -0.4241
14974SOL     OW46598   1.003   5.742   0.262 -0.3237  0.4817  0.0351
14974SOL    HW146599   0.973   5.799   0.192 -0.5013  1.1350  0.6392
14974SOL    HW246600   1.005   5.798   0.340 -1.2711 -0.5188  0.7963
14975SOL     OW46601   2.619   5.847   8.621  0.2221 -0.4042 -0.1801
14975SOL    HW146602   2.599   5.854   8.528  1.2732  1.0569 -0.2964
14975SOL    HW246603   2.714   5.850   8.626  0.1637 -0.1259  0.9683
14976SOL     OW46604   5.631   1.702   7.817 -0.1479 -0.5881  0.1685
14976SOL    HW146605   5.548   1.656   7.807 -0.8512  0.3283  1.6746
14976SOL    HW246606   5.658   1.684   7.907  1.4783 -1.1730 -0.4185
14977SOL     OW46607   0.360   0.843   7.776  0.3460 -0.3464 -0.0079
14977SOL    HW146608   0.401   0.762   7.746  0.2505 -0.6647  0.7134
14977SOL    HW246609   0.281   0.815   7.820  0.1153  0.1711 -0.0814
14978SOL     OW46610   8.951   3.908   4.697  0.1395  0.2651 -0.1484
14978SOL    HW146611   9.021   3.905   4.762 -0.1437 -0.7151  0.1168
14978SOL    HW246612   8.911   3.821   4.700 -0.4264  0.4815 -1.0294
14979SOL     OW46613   4.014   2.274   6.142 -0.4607 -0.0671  0.6218
14979SOL    HW146614   3.961   2.311   6.071  0.4471  0.8430  0.4242
14979SOL    HW246615   3.957   2.208   6.181 -2.2449  1.7890  1.2369
14980SOL     OW46616   5.090   7.895   8.499 -0.2337 -0.1807  0.6517
14980SOL    HW146617   5.114   7.974   8.547 -0.1377  0.6722 -0.7847
14980SOL    HW246618   4.997   7.883   8.518  0.0172 -0.4169  1.8235
14981SOL     OW46619   8.500   8.319   1.929 -0.6165 -0.6623  0.8389
14981SOL    HW146620   8.415   8.361   1.943 -0.2467  1.1879 -1.9638
14981SOL    HW246621   8.486   8.260   1.855  0.1299 -1.6966  1.5028
14982SOL     OW46622   3.034   9.118   6.646 -0.5252  0.2882  0.0324
14982SOL    HW146623   2.999   9.040   6.603 -2.5332  1.5271 -0.6573
14982SOL    HW246624   3.004   9.111   6.737 -1.7152  0.8252 -0.3094
14983SOL     OW46625   4.502   0.019   0.310 -0.1068  0.8988 -0.2393
14983SOL    HW146626   4.438  -0.028   0.363 -0.7115  1.2665 -0.6361
14983SOL    HW246627   4.561   0.060   0.374 -0.2327  0.5115  0.1238
14984SOL     OW46628   0.223   5.714   1.468 -0.2396 -0.3688  0.2112
14984SOL    HW146629   0.231   5.712   1.564  1.1746  0.9659  0.1485
14984SOL    HW246630   0.270   5.636   1.438  0.2405 -0.2158  0.5588
14985SOL     OW46631   2.432   2.046   6.541 -0.1766 -0.0370  0.4301
14985SOL    HW146632   2.442   2.017   6.632 -2.1007  0.7818  0.9255
14985SOL    HW246633   2.419   1.965   6.492 -0.5875 -0.3736  1.0867
14986SOL     OW46634   6.874   6.820   5.882  0.1472 -0.1031 -0.1111
14986SOL    HW146635   6.912   6.854   5.963  0.1884 -1.0415  0.2688
14986SOL    HW246636   6.854   6.728   5.901  0.9331 -0.5661 -1.4367
14987SOL     OW46637   5.202   2.501   0.803  0.6323 -0.6969  0.0440
14987SOL    HW146638   5.260   2.577   0.799  1.1668 -1.0942  0.1810
14987SOL    HW246639   5.114   2.537   0.789  0.7272  0.1292  1.4536
14988SOL     OW46640   8.768   0.838   8.864  1.1865 -0.2888  0.1585
14988SOL    HW146641   8.706   0.810   8.931  2.0893 -0.8710  0.7808
14988SOL    HW246642   8.717   0.890   8.803  0.1660 -0.4819  0.8371
14989SOL     OW46643   1.530   0.182   1.378 -0.0312 -0.9641 -0.4496
14989SOL    HW146644   1.543   0.221   1.291 -0.4548  0.3355  0.0630
14989SOL    HW246645   1.435   0.173   1.385 -0.0198 -0.7073  0.0348
14990SOL     OW46646   4.158   6.180   2.996 -0.1460 -0.0035  0.4149
14990SOL    HW146647   4.132   6.097   2.957  0.3205 -0.6741  1.5106
14990SOL    HW246648   4.200   6.229   2.924  1.3724 -1.5101  0.2427
14991SOL     OW46649   0.893   1.575   3.254  0.5717  0.0841 -0.1327
14991SOL    HW146650   0.961   1.520   3.293 -0.7658  0.1025  2.3546
14991SOL    HW246651   0.819   1.517   3.243  0.0953  0.7030 -0.2233
14992SOL     OW46652   3.611   5.292   2.051 -0.0555 -0.6124  0.0224
14992SOL    HW146653   3.613   5.301   2.147 -0.1635 -1.1949  0.0787
14992SOL    HW246654   3.701   5.309   2.024  0.1026 -1.0258  0.2817
14993SOL     OW46655   0.464   6.248   0.241  0.2001  0.1418 -0.1632
14993SOL    HW146656   0.389   6.188   0.243  0.7898 -0.6227 -0.7238
14993SOL    HW246657   0.438   6.316   0.180 -1.1559  1.3805  1.7483
14994SOL     OW46658   7.973   8.447   5.724  0.4374  0.4770 -0.0102
14994SOL    HW146659   7.953   8.479   5.636  0.2999 -0.6970 -0.4233
14994SOL    HW246660   7.893   8.401   5.751 -0.3274  2.7069  1.6328
14995SOL     OW46661   4.171   3.767   3.963  0.2161 -0.2298 -0.0366
14995SOL    HW146662   4.096   3.826   3.975  0.8458  0.5022  0.2957
14995SOL    HW246663   4.170   3.746   3.870 -1.0993 -1.1571  0.1657
14996SOL     OW46664   0.693   1.188   2.278 -0.2851 -0.0854 -0.0668
14996SOL    HW146665   0.779   1.146   2.276 -1.1579 -2.3102  3.8727
14996SOL    HW246666   0.641   1.139   2.214  1.5841  2.0564 -3.3817
14997SOL     OW46667   6.758   3.601   8.415  0.3356 -0.0441 -0.5869
14997SOL    HW146668   6.718   3.670   8.362  1.4219  0.4090 -0.8298
14997SOL    HW246669   6.726   3.519   8.376  2.0403  0.2586 -2.7213
14998SOL     OW46670   1.890   8.948   4.135 -0.3458  0.2031 -0.2355
14998SOL    HW146671   1.797   8.961   4.120 -0.2287 -0.6875 -1.9815
14998SOL    HW246672   1.918   9.023   4.188 -1.8132  1.0963 -0.7097
14999SOL     OW46673   0.105   3.459   4.194 -0.3429 -0.2575 -0.6455
14999SOL    HW146674   0.118   3.553   4.181 -2.6502  0.0582 -0.8547
14999SOL    HW246675   0.046   3.433   4.124 -0.3940 -1.7160 -0.0812
15000SOL     OW46676   2.822   4.512   0.737 -0.4927 -0.5406 -0.5927
15000SOL    HW146677   2.914   4.537   0.746  0.1858 -2.8289 -0.7501
15000SOL    HW246678   2.822   4.417   0.751 -3.0129 -0.3933  0.7288
15001SOL     OW46679   3.792   2.504   3.407 -0.1513  0.0660 -0.1683
15001SOL    HW146680   3.802   2.593   3.373 -0.3806  0.1222 -0.0893
15001SOL    HW246681   3.822   2.509   3.498  1.2646 -0.2705 -0.6049
15002SOL     OW46682   2.507   4.317   1.835 -0.2556  0.2080  0.2810
15002SOL    HW146683   2.522   4.409   1.858 -0.1070 -0.0966  1.4184
15002SOL    HW246684   2.413   4.305   1.846  0.0227 -0.3404  2.2860
15003SOL     OW46685   5.124   6.496   1.573  0.0013  0.0142  0.0906
15003SOL    HW146686   5.160   6.522   1.488  0.6011  0.9375  0.6119
15003SOL    HW246687   5.126   6.576   1.626 -1.4164 -0.2746  0.6242
15004SOL     OW46688   2.754   8.948   7.534  0.1573 -0.3900  0.3733
15004SOL    HW146689   2.726   8.984   7.450  0.8376  0.0629  0.3329
15004SOL    HW246690   2.687   8.884   7.557  1.0778 -2.1228 -1.5770
15005SOL     OW46691   2.513   5.326   8.309 -0.0343 -0.8938  0.6782
15005SOL    HW146692   2.567   5.405   8.304 -1.3651 -0.0876 -1.6623
15005SOL    HW246693   2.487   5.321   8.401  1.5925  0.3260  1.2381
15006SOL     OW46694   4.071   3.886   8.841 -0.6471  0.0234 -0.2841
15006SOL    HW146695   4.033   3.882   8.929 -1.0333  1.6105 -0.3557
15006SOL    HW246696   4.007   3.841   8.786  0.2128 -2.1203  0.4250
15007SOL     OW46697   2.348   7.627   1.779  0.1379 -0.1818 -0.0302
15007SOL    HW146698   2.319   7.718   1.784 -1.2036 -0.6739  1.4313
15007SOL    HW246699   2.318   7.587   1.861  3.5002 -1.1520  0.8177
15008SOL     OW46700   5.215   3.958   7.641 -0.6157  0.3026  0.0483
15008SOL    HW146701   5.209   3.868   7.675  0.6218 -0.1813 -0.9659
15008SOL    HW246702   5.177   3.953   7.553  0.3844  0.5410 -0.4062
15009SOL     OW46703   6.498   5.645   8.818 -0.0047 -0.5801  0.0128
15009SOL    HW146704   6.438   5.620   8.888  1.0139  0.4698  1.2720
15009SOL    HW246705   6.474   5.735   8.796  0.3349 -0.5624 -0.2942
15010SOL     OW46706   4.622   1.643   2.287 -0.1085 -0.0656  0.3777
15010SOL    HW146707   4.556   1.576   2.306 -1.8757  1.7023  0.6086
15010SOL    HW246708   4.658   1.619   2.202 -1.8554 -0.4317 -0.2674
15011SOL     OW46709   6.995   3.719   9.261  0.1222 -0.4478 -0.1692
15011SOL    HW146710   6.909   3.756   9.281  0.3142 -0.3140  0.4200
15011SOL    HW246711   7.030   3.691   9.346  1.0058  0.2538 -0.2860
15012SOL     OW46712   1.966   2.461   4.715  0.1307  0.1586 -0.5428
15012SOL    HW146713   1.899   2.395   4.697 -0.6337  1.3195 -2.0159
15012SOL    HW246714   1.952   2.485   4.807 -0.9602 -0.1495 -0.6278
15013SOL     OW46715   8.748   1.570   6.361 -0.6634  0.3776 -0.4192
15013SOL    HW146716   8.713   1.506   6.299  0.8437  0.1807 -1.0799
15013SOL    HW246717   8.748   1.653   6.313 -1.3858  0.6336  0.0047
15014SOL     OW46718   1.323   3.758   1.671 -0.9160 -0.0135 -0.4124
15014SOL    HW146719   1.359   3.681   1.716 -0.5500  1.2078  1.4689
15014SOL    HW246720   1.246   3.782   1.723 -0.5151  1.3998 -0.4371
15015SOL     OW46721   4.919   1.404   8.603  0.3742 -0.3547  0.6539
15015SOL    HW146722   4.872   1.485   8.580  2.7968  0.4810 -1.6213
15015SOL    HW246723   4.877   1.336   8.550  1.1002  0.2371 -0.7299
15016SOL     OW46724   3.015   2.558   1.680 -0.1313 -0.0354  0.0422
15016SOL    HW146725   3.070   2.503   1.735 -0.9733 -1.1284 -0.2057
15016SOL    HW246726   2.931   2.514   1.677 -0.5668  0.8234 -0.8434
15017SOL     OW46727   8.365   3.397   7.285  0.0933 -0.0516  0.3525
15017SOL    HW146728   8.305   3.414   7.211  1.0503  0.6727 -0.2677
15017SOL    HW246729   8.449   3.434   7.257  0.6001 -0.2307  1.6013
15018SOL     OW46730   8.621   1.168   4.863 -0.1326 -0.0707  0.3453
15018SOL    HW146731   8.643   1.110   4.791 -1.7855 -1.7655  1.1669
15018SOL    HW246732   8.686   1.147   4.931  1.4038  1.5054 -0.5698
15019SOL     OW46733   9.079   2.227   4.983  0.4937  0.0514  0.0619
15019SOL    HW146734   9.160   2.213   5.032 -0.1884  0.8700  1.4740
15019SOL    HW246735   9.052   2.140   4.956  1.3988 -0.3196  0.3266
15020SOL     OW46736   3.485   1.605   2.464  0.0198 -0.1846 -0.3948
15020SOL    HW146737   3.531   1.623   2.546 -1.2682  0.6070  0.1688
15020SOL    HW246738   3.508   1.515   2.443  0.8288 -0.2031  0.5383
15021SOL     OW46739   6.262   1.765   0.499 -0.6927  0.1291  0.4545
15021SOL    HW146740   6.235   1.784   0.409 -0.7350 -0.6629  0.2955
15021SOL    HW246741   6.357   1.775   0.498 -0.6203 -0.5530  0.1493
15022SOL     OW46742   5.023   3.368   4.216 -0.3247 -0.0808  0.4006
15022SOL    HW146743   5.075   3.447   4.197 -1.5874  0.9266  1.0452
15022SOL    HW246744   4.963   3.361   4.142 -0.2705 -0.4110  0.3858
15023SOL     OW46745   4.752   3.803   6.374 -0.0569 -0.4207 -0.0749
15023SOL    HW146746   4.774   3.759   6.456  1.2041 -1.5649 -0.9887
15023SOL    HW246747   4.669   3.846   6.391  0.4707 -0.1552  1.9788
15024SOL     OW46748   1.784   8.612   2.651  0.2383 -0.0965 -0.3547
15024SOL    HW146749   1.858   8.635   2.596  1.2873  1.8047  1.7711
15024SOL    HW246750   1.814   8.538   2.703  0.0725 -0.3895 -0.6784
15025SOL     OW46751   2.596   7.552   5.133 -0.3206 -0.2515  0.4327
15025SOL    HW146752   2.650   7.489   5.180  2.9771  1.7251 -0.6021
15025SOL    HW246753   2.576   7.620   5.198 -0.9358 -0.5814  0.5954
15026SOL     OW46754   6.041   1.997   9.282  0.2208 -0.0589  0.0118
15026SOL    HW146755   6.081   2.083   9.294  0.9248 -0.4416  0.4737
15026SOL    HW246756   6.015   1.970   9.370  0.5216 -0.5581 -0.0476
15027SOL     OW46757   2.856   1.697   6.977  0.3513  0.0061  0.3431
15027SOL    HW146758   2.779   1.641   6.988  0.0944 -0.2337 -2.4234
15027SOL    HW246759   2.918   1.665   7.043 -0.1013 -3.0074 -0.6407
15028SOL     OW46760   8.332   2.022   6.885 -0.0771 -0.2053 -0.1887
15028SOL    HW146761   8.395   1.990   6.949  0.3177  0.2556 -0.3389
15028SOL    HW246762   8.272   1.949   6.871  0.2067 -0.5208  0.2333
15029SOL     OW46763   2.223   6.036   5.104  0.5451 -0.1804 -0.9928
15029SOL    HW146764   2.156   6.090   5.062 -1.3682 -1.3285  0.5099
15029SOL    HW246765   2.232   6.073   5.192 -0.8010 -2.2458  0.0670
15030SOL     OW46766   3.853   0.922   4.388 -0.1810 -0.0512  0.0431
15030SOL    HW146767   3.758   0.927   4.376 -0.5765 -0.4190  2.7387
15030SOL    HW246768   3.877   1.004   4.430  0.5418 -0.4199  0.3666
15031SOL     OW46769   8.646   8.016   4.396 -0.7245  0.1593  0.0356
15031SOL    HW146770   8.720   7.992   4.341 -0.9382 -0.1298 -0.1248
15031SOL    HW246771   8.574   7.963   4.364 -0.9775  0.3670  0.2592
15032SOL     OW46772   8.904   5.720   7.323 -0.6311 -0.4574  0.7691
15032SOL    HW146773   8.841   5.752   7.388 -1.1649 -0.3990  0.2255
15032SOL    HW246774   8.924   5.798   7.270 -0.3350 -0.5443  0.7575
15033SOL     OW46775   4.906   6.035   4.190  0.4867 -0.7720 -0.0676
15033SOL    HW146776   4.818   6.018   4.155 -0.8015 -0.1261  2.7179
15033SOL    HW246777   4.952   5.952   4.182 -0.3545 -1.0899 -1.6369
15034SOL     OW46778   8.879   5.056   2.022  0.2119  0.1721  0.5157
15034SOL    HW146779   8.933   5.133   2.040 -0.3515  0.6118  0.3412
15034SOL    HW246780   8.891   5.039   1.929 -0.8465  0.9610  0.2337
15035SOL     OW46781   8.912   1.095   3.533 -0.2696  0.5321 -0.9537
15035SOL    HW146782   8.873   1.011   3.557 -0.9523  1.3950  1.0626
15035SOL    HW246783   8.998   1.094   3.575  0.1977  0.3941 -1.8872
15036SOL     OW46784   6.238   4.776   3.771  0.6589 -0.1189  0.3618
15036SOL    HW146785   6.250   4.785   3.676 -2.0935  3.7689  0.2925
15036SOL    HW246786   6.327   4.778   3.806  1.7225 -1.5000 -2.0756
15037SOL     OW46787   3.429   5.476   1.857  0.2462  0.2373 -0.1810
15037SOL    HW146788   3.493   5.546   1.870  1.4637 -0.3447 -2.7768
15037SOL    HW246789   3.470   5.399   1.897  1.7119 -0.3730 -2.7126
15038SOL     OW46790   4.883   6.379   8.708 -0.1649  0.8539 -0.0561
15038SOL    HW146791   4.888   6.466   8.670  1.7835  0.3977 -0.8903
15038SOL    HW246792   4.881   6.319   8.634 -0.0438  0.1352  0.5048
15039SOL     OW46793   2.755   3.480   5.116  0.1993 -0.2870  0.6246
15039SOL    HW146794   2.698   3.557   5.121  0.4433 -0.2030  2.4012
15039SOL    HW246795   2.813   3.488   5.192  2.2687 -0.6295 -0.8978
15040SOL     OW46796   8.155   3.510   6.825  0.2468  0.1715 -0.2153
15040SOL    HW146797   8.182   3.519   6.734  0.7285 -1.7585 -0.2790
15040SOL    HW246798   8.061   3.490   6.820 -0.0471  1.5265 -0.2190
15041SOL     OW46799   6.265   4.063   3.231  0.7644  0.0145 -0.1593
15041SOL    HW146800   6.326   4.004   3.275 -0.4958 -1.2675 -0.0699
15041SOL    HW246801   6.208   4.095   3.301 -1.6173 -2.4858 -0.8817
15042SOL     OW46802   4.108   4.713   3.700 -0.0210  0.1504  0.3372
15042SOL    HW146803   4.193   4.725   3.743  0.6415  0.3416 -0.9895
15042SOL    HW246804   4.119   4.754   3.613 -0.6281 -2.1331 -0.8546
15043SOL     OW46805   4.993   2.871   6.496 -0.0957 -0.5489 -0.2710
15043SOL    HW146806   4.904   2.863   6.461 -0.2746  0.5755 -0.0645
15043SOL    HW246807   5.007   2.789   6.544 -1.5563 -0.1227  0.9132
15044SOL     OW46808   5.170   0.388   4.598 -0.0847  0.7941 -0.3960
15044SOL    HW146809   5.109   0.324   4.634 -1.2870  2.1127 -0.0486
15044SOL    HW246810   5.195   0.353   4.512  0.6691 -1.0091  0.5303
15045SOL     OW46811   1.786   7.663   0.117  0.3123 -0.1785  0.0121
15045SOL    HW146812   1.872   7.702   0.098 -0.1558  0.2862 -1.2029
15045SOL    HW246813   1.785   7.582   0.067  0.9130 -1.3120  1.8022
15046SOL     OW46814   4.129   1.223   4.559  0.5143  0.0689  0.6365
15046SOL    HW146815   4.096   1.220   4.470  0.5094  0.1049  0.6374
15046SOL    HW246816   4.057   1.190   4.613  1.5129 -2.7494  0.3373
15047SOL     OW46817   4.610   6.899   7.599  0.0619 -0.3278  0.0405
15047SOL    HW146818   4.657   6.828   7.555  0.8776  0.5682 -0.5714
15047SOL    HW246819   4.668   6.925   7.671  1.4519  2.0517 -1.8583
15048SOL     OW46820   8.233   7.305   5.603  0.3692  0.2966 -0.3805
15048SOL    HW146821   8.281   7.380   5.567  0.5211  0.6250  0.5065
15048SOL    HW246822   8.216   7.249   5.527  2.1463  0.1837 -0.7149
15049SOL     OW46823   2.829   0.752   7.915 -0.4460 -0.2944 -0.7310
15049SOL    HW146824   2.867   0.804   7.844 -0.3838 -0.6665 -0.9711
15049SOL    HW246825   2.736   0.777   7.915 -0.2659  0.3851 -0.3434
15050SOL     OW46826   3.116   4.682   4.734 -0.0249 -0.2897  0.3097
15050SOL    HW146827   3.150   4.594   4.719 -1.9073 -0.9840 -0.0310
15050SOL    HW246828   3.068   4.703   4.654  1.5439  1.6233 -0.1725
15051SOL     OW46829   8.062   4.585   1.301 -0.1466 -0.2725  0.3854
15051SOL    HW146830   8.073   4.555   1.391  1.4425  3.3399  1.5048
15051SOL    HW246831   7.987   4.643   1.304 -0.5559 -0.7132 -0.8063
15052SOL     OW46832   3.331   6.854   7.981 -0.1039 -0.0400 -0.0661
15052SOL    HW146833   3.387   6.888   8.050  0.7145  1.5415 -1.4867
15052SOL    HW246834   3.322   6.761   8.002  0.9370  0.2037  1.5962
15053SOL     OW46835   2.271   8.468   6.968 -0.1104 -0.2458  0.5997
15053SOL    HW146836   2.250   8.408   7.039 -1.8323  0.7052  0.9234
15053SOL    HW246837   2.302   8.412   6.897 -2.9214 -1.6699  0.4278
15054SOL     OW46838   2.353   3.422   0.041  0.0382 -0.5793 -0.2017
15054SOL    HW146839   2.271   3.439   0.088 -0.5501 -0.3531 -1.2877
15054SOL    HW246840   2.389   3.343   0.083 -0.4005 -0.2981  0.7145
15055SOL     OW46841   6.290   5.951   3.984  0.1167  0.3858  0.4331
15055SOL    HW146842   6.370   5.940   4.035  0.4231 -0.3043 -0.1899
15055SOL    HW246843   6.245   6.024   4.026  0.7950  0.4052  1.1410
15056SOL     OW46844   8.759   3.071   1.620 -0.2278 -0.1420  0.2164
15056SOL    HW146845   8.843   3.108   1.595 -0.9979  1.3244 -0.2678
15056SOL    HW246846   8.777   2.978   1.634  1.7219  0.3825  1.4002
15057SOL     OW46847   1.008   2.019   1.746 -0.1729  0.9268 -0.0934
15057SOL    HW146848   1.063   1.964   1.802 -0.5041  0.4358 -0.2411
15057SOL    HW246849   1.057   2.024   1.663 -1.5373 -1.6786 -1.1287
15058SOL     OW46850   8.169   4.090   8.878  0.4456  0.0737 -0.2929
15058SOL    HW146851   8.131   4.071   8.964  0.1696 -0.5424 -0.5484
15058SOL    HW246852   8.140   4.179   8.858  0.0792  0.0240  0.0169
15059SOL     OW46853   1.247   7.679   6.487 -0.3485 -0.3980  0.6240
15059SOL    HW146854   1.328   7.723   6.515 -0.6861 -0.2542  1.4048
15059SOL    HW246855   1.230   7.615   6.557 -0.4231 -1.0509  0.0124
15060SOL     OW46856   3.029   0.501   6.702  0.6797 -0.5462  0.3480
15060SOL    HW146857   3.018   0.504   6.606  1.2922  1.6789  0.3107
15060SOL    HW246858   2.961   0.440   6.732 -2.2821  1.8765 -1.1589
15061SOL     OW46859   4.428   2.531   3.709  0.1694  0.0471  0.3576
15061SOL    HW146860   4.478   2.538   3.627  1.4666 -3.0032  0.8447
15061SOL    HW246861   4.383   2.616   3.716  2.8221  1.7165 -1.6912
15062SOL     OW46862   1.269   8.759   1.840  0.4340  0.6280 -0.0520
15062SOL    HW146863   1.306   8.737   1.926  0.1961 -0.2481 -0.1637
15062SOL    HW246864   1.345   8.770   1.783  0.5598 -0.1236 -0.0376
15063SOL     OW46865   0.634   6.422   2.233  0.0500  0.2554  0.1605
15063SOL    HW146866   0.725   6.407   2.256  0.3117  1.3931 -0.1250
15063SOL    HW246867   0.590   6.433   2.318  0.2856  0.3510  0.2716
15064SOL     OW46868   2.375   0.389   3.841  0.2984  0.1630  0.4313
15064SOL    HW146869   2.442   0.326   3.869 -1.5222 -1.2414  1.6899
15064SOL    HW246870   2.333   0.346   3.766  0.2304  0.6773  0.1753
15065SOL     OW46871   5.896   6.032   6.106  0.0828 -0.2323 -0.2745
15065SOL    HW146872   5.829   5.979   6.150  0.2218 -0.6463 -0.5608
15065SOL    HW246873   5.847   6.086   6.044 -0.3007  1.5321  1.5013
15066SOL     OW46874   3.706   2.736   4.016  0.0556 -0.8433  0.0032
15066SOL    HW146875   3.776   2.709   3.956 -1.1093 -1.0339 -1.2950
15066SOL    HW246876   3.696   2.829   4.001  0.0097 -0.8211  0.1718
15067SOL     OW46877   2.931   0.116   8.551  0.1414  0.0285  0.3351
15067SOL    HW146878   3.002   0.056   8.529 -0.7228 -0.6936 -0.5378
15067SOL    HW246879   2.956   0.199   8.511 -0.5598 -0.8095 -1.9297
15068SOL     OW46880   9.140   2.064   2.123 -0.0096  0.1682 -0.3369
15068SOL    HW146881   9.097   2.133   2.174 -1.6317  0.4933 -2.1225
15068SOL    HW246882   9.177   2.005   2.190 -2.1782  0.5216  1.2187
15069SOL     OW46883   0.670   2.543   5.283 -0.3149  0.2068 -0.1087
15069SOL    HW146884   0.731   2.612   5.310 -0.0848  0.2661 -0.7668
15069SOL    HW246885   0.630   2.577   5.203 -1.6200  0.4019  0.6275
15070SOL     OW46886   8.432   4.987   0.298  0.6935 -0.6284  0.2206
15070SOL    HW146887   8.412   5.061   0.242 -0.9595  0.4062  2.1386
15070SOL    HW246888   8.408   4.910   0.246  0.5548  0.2511 -1.0229
15071SOL     OW46889   6.098   3.263   2.072 -0.1269 -0.1240  0.4589
15071SOL    HW146890   6.181   3.216   2.064 -0.0214  0.2513 -0.7710
15071SOL    HW246891   6.117   3.335   2.131  0.2420 -0.4465  0.7377
15072SOL     OW46892   7.144   6.025   3.351  0.2618 -0.3193  0.8631
15072SOL    HW146893   7.239   6.038   3.346  0.0882  1.3809  1.5313
15072SOL    HW246894   7.119   5.998   3.262  1.4280 -1.3407  0.8212
15073SOL     OW46895   8.434   0.451   6.531 -0.3223 -0.3536  0.0206
15073SOL    HW146896   8.408   0.511   6.461 -2.4350 -2.4989 -1.1083
15073SOL    HW246897   8.444   0.366   6.487  1.5545 -1.0833  1.7694
15074SOL     OW46898   0.369   7.298   0.785 -0.2739  0.2924  0.2450
15074SOL    HW146899   0.318   7.273   0.862 -0.6654  1.4759  0.3758
15074SOL    HW246900   0.307   7.291   0.712  0.3286 -1.7009 -0.1226
15075SOL     OW46901   1.671   3.686   3.405  0.0188 -0.0090 -0.6492
15075SOL    HW146902   1.593   3.641   3.370 -1.8284  0.7516  2.3024
15075SOL    HW246903   1.695   3.748   3.336 -2.7457  0.5821 -1.1517
15076SOL     OW46904   7.601   5.104   0.147 -0.0326 -0.4404  0.0239
15076SOL    HW146905   7.572   5.157   0.221 -0.5494  0.5899 -0.8985
15076SOL    HW246906   7.654   5.034   0.186 -0.0243  0.2818  1.3259
15077SOL     OW46907   2.727   5.158   4.027  0.2815 -0.1627 -0.2047
15077SOL    HW146908   2.817   5.185   4.039  0.0026  1.2815 -1.2197
15077SOL    HW246909   2.694   5.139   4.115  1.4422 -0.3236  0.1947
15078SOL     OW46910   7.363   5.438   2.860 -0.7662  0.0870 -0.3816
15078SOL    HW146911   7.380   5.446   2.954 -0.6357  0.4812 -0.4408
15078SOL    HW246912   7.345   5.345   2.848  1.0921 -0.3182 -0.2689
15079SOL     OW46913   7.433   8.544   5.192 -0.1522  0.5602 -0.3113
15079SOL    HW146914   7.456   8.618   5.136  0.4556  0.6666  0.0737
15079SOL    HW246915   7.344   8.521   5.166  0.0769  0.6924 -1.2197
15080SOL     OW46916   0.676   4.484   1.398  0.6415  0.0569  0.4435
15080SOL    HW146917   0.740   4.555   1.397  1.1224 -0.3608  1.0623
15080SOL    HW246918   0.653   4.470   1.306 -0.4297  1.8933  0.4206
15081SOL     OW46919   0.468   6.966   9.102 -0.1794  0.7331 -0.2926
15081SOL    HW146920   0.462   6.886   9.155 -1.1294  1.0506  0.1030
15081SOL    HW246921   0.476   7.037   9.165 -0.0569  1.0069 -0.6121
15082SOL     OW46922   0.556   1.056   2.077  0.3732 -0.0849 -0.2498
15082SOL    HW146923   0.553   1.140   2.032  1.1131 -0.4283 -0.9551
15082SOL    HW246924   0.479   1.009   2.044  0.5208 -0.0692 -0.6165
15083SOL     OW46925   1.046   8.530   6.813  0.7349  0.2643  0.1455
15083SOL    HW146926   1.039   8.619   6.848  1.6212 -0.5246  2.4700
15083SOL    HW246927   1.125   8.532   6.758  0.5708  0.9960 -0.0666
15084SOL     OW46928   2.254   0.075   4.656  0.3290  0.2154  0.0926
15084SOL    HW146929   2.205   0.031   4.586 -1.3537 -0.4317  1.6364
15084SOL    HW246930   2.302   0.145   4.611 -0.9778  0.0157 -1.6704
15085SOL     OW46931   4.503   4.308   5.501  0.2911  0.2277 -0.5863
15085SOL    HW146932   4.448   4.287   5.576 -1.1750  2.0268 -1.1076
15085SOL    HW246933   4.558   4.381   5.531  0.9025 -0.1747 -0.7239
15086SOL     OW46934   1.432   2.363   0.624 -0.1689  0.9732 -0.1126
15086SOL    HW146935   1.413   2.273   0.650  2.2157  0.0162 -1.5884
15086SOL    HW246936   1.467   2.404   0.703  0.7665 -0.0229  0.0014
15087SOL     OW46937   0.415   4.153   3.155 -0.3646 -0.2565 -0.6506
15087SOL    HW146938   0.334   4.153   3.105 -0.0322  2.1193 -1.2148
15087SOL    HW246939   0.392   4.111   3.238 -2.1092  0.1943 -0.8878
15088SOL     OW46940   0.223   8.632   6.198 -0.1327  0.4168  0.4147
15088SOL    HW146941   0.152   8.606   6.257 -0.6057  1.1329  0.1755
15088SOL    HW246942   0.192   8.607   6.111  0.6513 -0.8212  0.4836
15089SOL     OW46943   3.017   7.906   5.452 -0.6046  0.0383  0.3025
15089SOL    HW146944   3.030   7.940   5.364 -0.6953 -1.8808 -0.4694
15089SOL    HW246945   2.923   7.916   5.468 -0.6191  0.1945  0.1101
15090SOL     OW46946   2.023   3.453   2.129 -0.1337 -0.1413 -0.2685
15090SOL    HW146947   2.083   3.523   2.153 -0.0693 -0.5042  0.6481
15090SOL    HW246948   1.936   3.486   2.154 -0.3387  0.4146 -1.6591
15091SOL     OW46949   2.987   7.273   9.161 -0.2924 -0.1698  0.1295
15091SOL    HW146950   2.952   7.206   9.103  1.6980 -0.4197 -0.8400
15091SOL    HW246951   3.042   7.328   9.104  0.5032  0.4770  1.4827
15092SOL     OW46952   4.205   5.330   4.581 -0.5393  0.6452 -0.0557
15092SOL    HW146953   4.160   5.296   4.503  1.5606  0.9676 -1.4670
15092SOL    HW246954   4.291   5.357   4.548  0.5788  0.2931  2.5100
15093SOL     OW46955   8.586   7.072   1.642 -0.1880  0.0918  0.1866
15093SOL    HW146956   8.511   7.011   1.642  1.4093 -1.9482 -0.5547
15093SOL    HW246957   8.589   7.107   1.730 -1.6975 -0.2053  0.3769
15094SOL     OW46958   5.902   4.325   1.625 -0.3743 -0.4626  0.3190
15094SOL    HW146959   5.855   4.396   1.669 -1.1141  0.0723 -1.3001
15094SOL    HW246960   5.985   4.364   1.598 -0.7560 -0.2096 -0.5180
15095SOL     OW46961   7.251   0.597   3.299 -0.1848 -0.2249  0.4245
15095SOL    HW146962   7.292   0.551   3.373  0.0424  0.2720  0.6074
15095SOL    HW246963   7.285   0.551   3.222  2.1590  1.2994  0.4808
15096SOL     OW46964   3.326   7.341   8.109 -0.1253  0.5267  0.1821
15096SOL    HW146965   3.285   7.268   8.064 -1.5615  1.8444 -0.6685
15096SOL    HW246966   3.348   7.403   8.040  1.0578  0.9235  0.8990
15097SOL     OW46967   3.173   5.461   8.846  0.3847  0.1650 -0.6961
15097SOL    HW146968   3.082   5.467   8.817 -0.4860 -3.0422  1.0819
15097SOL    HW246969   3.210   5.388   8.796  1.1570 -0.3064  0.5292
15098SOL     OW46970   0.108   0.606   5.709 -0.2126  0.3568  0.0028
15098SOL    HW146971   0.017   0.593   5.684 -0.5639 -0.3766  1.6169
15098SOL    HW246972   0.117   0.701   5.719 -0.5721  0.4963 -0.9280
15099SOL     OW46973   7.893   0.128   0.677  0.1160 -0.3917  0.4393
15099SOL    HW146974   7.864   0.089   0.759 -0.8761  0.3094  0.4349
15099SOL    HW246975   7.865   0.219   0.683 -0.1546 -0.3917 -0.7790
15100SOL     OW46976   8.334   0.278   4.704  0.2686 -0.0179  0.5643
15100SOL    HW146977   8.240   0.294   4.712  0.2946  0.7798 -0.5887
15100SOL    HW246978   8.357   0.233   4.785 -1.1639 -0.5065  0.7232
15101SOL     OW46979   0.301   6.797   7.906 -0.0657 -0.0330  0.0815
15101SOL    HW146980   0.310   6.891   7.891  0.5263 -0.1165 -0.0968
15101SOL    HW246981   0.235   6.769   7.843  0.9844 -0.0297 -1.0457
15102SOL     OW46982   7.507   5.672   3.423 -0.2714  0.2812  0.1395
15102SOL    HW146983   7.500   5.577   3.414 -2.1483  0.4194 -0.0594
15102SOL    HW246984   7.521   5.686   3.517  0.9223 -0.2358  0.0389
15103SOL     OW46985   6.574   7.160   4.107 -0.0926  0.3128  0.1652
15103SOL    HW146986   6.631   7.084   4.111 -0.7392 -0.2145 -0.5294
15103SOL    HW246987   6.502   7.140   4.168  0.8331  1.2950  1.6087
15104SOL     OW46988   2.291   3.467   7.256 -0.1069 -0.4089  0.3715
15104SOL    HW146989   2.349   3.482   7.330  0.1141  0.2838  0.0676
15104SOL    HW246990   2.346   3.483   7.179 -1.7597  4.8195  0.0657
15105SOL     OW46991   3.138   0.067   0.861 -0.6098  1.0921  0.0835
15105SOL    HW146992   3.208   0.004   0.847 -0.0168  1.5437  0.9470
15105SOL    HW246993   3.059   0.023   0.830  0.0367  0.5455 -0.8144
15106SOL     OW46994   5.842   6.906   4.926 -0.0639  0.7946 -0.2533
15106SOL    HW146995   5.829   6.846   4.999 -0.3569 -0.4920 -1.3303
15106SOL    HW246996   5.878   6.851   4.856 -0.2832  1.8805 -1.2400
15107SOL     OW46997   2.953   6.131   5.009 -0.3973 -0.1747 -0.2834
15107SOL    HW146998   2.978   6.040   5.027  0.8641  0.1514 -0.3781
15107SOL    HW246999   2.967   6.142   4.915 -1.5966 -0.1964 -0.4761
15108SOL     OW47000   7.248   4.873   6.502 -0.5377 -0.4411  0.2278
15108SOL    HW147001   7.289   4.804   6.554 -0.0637  0.0764  0.5432
15108SOL    HW247002   7.321   4.929   6.475 -0.6518 -1.2163 -1.7708
15109SOL     OW47003   0.400   4.513   3.552  0.0727 -0.0621  0.9064
15109SOL    HW147004   0.392   4.567   3.630  0.2709  0.5255  0.5237
15109SOL    HW247005   0.311   4.504   3.519  0.1371  0.7313  0.5058
15110SOL     OW47006   4.554   0.044   0.030 -0.2294  0.1891 -0.3021
15110SOL    HW147007   4.579   0.135   0.010  1.1408 -0.2065 -0.4175
15110SOL    HW247008   4.521   0.047   0.120  1.1532  0.5620  0.2081
15111SOL     OW47009   6.582   8.342   4.318 -0.6529  0.3348 -0.0209
15111SOL    HW147010   6.516   8.283   4.282  1.1425 -1.7883 -0.0150
15111SOL    HW247011   6.578   8.328   4.412  2.4657 -2.9072 -0.2590
15112SOL     OW47012   6.695   0.512   2.387 -0.2598 -0.3979 -0.6675
15112SOL    HW147013   6.692   0.607   2.379 -0.6521 -0.2565  0.9302
15112SOL    HW247014   6.643   0.480   2.314 -1.1893  0.6682 -0.4886
15113SOL     OW47015   1.489   0.374   7.468  0.1957  0.0304  0.1418
15113SOL    HW147016   1.454   0.440   7.408 -0.2514  0.2308  0.6164
15113SOL    HW247017   1.460   0.290   7.433 -0.0803  0.1485  0.0917
15114SOL     OW47018   2.171   7.856   7.634  0.1100  0.4805 -0.2555
15114SOL    HW147019   2.108   7.869   7.564 -0.4040 -0.5759  0.0066
15114SOL    HW247020   2.249   7.822   7.590 -0.0183  0.3523 -0.3843
15115SOL     OW47021   1.138   5.566   1.768 -0.4428 -0.3868 -0.3331
15115SOL    HW147022   1.180   5.576   1.683 -0.6536 -0.9945 -0.5158
15115SOL    HW247023   1.154   5.474   1.792 -1.3640 -0.5311 -0.2478
15116SOL     OW47024   4.124   7.205   2.383  0.1766 -0.5102  0.0089
15116SOL    HW147025   4.140   7.118   2.419 -2.1552 -0.5932  0.9145
15116SOL    HW247026   4.104   7.260   2.459  2.8104  1.1534 -0.4172
15117SOL     OW47027   1.586   2.744   0.438  0.0723  0.2279 -0.0700
15117SOL    HW147028   1.617   2.730   0.349 -0.7060 -1.2390 -0.1308
15117SOL    HW247029   1.645   2.692   0.492  2.3685  3.4203  0.6012
15118SOL     OW47030   0.328   9.117   3.821 -0.5642 -0.0478  0.0812
15118SOL    HW147031   0.291   9.046   3.873  0.0945 -0.8868 -0.5861
15118SOL    HW247032   0.303   9.196   3.868  0.5220 -0.8125  2.0066
15119SOL     OW47033   4.185   4.277   6.050 -0.0592  0.1151 -0.1325
15119SOL    HW147034   4.191   4.371   6.031  0.2877 -0.0228 -0.7183
15119SOL    HW247035   4.204   4.270   6.143  0.4235  0.5716 -0.1966
15120SOL     OW47036   3.545   6.624   2.334  0.4776  0.3342 -0.0243
15120SOL    HW147037   3.497   6.556   2.286  0.5466  0.1827  0.1179
15120SOL    HW247038   3.583   6.679   2.265 -0.1095  0.6073 -0.1329
15121SOL     OW47039   0.225   2.115   8.988 -0.2767 -0.3262 -0.3045
15121SOL    HW147040   0.195   2.203   9.011  0.9164 -0.1441  0.5767
15121SOL    HW247041   0.151   2.058   9.010 -0.7768  0.3743 -0.1721
15122SOL     OW47042   6.877   9.227   5.054 -0.5524 -0.3233 -0.1897
15122SOL    HW147043   6.806   9.291   5.058  1.5698  1.9666  4.6152
15122SOL    HW247044   6.937   9.261   4.988 -0.9286  1.0464  0.1583
15123SOL     OW47045   2.908   2.731   0.435  0.3651  0.5910  0.0614
15123SOL    HW147046   2.910   2.796   0.365 -0.1268  1.1154  0.5259
15123SOL    HW247047   2.908   2.782   0.515 -0.2814  0.0220  0.4307
15124SOL     OW47048   1.812   3.653   6.971  0.3510 -0.6098 -1.0503
15124SOL    HW147049   1.814   3.678   7.063 -0.0019  0.5977 -1.3654
15124SOL    HW247050   1.904   3.641   6.947  0.7379  3.0056 -1.5830
15125SOL     OW47051   0.731   5.448   7.737  0.1197 -0.2896 -0.2513
15125SOL    HW147052   0.757   5.366   7.778 -1.5533 -0.6953  0.0267
15125SOL    HW247053   0.730   5.428   7.643  0.9076 -0.2304 -0.2785
15126SOL     OW47054   4.700   3.952   4.866 -0.7174  0.5660 -0.1577
15126SOL    HW147055   4.664   4.040   4.852 -1.6517  0.4527  1.3715
15126SOL    HW247056   4.747   3.959   4.949 -1.5285 -0.5814  0.4087
15127SOL     OW47057   1.370   8.641   2.047  0.0636  0.0009  0.3296
15127SOL    HW147058   1.382   8.615   2.139  1.5739 -1.4471 -0.2550
15127SOL    HW247059   1.454   8.623   2.006 -0.4082  1.2310 -1.2242
15128SOL     OW47060   1.327   8.507   2.738 -0.3755 -0.7263 -0.0494
15128SOL    HW147061   1.335   8.470   2.826  2.8040 -0.2694 -0.0779
15128SOL    HW247062   1.414   8.543   2.720 -1.3098  0.1784 -2.9456
15129SOL     OW47063   1.325   8.237   0.960  0.0197 -0.3433 -0.1956
15129SOL    HW147064   1.288   8.185   1.031 -1.7537  2.6719  1.1792
15129SOL    HW247065   1.314   8.182   0.882 -1.7312 -2.0312  1.1876
15130SOL     OW47066   8.215   1.383   4.175  0.0127 -0.1404 -0.1867
15130SOL    HW147067   8.221   1.445   4.248 -0.0227 -0.9824  0.5405
15130SOL    HW247068   8.138   1.410   4.126  1.7973  2.3663 -1.7260
15131SOL     OW47069   3.633   9.214   8.022  0.2089 -0.8087 -0.0153
15131SOL    HW147070   3.649   9.143   8.084  0.4888 -0.0621  0.7872
15131SOL    HW247071   3.540   9.206   8.000  0.2985 -1.5775 -0.1283
15132SOL     OW47072   4.981   5.612   1.185 -0.0932  0.4248 -0.3812
15132SOL    HW147073   5.026   5.541   1.231 -1.5837 -0.7586 -0.7053
15132SOL    HW247074   5.002   5.598   1.093  0.3996  0.9768 -0.3521
15133SOL     OW47075   8.394   6.449   9.085 -0.0100 -0.4082  0.3737
15133SOL    HW147076   8.415   6.363   9.121 -0.4918  0.1943  2.1554
15133SOL    HW247077   8.302   6.443   9.059 -0.0883 -0.3985  0.6437
15134SOL     OW47078   7.195   2.676   5.072  0.3788 -0.1160  0.4109
15134SOL    HW147079   7.103   2.700   5.061  0.2960  0.6989  2.5330
15134SOL    HW247080   7.199   2.584   5.046 -0.9344 -0.0128 -0.1963
15135SOL     OW47081   1.629   5.310   6.540 -0.2503  0.7851  0.1391
15135SOL    HW147082   1.667   5.385   6.586 -0.6297 -0.8833  3.3037
15135SOL    HW247083   1.704   5.267   6.499  0.0083  2.6417 -1.4596
15136SOL     OW47084   4.961   0.744   2.605 -0.0184 -0.0484  0.3557
15136SOL    HW147085   5.022   0.749   2.531 -1.4166 -0.1230 -0.8150
15136SOL    HW247086   4.996   0.807   2.669  0.2797  1.2460 -1.0541
15137SOL     OW47087   2.808   4.678   4.958 -0.5011  0.7390  0.2105
15137SOL    HW147088   2.812   4.653   4.866  1.9172  2.5118 -0.2044
15137SOL    HW247089   2.719   4.712   4.969 -1.2261 -0.6292 -1.1299
15138SOL     OW47090   1.702   2.702   6.097 -0.3017  0.1443  0.5780
15138SOL    HW147091   1.678   2.727   6.008 -1.1785 -1.5068  0.3449
15138SOL    HW247092   1.797   2.691   6.095 -0.2943  0.3574 -0.0853
15139SOL     OW47093   4.910   4.721   7.064 -0.0713  0.1929  0.2334
15139SOL    HW147094   4.934   4.735   7.155  1.7126  0.2605 -0.2269
15139SOL    HW247095   4.945   4.797   7.018  0.4799 -0.6255 -0.7346
15140SOL     OW47096   7.167   4.946   6.840 -0.0281 -0.3822  0.3368
15140SOL    HW147097   7.228   4.899   6.897  1.6474  0.5415 -0.6480
15140SOL    HW247098   7.134   4.878   6.781  2.2512 -0.4294 -0.9724
15141SOL     OW47099   2.070   2.320   5.166  0.2013  0.3628 -0.1109
15141SOL    HW147100   2.131   2.247   5.161  0.2441  0.3934 -0.0358
15141SOL    HW247101   2.079   2.365   5.082  0.7359  0.7289  0.1361
15142SOL     OW47102   3.772   6.850   9.236 -0.2551 -0.7304 -0.1228
15142SOL    HW147103   3.732   6.937   9.225 -1.8131 -1.7099 -2.5429
15142SOL    HW247104   3.757   6.806   9.153 -0.2316 -3.6445  1.3609
15143SOL     OW47105   2.232   7.120   3.061 -0.1667  0.3116 -0.2704
15143SOL    HW147106   2.224   7.141   3.154 -0.3743 -0.9881  0.0140
15143SOL    HW247107   2.326   7.109   3.047 -0.1233  0.6487 -0.2441
15144SOL     OW47108   2.127   5.374   2.497 -0.2144 -0.4880 -0.0854
15144SOL    HW147109   2.197   5.309   2.505 -0.4840 -0.5381  2.5131
15144SOL    HW247110   2.065   5.350   2.567 -2.4658 -0.0030 -1.8493
15145SOL     OW47111   5.255   0.948   1.403 -0.2444  0.2037 -0.6215
15145SOL    HW147112   5.169   0.945   1.360 -0.4126  1.8305 -0.4330
15145SOL    HW247113   5.271   1.041   1.417  1.0075 -0.1676  0.4569
15146SOL     OW47114   3.288   5.531   6.677 -0.0826  0.2718  0.6449
15146SOL    HW147115   3.193   5.525   6.686 -0.2833  0.6870 -0.9069
15146SOL    HW247116   3.303   5.622   6.650  0.6423 -0.0867 -0.1810
15147SOL     OW47117   1.736   8.847   8.271 -0.5365  0.2808  0.7898
15147SOL    HW147118   1.664   8.877   8.215  0.2090  0.8002  0.1113
15147SOL    HW247119   1.808   8.906   8.252 -0.1900  0.3003  2.1150
15148SOL     OW47120   9.011   1.845   2.313  0.5033 -0.3200  0.0496
15148SOL    HW147121   9.002   1.940   2.308 -0.6627 -0.5006 -1.5863
15148SOL    HW247122   8.963   1.820   2.391  0.7071  0.4196  0.4153
15149SOL     OW47123   1.880   5.644   3.533  0.1843 -0.4154  0.2464
15149SOL    HW147124   1.830   5.587   3.592  0.0992 -0.7635 -0.1577
15149SOL    HW247125   1.818   5.712   3.507  0.4228  0.1435  1.1076
15150SOL     OW47126   7.727   8.744   1.475 -0.0684 -0.5119 -0.6791
15150SOL    HW147127   7.669   8.784   1.540  0.8629  1.0739 -0.7977
15150SOL    HW247128   7.679   8.752   1.392 -0.7348 -1.4310 -0.3823
15151SOL     OW47129   7.380   3.521   5.981  0.4146 -0.0809 -0.1690
15151SOL    HW147130   7.363   3.442   6.034  1.2019  0.5100  1.0020
15151SOL    HW247131   7.342   3.501   5.896  0.6904 -1.7796  0.0708
15152SOL     OW47132   1.937   2.752   0.370  0.2897 -0.1138  0.1345
15152SOL    HW147133   2.007   2.687   0.360  1.4324  1.3476 -1.6522
15152SOL    HW247134   1.980   2.828   0.409 -0.7866  0.0200  1.0751
15153SOL     OW47135   5.139   2.313   8.672 -0.2758  0.3569  0.0805
15153SOL    HW147136   5.130   2.402   8.638  0.5715  0.7638  0.9173
15153SOL    HW247137   5.211   2.275   8.622 -0.5750  0.1692 -0.2104
15154SOL     OW47138   8.800   8.037   0.929  0.5100  0.2394  0.0852
15154SOL    HW147139   8.733   8.090   0.972  0.4598  0.3885 -0.1712
15154SOL    HW247140   8.808   7.959   0.983 -2.2145 -1.3136 -1.5887
15155SOL     OW47141   7.520   4.220   9.097  0.1720 -0.8707 -0.2120
15155SOL    HW147142   7.536   4.136   9.140 -0.4490 -1.4383 -1.0844
15155SOL    HW247143   7.502   4.197   9.006 -0.1439  0.1978 -0.4211
15156SOL     OW47144   0.911   5.908   2.472  0.9543 -0.1158 -0.1842
15156SOL    HW147145   0.831   5.859   2.452  1.5196 -0.2303 -2.2840
15156SOL    HW247146   0.982   5.847   2.454  1.5200 -0.4034  2.7937
15157SOL     OW47147   6.971   8.219   2.602  0.0485  0.0981 -0.6490
15157SOL    HW147148   7.058   8.255   2.617 -0.3811  0.8560  0.1045
15157SOL    HW247149   6.954   8.165   2.679  0.0204 -0.4027 -1.0006
15158SOL     OW47150   6.747   7.789   9.209  0.3382  0.1614  0.0765
15158SOL    HW147151   6.691   7.784   9.131 -1.0609  0.7652  1.0210
15158SOL    HW247152   6.803   7.865   9.193  0.3977 -0.0143 -0.5621
15159SOL     OW47153   6.955   1.232   4.751  0.2793 -0.1628 -0.1005
15159SOL    HW147154   6.994   1.316   4.777 -0.1996 -0.6202  2.1850
15159SOL    HW247155   6.861   1.248   4.754  0.2018 -0.2738 -1.4861
15160SOL     OW47156   2.587   2.364   7.063  0.3371  0.3483  0.0609
15160SOL    HW147157   2.512   2.409   7.102  0.5558 -0.2548  1.1927
15160SOL    HW247158   2.594   2.282   7.111  1.9936  0.5933  0.2628
15161SOL     OW47159   6.817   8.399   5.187 -0.0240  0.3981  0.6269
15161SOL    HW147160   6.744   8.353   5.146  1.4748 -2.3162  0.9084
15161SOL    HW247161   6.887   8.396   5.123  1.4593 -1.5134  2.2589
15162SOL     OW47162   3.677   2.686   7.848  0.8341  0.1039 -0.0929
15162SOL    HW147163   3.643   2.709   7.761  0.7603  0.0823 -0.0697
15162SOL    HW247164   3.652   2.761   7.903 -1.7022 -1.1764  0.5847
15163SOL     OW47165   2.685   6.547   2.859 -0.0960 -0.8180  0.8559
15163SOL    HW147166   2.719   6.606   2.926 -0.3112 -0.1648  0.3853
15163SOL    HW247167   2.761   6.525   2.805 -0.0133 -0.9815  1.0395
15164SOL     OW47168   7.180   1.056   8.853 -0.3064  0.3701  0.8915
15164SOL    HW147169   7.243   0.989   8.828  0.0732  0.6202  1.1670
15164SOL    HW247170   7.224   1.139   8.834 -1.3397  0.5321 -0.8406
15165SOL     OW47171   0.739   3.808   2.330 -0.7942  0.2692  0.2857
15165SOL    HW147172   0.766   3.749   2.259  0.3398  1.6387 -0.4558
15165SOL    HW247173   0.803   3.792   2.400  0.2123  1.4268 -0.3565
15166SOL     OW47174   7.619   8.325   5.075  0.0082  0.4721  0.1822
15166SOL    HW147175   7.627   8.419   5.061 -0.6102  0.7151  1.4989
15166SOL    HW247176   7.635   8.287   4.988  0.5754  1.7604 -0.2872
15167SOL     OW47177   5.370   0.533   1.217 -0.3482 -0.1931  0.1936
15167SOL    HW147178   5.317   0.549   1.295 -0.9067  2.6844 -0.7030
15167SOL    HW247179   5.342   0.446   1.186 -0.9837 -0.8356  2.4829
15168SOL     OW47180   2.367   6.002   7.507  0.1356  0.4255  0.0496
15168SOL    HW147181   2.409   5.925   7.546 -0.7149  0.1567  0.4364
15168SOL    HW247182   2.403   6.006   7.418  1.9321  0.9253  0.7641
15169SOL     OW47183   4.333   2.353   7.491  0.5085  0.1009  0.2790
15169SOL    HW147184   4.333   2.432   7.544  0.8633 -0.4333  1.0901
15169SOL    HW247185   4.358   2.283   7.552  1.6638 -0.4106 -0.7588
15170SOL     OW47186   7.830   7.720   0.916  0.1521  0.1739 -0.2698
15170SOL    HW147187   7.856   7.656   0.982  1.0471  0.8564  0.0582
15170SOL    HW247188   7.828   7.804   0.964  0.9844  0.7032 -1.1433
15171SOL     OW47189   1.223   2.973   1.343 -0.2929 -0.4553  0.3744
15171SOL    HW147190   1.173   3.039   1.391  1.4342 -0.0071  1.5971
15171SOL    HW247191   1.173   2.892   1.355 -1.9618  0.4454 -0.4093
15172SOL     OW47192   2.799   5.332   3.469 -0.2095  0.8795 -0.2782
15172SOL    HW147193   2.721   5.301   3.514  0.2590 -0.9351 -0.6648
15172SOL    HW247194   2.808   5.423   3.496 -3.6232  1.7705 -1.8245
15173SOL     OW47195   7.216   0.973   4.961 -0.2414 -0.5045  0.2509
15173SOL    HW147196   7.178   0.991   5.047 -1.6143  0.8080 -0.6129
15173SOL    HW247197   7.304   1.010   4.966  0.7830 -2.9980  2.0438
15174SOL     OW47198   9.123   0.372   8.137 -0.3792 -0.0258 -0.3147
15174SOL    HW147199   9.193   0.378   8.202  0.7533  3.3363 -1.7301
15174SOL    HW247200   9.118   0.279   8.115 -0.1885 -1.0974  3.8669
15175SOL     OW47201   0.895   9.069   0.704  0.0009  0.3144  0.0777
15175SOL    HW147202   0.987   9.051   0.725 -0.0870 -0.3813 -0.1002
15175SOL    HW247203   0.897   9.150   0.654  0.3822  1.0645  1.2784
15176SOL     OW47204   8.339   3.307   8.431 -0.1465  0.2236 -0.5730
15176SOL    HW147205   8.370   3.341   8.347  1.2787 -0.3103 -0.2746
15176SOL    HW247206   8.317   3.215   8.413  1.0596 -0.1503 -0.1436
15177SOL     OW47207   7.867   6.574   6.530  0.0225 -0.1841 -0.4495
15177SOL    HW147208   7.813   6.605   6.603  0.1073 -1.1272  0.0334
15177SOL    HW247209   7.957   6.590   6.558  0.0480 -0.2968 -0.4662
15178SOL     OW47210   0.154   3.394   8.542 -1.0837  0.5467 -0.2350
15178SOL    HW147211   0.225   3.455   8.565 -0.6899 -0.0277  0.0770
15178SOL    HW247212   0.110   3.376   8.625 -0.6577 -0.2709 -0.1805
15179SOL     OW47213   0.913   0.574   7.290  0.1641  0.0524 -0.3173
15179SOL    HW147214   0.971   0.601   7.219 -0.0710 -1.6460 -1.1902
15179SOL    HW247215   0.971   0.553   7.363  0.4588  0.9943 -0.2762
15180SOL     OW47216   3.574   0.910   0.736 -0.3352 -0.2856 -0.3470
15180SOL    HW147217   3.596   0.944   0.822  1.0769 -4.3037  1.0066
15180SOL    HW247218   3.658   0.894   0.694 -0.7656 -4.1514  0.0278
15181SOL     OW47219   3.023   2.003   1.043  0.3309  0.2054  0.3256
15181SOL    HW147220   3.054   2.071   1.103  0.4586  0.7845 -0.3930
15181SOL    HW247221   3.103   1.961   1.010  0.2985  0.6114 -0.2724
15182SOL     OW47222   3.657   3.390   0.010 -0.6420 -0.1174 -0.0157
15182SOL    HW147223   3.717   3.353  -0.054 -1.7380  1.9643 -2.3487
15182SOL    HW247224   3.570   3.373  -0.025 -1.3284 -0.3552  1.7389
15183SOL     OW47225   1.144   0.571   2.941 -0.4909  0.3970  0.4970
15183SOL    HW147226   1.079   0.597   3.006  1.3768 -1.0974  3.0516
15183SOL    HW247227   1.225   0.612   2.971  0.3946 -0.2621 -0.9362
15184SOL     OW47228   3.662   1.788   7.426  0.3213 -0.1683  0.2002
15184SOL    HW147229   3.692   1.759   7.512 -1.3736 -1.6760  0.3226
15184SOL    HW247230   3.725   1.855   7.400  0.6857  0.5155  2.7254
15185SOL     OW47231   0.388   3.108   2.188  0.4206 -0.3129 -0.4230
15185SOL    HW147232   0.368   3.172   2.119  0.1627 -0.0438 -0.0994
15185SOL    HW247233   0.470   3.140   2.227 -0.9376  1.1627  1.3252
15186SOL     OW47234   1.906   3.590   1.019  0.0596 -0.1421  0.6970
15186SOL    HW147235   1.980   3.647   1.038  0.6033 -0.6995  0.2576
15186SOL    HW247236   1.930   3.545   0.938 -0.6701 -0.4767  0.6627
15187SOL     OW47237   2.748   2.497   8.948  0.4740  0.1738 -0.1707
15187SOL    HW147238   2.714   2.581   8.918  0.6845  0.6691  0.9407
15187SOL    HW247239   2.779   2.514   9.037  2.0546 -0.6790 -0.5345
15188SOL     OW47240   3.892   5.932   1.293  0.1327 -0.5215  0.3901
15188SOL    HW147241   3.865   5.984   1.217 -0.3587  0.8633  1.4990
15188SOL    HW247242   3.959   5.985   1.336 -0.2326 -0.8820  1.4235
15189SOL     OW47243   6.515   7.601   8.576  0.3860 -0.0723 -0.2074
15189SOL    HW147244   6.479   7.687   8.596 -0.0049 -0.4887  0.9078
15189SOL    HW247245   6.452   7.562   8.515 -0.2023 -0.1497  0.4496
15190SOL     OW47246   3.830   3.789   7.021 -0.1986 -0.4239 -0.2111
15190SOL    HW147247   3.835   3.759   6.930 -2.0638 -0.1633 -0.4327
15190SOL    HW247248   3.736   3.804   7.036  0.2330  0.9405  1.3001
15191SOL     OW47249   6.530   3.568   4.433 -0.2582 -0.7555 -0.0735
15191SOL    HW147250   6.479   3.646   4.450  0.2005 -0.1710 -1.3667
15191SOL    HW247251   6.479   3.518   4.369 -1.4817 -2.4605  2.1596
15192SOL     OW47252   8.028   0.688   6.417 -0.2611  0.9395  0.0185
15192SOL    HW147253   8.059   0.691   6.508  0.5796  1.5513 -0.2792
15192SOL    HW247254   7.941   0.649   6.423 -0.5065  1.6255  1.1636
15193SOL     OW47255   6.247   6.410   7.323  0.2902 -0.2799  0.7441
15193SOL    HW147256   6.260   6.411   7.228 -1.2539 -1.8431  0.4862
15193SOL    HW247257   6.273   6.322   7.350 -0.0426 -0.1049  1.6433
15194SOL     OW47258   1.492   4.941   4.428 -0.1755  0.2403 -0.1944
15194SOL    HW147259   1.583   4.912   4.442 -0.8588 -1.4786  0.9050
15194SOL    HW247260   1.477   5.005   4.498  0.0423  0.1529 -0.0644
15195SOL     OW47261   2.060   2.157   4.866 -0.1464  0.0864  0.6499
15195SOL    HW147262   2.000   2.198   4.803  0.3228  0.6010  0.5418
15195SOL    HW247263   2.016   2.075   4.889 -0.3873 -0.0556 -0.2608
15196SOL     OW47264   5.042   1.564   4.355  0.0651  0.4287  0.3085
15196SOL    HW147265   4.955   1.536   4.383  0.2853 -1.1055 -0.4393
15196SOL    HW247266   5.026   1.616   4.276 -0.1566 -0.2903 -0.1296
15197SOL     OW47267   7.971   3.196   3.327  0.1817 -0.0199 -0.3360
15197SOL    HW147268   7.888   3.219   3.285 -0.4895 -1.2681  0.2713
15197SOL    HW247269   8.034   3.195   3.255 -0.5593 -0.1601 -1.0039
15198SOL     OW47270   7.385   6.536   3.524 -0.3002  0.1472  0.3460
15198SOL    HW147271   7.478   6.558   3.532  0.0145 -0.7256 -0.7934
15198SOL    HW247272   7.346   6.612   3.481  0.0099  0.2274  0.2026
15199SOL     OW47273   2.145   6.468   4.010 -0.6333  0.0510  0.2138
15199SOL    HW147274   2.226   6.422   3.987 -0.2996 -0.0425  1.5156
15199SOL    HW247275   2.131   6.446   4.102 -0.6523  2.2690  0.7652
15200SOL     OW47276   7.236   0.504   3.763  1.0653 -0.3528 -0.0928
15200SOL    HW147277   7.300   0.566   3.728  1.7607 -0.3036  1.2010
15200SOL    HW247278   7.226   0.438   3.695  0.3791  1.1326 -1.4513
15201SOL     OW47279   0.556   2.834   6.901 -0.5601  0.0783 -0.1307
15201SOL    HW147280   0.619   2.864   6.835  1.0862 -1.0720  0.8666
15201SOL    HW247281   0.562   2.900   6.971  1.3574 -1.2972  1.0386
15202SOL     OW47282   1.479   0.093   2.163  0.4548  0.5227  0.5271
15202SOL    HW147283   1.407   0.040   2.197  0.8882  0.2502  1.0251
15202SOL    HW247284   1.438   0.177   2.141 -0.3703 -0.2278 -0.9126
15203SOL     OW47285   1.861   6.474   6.962 -0.6347 -0.0345 -0.1106
15203SOL    HW147286   1.880   6.554   6.914 -0.7488 -1.2539 -2.2761
15203SOL    HW247287   1.766   6.464   6.955 -0.6192 -0.3445  0.1162
15204SOL     OW47288   1.633   7.345   4.283  0.2156 -0.0665  0.3097
15204SOL    HW147289   1.707   7.342   4.222 -0.5508  0.3076 -0.6374
15204SOL    HW247290   1.656   7.415   4.344  1.8023 -1.5863  1.5239
15205SOL     OW47291   2.077   6.487   6.642 -0.1716 -0.1111 -0.0274
15205SOL    HW147292   2.050   6.553   6.706 -0.1053  0.7728 -0.9002
15205SOL    HW247293   2.016   6.414   6.656 -1.5943  0.9802 -0.4707
15206SOL     OW47294   1.667   7.369   0.108 -0.0163  0.4917  0.0245
15206SOL    HW147295   1.618   7.409   0.036 -0.2242 -2.2965 -1.4499
15206SOL    HW247296   1.603   7.311   0.151  0.5411  0.9251  1.4553
15207SOL     OW47297   8.247   3.448   2.831  0.5565 -0.2218  0.1169
15207SOL    HW147298   8.189   3.431   2.905 -0.2341 -0.2597 -0.5045
15207SOL    HW247299   8.198   3.416   2.754  0.3275  2.0405 -0.7033
15208SOL     OW47300   0.521   7.866   4.039  0.0080  0.1091 -0.0689
15208SOL    HW147301   0.601   7.917   4.032 -0.0979  0.1985 -0.6436
15208SOL    HW247302   0.495   7.875   4.131  1.4136 -1.0827  0.4740
15209SOL     OW47303   5.635   2.984   8.322  0.2855 -0.1061 -0.3658
15209SOL    HW147304   5.591   3.068   8.332 -0.2509 -0.4728  0.3639
15209SOL    HW247305   5.722   3.006   8.289 -0.1549  0.6707 -1.0323
15210SOL     OW47306   5.436   1.235   3.357  0.0502 -0.4059 -0.0812
15210SOL    HW147307   5.439   1.172   3.430  1.5737  0.2974  0.4865
15210SOL    HW247308   5.523   1.275   3.357 -0.5290  0.8685 -1.1825
15211SOL     OW47309   4.328   3.966   1.987 -0.2695  0.3680 -0.0309
15211SOL    HW147310   4.378   4.013   1.920 -0.4452 -0.3190 -0.6558
15211SOL    HW247311   4.237   3.976   1.959 -0.3005 -0.4012 -0.1986
15212SOL     OW47312   0.226   7.156   9.069  0.1587 -0.0552  0.2402
15212SOL    HW147313   0.310   7.177   9.110  0.8308  1.5940 -1.9607
15212SOL    HW247314   0.248   7.092   9.001 -0.4175  0.1154 -0.1085
15213SOL     OW47315   5.412   5.811   3.038 -0.1840 -0.0208 -0.3198
15213SOL    HW147316   5.471   5.830   2.965 -0.8290 -1.4003 -1.2412
15213SOL    HW247317   5.327   5.794   2.996 -1.1533  1.6147  0.9626
15214SOL     OW47318   3.627   1.832   8.788  0.0915  0.1094 -0.3200
15214SOL    HW147319   3.641   1.818   8.882  1.5413 -0.7196 -0.6357
15214SOL    HW247320   3.535   1.809   8.774  0.3588 -1.6420  0.5824
15215SOL     OW47321   5.518   4.777   7.789  0.1980 -0.0954  0.3818
15215SOL    HW147322   5.593   4.718   7.792  1.6970  1.8397  2.8797
15215SOL    HW247323   5.548   4.849   7.733 -0.4228 -0.0916  0.0517
15216SOL     OW47324   8.000   7.363   0.614  0.4503  0.0421  0.0791
15216SOL    HW147325   7.985   7.458   0.616 -0.6502 -0.0945 -0.9408
15216SOL    HW247326   7.937   7.328   0.677  0.7160 -0.0291  0.3049
15217SOL     OW47327   4.502   7.020   3.433  0.3589  0.0161  0.0720
15217SOL    HW147328   4.561   6.955   3.394 -1.3010 -1.2910 -0.2887
15217SOL    HW247329   4.492   7.087   3.365  1.2473  0.1549  0.0619
15218SOL     OW47330   6.799   1.958   3.986 -0.2933 -0.1380  0.3469
15218SOL    HW147331   6.849   1.996   4.058 -0.3593  0.3476  0.1339
15218SOL    HW247332   6.855   1.970   3.909 -0.8073  0.5425  0.0815
15219SOL     OW47333   6.061   8.062   6.103  0.0867 -0.0951  0.0736
15219SOL    HW147334   6.137   8.004   6.096  2.6051  3.0713  0.1171
15219SOL    HW247335   6.017   8.034   6.183  0.8625 -2.3616 -0.2480
15220SOL     OW47336   0.912   7.734   4.052  0.3792 -0.7602 -0.1562
15220SOL    HW147337   0.942   7.735   3.961 -1.3143  1.0001 -0.7231
15220SOL    HW247338   0.959   7.806   4.094 -0.3948 -0.2308 -0.1805
15221SOL     OW47339   3.791   3.639   4.565 -0.4710  0.2766  0.4118
15221SOL    HW147340   3.789   3.593   4.481 -2.4453 -0.9219  1.0889
15221SOL    HW247341   3.882   3.667   4.575  0.0942 -0.8284 -1.4419
15222SOL     OW47342   0.344   3.314   0.480  0.5321  0.3445 -0.0836
15222SOL    HW147343   0.362   3.245   0.543  0.5800  0.1675 -0.2907
15222SOL    HW247344   0.251   3.334   0.492  1.0878  1.9795  1.7047
15223SOL     OW47345   5.466   0.475   7.325  0.0616  0.3757 -1.0653
15223SOL    HW147346   5.559   0.491   7.340 -0.1607  0.5681  0.1634
15223SOL    HW247347   5.423   0.557   7.351 -0.6561 -0.5134  0.6044
15224SOL     OW47348   7.258   6.384   8.002  0.0240 -0.2878  0.0889
15224SOL    HW147349   7.211   6.302   8.019  0.3255 -0.3960  0.3938
15224SOL    HW247350   7.225   6.445   8.067 -1.1137  0.1951 -0.9253
15225SOL     OW47351   1.707   4.564   4.322 -0.2378 -0.3220 -0.0336
15225SOL    HW147352   1.620   4.524   4.329  0.2479 -1.1009  1.7916
15225SOL    HW247353   1.698   4.628   4.251 -1.5800 -2.2519 -1.6630
15226SOL     OW47354   0.757   4.787   2.509 -0.2479  0.4217  0.8947
15226SOL    HW147355   0.783   4.807   2.420  1.0071  0.6948  1.3165
15226SOL    HW247356   0.752   4.872   2.553  0.2568  0.2032  1.3829
15227SOL     OW47357   4.967   3.064   3.193  0.4904  0.0600  0.9541
15227SOL    HW147358   5.044   3.058   3.249  0.5675 -0.3292  0.8063
15227SOL    HW247359   4.987   3.137   3.133 -0.2824  1.5541  2.4819
15228SOL     OW47360   3.404   8.712   8.547 -0.3361  0.9417 -0.6086
15228SOL    HW147361   3.361   8.650   8.605  0.1621  0.9729 -0.2020
15228SOL    HW247362   3.374   8.689   8.460  0.5208 -0.4330 -0.5533
15229SOL     OW47363   2.813   4.420   7.052 -0.3833  0.3618  0.1676
15229SOL    HW147364   2.788   4.405   7.143 -0.0761  0.2199  0.2299
15229SOL    HW247365   2.737   4.392   7.001 -0.9979  1.5124  0.4318
15230SOL     OW47366   4.650   0.916   8.385 -0.3740 -0.0746  0.1548
15230SOL    HW147367   4.669   0.841   8.441 -0.9360  1.0331  1.8570
15230SOL    HW247368   4.706   0.986   8.419  0.4200  0.2107 -1.6478
15231SOL     OW47369   2.196   5.003   4.954  0.5896 -0.6287  0.4608
15231SOL    HW147370   2.173   5.086   4.913 -0.7343 -0.9213  0.5804
15231SOL    HW247371   2.182   4.938   4.886  0.1022 -0.9218  0.8348
15232SOL     OW47372   8.699   6.765   9.256  0.1861 -0.6964  0.4907
15232SOL    HW147373   8.613   6.725   9.245 -0.0104 -0.1708  0.1025
15232SOL    HW247374   8.680   6.858   9.271  0.8121 -0.0361 -2.5323
15233SOL     OW47375   2.252   0.853   6.986 -0.0396 -0.2217  0.5600
15233SOL    HW147376   2.312   0.865   7.060 -0.7922 -0.3518  1.1946
15233SOL    HW247377   2.309   0.855   6.909  0.6999  0.3697  1.1078
15234SOL     OW47378   4.379   1.835   8.019  0.1587 -0.3529  0.1421
15234SOL    HW147379   4.384   1.850   7.924  1.6874  1.1486  0.4289
15234SOL    HW247380   4.381   1.740   8.028  0.8960 -0.4941 -1.3154
15235SOL     OW47381   4.692   3.112   2.246  0.2271 -0.3807  0.0743
15235SOL    HW147382   4.727   3.084   2.162  0.1622 -1.4379  0.3892
15235SOL    HW247383   4.613   3.059   2.258  0.1726 -0.1541  0.7441
15236SOL     OW47384   5.743   1.683   8.939  0.0315 -0.1956 -0.1169
15236SOL    HW147385   5.815   1.735   8.903 -0.0375  1.0897  1.5661
15236SOL    HW247386   5.785   1.621   8.999 -0.3810  1.6503  2.1271
15237SOL     OW47387   7.255   1.313   8.140  0.9578 -0.0334  0.2338
15237SOL    HW147388   7.172   1.286   8.179  1.5977  0.3937  1.9506
15237SOL    HW247389   7.321   1.294   8.207  1.8145  2.8030  0.3003
15238SOL     OW47390   1.232   6.392   4.169 -0.0550  0.4495 -0.8430
15238SOL    HW147391   1.201   6.481   4.185 -0.0547  0.3148 -0.0802
15238SOL    HW247392   1.294   6.401   4.096 -0.4853  0.9833 -1.1488
15239SOL     OW47393   9.011   0.329   0.757  0.1046 -0.2559 -0.2947
15239SOL    HW147394   9.018   0.415   0.716 -0.7057 -1.3284 -2.7555
15239SOL    HW247395   8.919   0.306   0.748  0.4736 -1.7228 -0.3743
15240SOL     OW47396   7.352   6.849   4.495  0.0711  0.0605 -0.0676
15240SOL    HW147397   7.440   6.871   4.524  0.0601  0.6504 -0.4627
15240SOL    HW247398   7.344   6.890   4.408 -0.3772 -0.4985 -0.2972
15241SOL     OW47399   5.780   4.950   1.906 -0.0638 -0.3945  0.0752
15241SOL    HW147400   5.836   5.019   1.872  0.2249 -0.0414  1.2547
15241SOL    HW247401   5.819   4.869   1.873 -1.5182  0.0482 -2.9624
15242SOL     OW47402   7.629   1.993   6.226  0.0051  0.4520 -0.3423
15242SOL    HW147403   7.603   2.074   6.270 -2.2742 -0.9794  1.0466
15242SOL    HW247404   7.549   1.964   6.181  0.4686 -1.6374  0.1414
15243SOL     OW47405   7.458   3.627   2.355  0.1451 -0.7785  0.3567
15243SOL    HW147406   7.398   3.660   2.422  1.7659  0.8966  1.0119
15243SOL    HW247407   7.419   3.654   2.272  0.1149  0.5030  0.7839
15244SOL     OW47408   6.658   5.622   5.790  0.2723 -0.2338 -0.3254
15244SOL    HW147409   6.650   5.549   5.853 -2.7126  0.3555  0.0677
15244SOL    HW247410   6.752   5.635   5.780  0.8318 -2.4724  1.5658
15245SOL     OW47411   0.634   9.165   0.959 -0.2446  0.8388 -0.0109
15245SOL    HW147412   0.637   9.129   1.048 -2.5267  0.5766  0.0012
15245SOL    HW247413   0.594   9.097   0.906  2.5918  0.3593 -1.6251
15246SOL     OW47414   6.817   6.385   0.462  0.1672 -0.2446 -0.0258
15246SOL    HW147415   6.727   6.352   0.453 -0.6790  2.0709 -0.4890
15246SOL    HW247416   6.828   6.443   0.386  1.9883 -0.3317  0.1588
15247SOL     OW47417   8.130   6.323   8.650  0.1834 -0.1400 -0.1621
15247SOL    HW147418   8.051   6.340   8.598  0.3613 -0.9114 -0.6912
15247SOL    HW247419   8.202   6.349   8.592  0.3530 -0.3054 -0.0245
15248SOL     OW47420   2.334   8.342   0.860  0.1352 -0.4107  0.1469
15248SOL    HW147421   2.345   8.437   0.854  0.9068 -0.5842 -1.7325
15248SOL    HW247422   2.244   8.330   0.888  0.7061  0.8943  2.6243
15249SOL     OW47423   3.289   7.323   1.701 -0.0205  0.5894  0.1907
15249SOL    HW147424   3.229   7.393   1.676 -0.0852  0.4068 -0.1735
15249SOL    HW247425   3.235   7.244   1.700  0.9495 -0.1432 -3.5255
15250SOL     OW47426   6.342   8.083   1.557  0.4293 -0.6009 -0.1443
15250SOL    HW147427   6.294   8.157   1.521  0.6392 -0.5210 -0.2621
15250SOL    HW247428   6.369   8.033   1.480  1.2899 -0.1726 -0.1233
15251SOL     OW47429   4.631   3.887   0.757 -0.2571  0.0548  0.1009
15251SOL    HW147430   4.579   3.958   0.719  1.1954  1.9980  1.6603
15251SOL    HW247431   4.699   3.870   0.692 -0.2233  0.5304  0.0122
15252SOL     OW47432   1.192   3.180   2.488 -0.4192 -0.3815  0.3540
15252SOL    HW147433   1.132   3.125   2.539  0.7105 -1.4601  0.5437
15252SOL    HW247434   1.199   3.261   2.539 -1.7930 -0.1989  0.2683
15253SOL     OW47435   5.211   7.649   6.060 -0.6033 -0.0483 -0.2979
15253SOL    HW147436   5.233   7.738   6.088 -0.0557 -1.0158  2.4766
15253SOL    HW247437   5.296   7.605   6.054 -0.9288 -0.5844 -0.9918
15254SOL     OW47438   3.403   4.942   0.330  0.7493 -0.1687  0.3346
15254SOL    HW147439   3.472   4.978   0.274  3.4820 -1.1618  2.9166
15254SOL    HW247440   3.368   4.868   0.280  3.0779 -0.9998 -0.1363
15255SOL     OW47441   4.014   0.783   6.060  0.0132 -0.2711  0.2695
15255SOL    HW147442   4.014   0.688   6.067 -0.6061 -0.1154  2.9606
15255SOL    HW247443   3.924   0.809   6.076  0.0683  0.7516 -0.9904
15256SOL     OW47444   5.675   5.189   7.454  0.0495  0.1403 -0.1130
15256SOL    HW147445   5.626   5.166   7.532 -0.0437 -0.1567 -0.2583
15256SOL    HW247446   5.623   5.155   7.381  0.6364 -0.4789 -0.2451
15257SOL     OW47447   8.125   4.074   3.058 -0.3195 -0.2201 -0.5401
15257SOL    HW147448   8.192   4.142   3.057 -0.2234 -0.2528  1.0184
15257SOL    HW247449   8.171   3.994   3.033  0.3105 -0.2974  0.8063
15258SOL     OW47450   0.353   1.996   1.945  0.7863  0.5124 -0.0357
15258SOL    HW147451   0.261   2.010   1.969  1.1991  0.3340  1.7817
15258SOL    HW247452   0.361   1.900   1.941  1.2453  0.4774  1.3738
15259SOL     OW47453   2.078   3.326   4.831  0.6599  0.5813 -0.1397
15259SOL    HW147454   2.059   3.314   4.925  1.0455 -3.0654 -0.4569
15259SOL    HW247455   2.172   3.340   4.827  0.6569  0.6479  0.0032
15260SOL     OW47456   1.614   3.575   4.666  0.2860  0.0546  0.4186
15260SOL    HW147457   1.518   3.584   4.660  0.2753 -0.5437 -0.2582
15260SOL    HW247458   1.648   3.639   4.604  0.3232  0.1413  0.5280
15261SOL     OW47459   0.641   7.379   1.791 -0.1583  0.0676 -0.2754
15261SOL    HW147460   0.691   7.299   1.810  0.3814  0.4398 -0.1247
15261SOL    HW247461   0.550   7.351   1.793  0.0621 -0.7256 -1.0627
15262SOL     OW47462   7.281   2.000   4.917 -0.1765  0.0407  0.0033
15262SOL    HW147463   7.253   1.940   4.848  0.1595 -0.2137  0.0845
15262SOL    HW247464   7.279   2.086   4.876 -0.0227 -0.1040 -0.3090
15263SOL     OW47465   2.073   3.846   8.834  0.1636 -0.6054  0.6236
15263SOL    HW147466   2.136   3.775   8.843 -0.5216 -1.1893  0.8134
15263SOL    HW247467   2.110   3.918   8.886  1.0163 -0.7080  0.1593
15264SOL     OW47468   0.333   6.337   2.302  0.1204  0.1395  0.3664
15264SOL    HW147469   0.385   6.392   2.361  1.0194 -1.0726  0.7475
15264SOL    HW247470   0.369   6.249   2.315  0.5306 -0.1141 -2.1900
15265SOL     OW47471   7.619   7.643   2.270  0.3311  0.0791 -0.2005
15265SOL    HW147472   7.683   7.648   2.341  0.5536 -0.3417 -0.3683
15265SOL    HW247473   7.650   7.571   2.215  0.6930  0.9881 -1.2351
15266SOL     OW47474   7.627   0.719   6.158  0.0073 -0.4713  0.5046
15266SOL    HW147475   7.699   0.746   6.101  0.2026 -0.5785  0.7011
15266SOL    HW247476   7.600   0.800   6.202 -0.3991 -0.3141 -0.0281
15267SOL     OW47477   3.243   5.898   1.150  0.0291  0.5692 -0.4929
15267SOL    HW147478   3.257   5.901   1.055  2.8257  0.6248 -0.1128
15267SOL    HW247479   3.269   5.810   1.175 -0.4552  0.6382  0.2621
15268SOL     OW47480   4.351   4.214   5.696 -0.1167 -0.1741  0.1272
15268SOL    HW147481   4.262   4.189   5.671 -0.1426  0.3533 -0.2992
15268SOL    HW247482   4.364   4.171   5.781 -1.4087  1.1676  1.0302
15269SOL     OW47483   2.539   2.316   5.080 -0.3665  0.2552 -0.0900
15269SOL    HW147484   2.530   2.357   4.994 -0.5762 -0.2031 -0.2911
15269SOL    HW247485   2.611   2.254   5.068  1.0525  1.7221  0.6589
15270SOL     OW47486   5.961   4.045   4.340 -0.6306 -0.1879 -0.0165
15270SOL    HW147487   5.983   4.058   4.432  2.2378 -0.7639 -0.5687
15270SOL    HW247488   5.999   4.121   4.296  2.0136 -2.1734 -1.2544
15271SOL     OW47489   4.773   7.272   5.739 -0.0607  0.1459 -0.5143
15271SOL    HW147490   4.799   7.179   5.737  1.4135  0.4466  1.9695
15271SOL    HW247491   4.856   7.319   5.744 -0.8760  1.4588  0.9204
15272SOL     OW47492   2.375   5.913   2.865  0.1109  0.4242  0.0269
15272SOL    HW147493   2.446   5.971   2.837  0.5574 -0.2191 -0.1951
15272SOL    HW247494   2.368   5.929   2.959  1.8030 -0.8141  0.4036
15273SOL     OW47495   3.606   5.297   7.055 -0.3061 -0.1200  0.1527
15273SOL    HW147496   3.663   5.373   7.068 -2.4732  1.4146  0.8402
15273SOL    HW247497   3.557   5.317   6.976  0.6072 -1.7894 -0.8702
15274SOL     OW47498   2.015   4.666   2.869  0.5584 -0.0672  0.0666
15274SOL    HW147499   2.042   4.756   2.886  0.4565  0.0092 -0.1841
15274SOL    HW247500   2.063   4.614   2.934  0.7035  0.1542  0.1365
15275SOL     OW47501   3.329   2.164   7.137 -0.3039 -0.2434 -0.1371
15275SOL    HW147502   3.268   2.135   7.205 -0.2278 -0.2412 -0.0673
15275SOL    HW247503   3.311   2.106   7.062  0.0332 -0.6479  0.0918
15276SOL     OW47504   0.178   4.785   5.685  0.2309 -0.1654  0.2624
15276SOL    HW147505   0.192   4.853   5.619 -0.5873 -0.7437 -0.5092
15276SOL    HW247506   0.210   4.825   5.766  0.1504  0.9911 -0.2526
15277SOL     OW47507   6.215   0.600   9.205  0.0561 -1.2029  0.1329
15277SOL    HW147508   6.281   0.668   9.194  0.4474 -1.5757  0.1327
15277SOL    HW247509   6.132   0.643   9.185  0.3823 -0.9325 -0.6618
15278SOL     OW47510   8.970   4.268   8.265  0.3608  0.4721  0.1400
15278SOL    HW147511   9.006   4.272   8.353  1.6929  1.6131 -0.4361
15278SOL    HW247512   8.946   4.176   8.254  2.2949 -0.1661  0.9010
15279SOL     OW47513   3.413   3.436   8.739 -0.0723 -0.1811  0.3643
15279SOL    HW147514   3.352   3.473   8.675 -0.7830 -1.7132  0.1254
15279SOL    HW247515   3.469   3.379   8.687  0.7227  0.2164  0.7900
15280SOL     OW47516   3.672   7.795   7.597 -0.0825 -0.0417  0.0131
15280SOL    HW147517   3.676   7.886   7.627  0.7429 -0.5033  1.3514
15280SOL    HW247518   3.758   7.760   7.618 -0.4128 -1.1394 -0.4746
15281SOL     OW47519   3.514   2.012   2.301 -0.0749 -0.0570  0.1888
15281SOL    HW147520   3.508   1.953   2.225  0.2196  0.6722 -0.4044
15281SOL    HW247521   3.604   2.004   2.331  0.2804  0.9511 -0.5929
15282SOL     OW47522   2.810   4.564   1.994  0.2856 -0.7200  0.3081
15282SOL    HW147523   2.736   4.518   1.955 -1.3563  0.1405  2.3089
15282SOL    HW247524   2.814   4.647   1.947  0.1809 -0.9121 -0.0393
15283SOL     OW47525   8.942   3.971   1.407 -0.2360  0.2614 -0.0182
15283SOL    HW147526   8.910   3.997   1.494  0.6466 -0.4729  0.5431
15283SOL    HW247527   8.869   3.989   1.348 -0.5275  1.6378  0.7330
15284SOL     OW47528   7.594   8.923   1.621 -0.7079  0.6479 -0.5651
15284SOL    HW147529   7.582   8.997   1.679 -4.5008 -0.8065  0.6285
15284SOL    HW247530   7.538   8.942   1.545  0.1032  0.0666 -1.3311
15285SOL     OW47531   2.300   2.695   7.422  0.0191  0.4904 -0.2515
15285SOL    HW147532   2.297   2.791   7.427 -3.8091  0.5153 -1.2035
15285SOL    HW247533   2.221   2.666   7.467 -0.5432 -2.0504 -2.7172
15286SOL     OW47534   6.265   3.422   3.036  0.1004 -0.2025 -0.6661
15286SOL    HW147535   6.300   3.505   3.004 -1.2313  0.9138  0.7159
15286SOL    HW247536   6.313   3.404   3.117 -0.2610 -0.3093 -0.4724
15287SOL     OW47537   3.038   3.913   8.469 -0.2014 -0.1923 -0.2805
15287SOL    HW147538   3.037   3.817   8.465  1.3806 -0.2096 -0.5024
15287SOL    HW247539   2.946   3.938   8.455 -1.0149 -1.7355  1.9873
15288SOL     OW47540   7.645   7.716   3.031 -0.0708 -1.0798  0.2326
15288SOL    HW147541   7.667   7.769   3.108  1.6058  1.0552 -1.6413
15288SOL    HW247542   7.730   7.700   2.989 -1.1768 -0.2408 -2.3921
15289SOL     OW47543   0.935   1.800   7.883 -0.4785  0.6508 -0.1076
15289SOL    HW147544   0.986   1.718   7.881  2.4697  2.4158 -2.0729
15289SOL    HW247545   0.846   1.773   7.862  0.7425 -1.9169 -2.3080
15290SOL     OW47546   6.373   0.241   4.420  0.2679  0.1067 -0.0250
15290SOL    HW147547   6.300   0.222   4.361  2.3632  2.2685 -3.4915
15290SOL    HW247548   6.333   0.289   4.493 -1.5396  3.5432 -3.0823
15291SOL     OW47549   8.584   6.955   8.100  0.0016 -0.8580  0.1912
15291SOL    HW147550   8.514   6.978   8.161 -0.1093 -1.6626  0.3713
15291SOL    HW247551   8.592   7.032   8.042 -0.7015 -0.5780  0.4618
15292SOL     OW47552   6.310   7.038   8.460  0.1979  0.1806  0.1029
15292SOL    HW147553   6.370   7.111   8.478  0.1081 -0.0163  1.2422
15292SOL    HW247554   6.254   7.033   8.538 -0.0877 -0.8243 -0.1566
15293SOL     OW47555   9.035   2.868   2.634  0.6987 -0.1134 -0.1156
15293SOL    HW147556   9.005   2.839   2.548  2.6443 -1.0337 -0.5014
15293SOL    HW247557   9.108   2.927   2.616  1.7466 -1.0597  0.8904
15294SOL     OW47558   2.620   3.264   0.764 -0.4990 -0.1493 -0.2017
15294SOL    HW147559   2.551   3.233   0.705 -1.6734 -0.8735  1.5172
15294SOL    HW247560   2.701   3.235   0.722 -1.3358 -1.0847 -1.2214
15295SOL     OW47561   2.322   4.956   8.387  0.1508  0.7876  0.2309
15295SOL    HW147562   2.410   4.992   8.375  0.3962 -0.4789 -2.0086
15295SOL    HW247563   2.264   5.029   8.368  0.6857  1.2888  0.4879
15296SOL     OW47564   4.513   4.703   2.018 -0.1963 -0.0992 -0.1867
15296SOL    HW147565   4.547   4.637   2.078  1.2219  0.9033  0.1653
15296SOL    HW247566   4.509   4.783   2.070  1.8054  0.9780 -1.5713
15297SOL     OW47567   5.630   0.244   3.591 -0.3989  0.5818 -0.0220
15297SOL    HW147568   5.706   0.291   3.626 -1.9168  1.3006  2.4558
15297SOL    HW247569   5.659   0.154   3.581  1.3439  1.2217 -0.9802
15298SOL     OW47570   1.235   8.515   7.790 -0.1336  0.0747 -0.2475
15298SOL    HW147571   1.160   8.530   7.733 -1.3663 -0.6917  1.1472
15298SOL    HW247572   1.198   8.511   7.878  1.5299 -0.4195  0.4512
15299SOL     OW47573   6.079   5.425   1.112 -0.6971  0.3470  0.2838
15299SOL    HW147574   6.077   5.464   1.200 -1.0197 -0.1701  0.5063
15299SOL    HW247575   6.033   5.342   1.122 -0.8611  0.3572 -0.4139
15300SOL     OW47576   8.768   1.440   0.665  0.3047 -0.0277 -0.3859
15300SOL    HW147577   8.763   1.518   0.721  1.4271 -0.5456  0.4417
15300SOL    HW247578   8.682   1.400   0.672 -0.2523  1.0741 -0.7301
15301SOL     OW47579   6.202   7.556   3.356 -0.0567 -0.3147 -0.0391
15301SOL    HW147580   6.168   7.546   3.267  1.2126  0.3423 -0.6251
15301SOL    HW247581   6.255   7.478   3.371 -0.7024 -0.6846  0.3579
15302SOL     OW47582   0.377   6.045   2.278  0.3836 -0.4045  0.3783
15302SOL    HW147583   0.419   6.090   2.205 -0.9689  0.6614  0.2486
15302SOL    HW247584   0.398   5.952   2.264 -0.1420 -0.2549 -1.5352
15303SOL     OW47585   6.431   0.761   2.584  0.1768  0.4891 -0.2786
15303SOL    HW147586   6.508   0.779   2.530 -0.1172  1.1086 -0.4966
15303SOL    HW247587   6.391   0.847   2.598  0.5881  0.4257  1.4339
15304SOL     OW47588   0.642   2.882   8.194 -0.4184  0.3439 -0.2542
15304SOL    HW147589   0.582   2.871   8.121 -0.5443  2.7892 -0.5564
15304SOL    HW247590   0.672   2.973   8.187  2.2775 -0.4370  0.6691
15305SOL     OW47591   6.013   2.905   6.509 -0.0872  0.1851  0.2354
15305SOL    HW147592   6.053   2.943   6.588 -0.0944 -0.5927  0.6170
15305SOL    HW247593   5.920   2.901   6.530 -0.0483 -0.3240  0.3161
15306SOL     OW47594   4.589   6.621   3.892 -0.3607  0.2959  0.1615
15306SOL    HW147595   4.583   6.579   3.806 -1.5001 -0.4450  0.5878
15306SOL    HW247596   4.645   6.563   3.944 -0.9392 -0.0636  0.3840
15307SOL     OW47597   8.867   1.484   1.430  0.0434  0.5857 -1.0469
15307SOL    HW147598   8.771   1.486   1.437  0.0936  1.1990 -0.4226
15307SOL    HW247599   8.885   1.413   1.369 -0.7806 -0.0270 -0.5861
15308SOL     OW47600   3.908   5.404   8.633  0.7094  0.7347 -0.2819
15308SOL    HW147601   3.818   5.423   8.659  0.8312 -1.2066  1.7704
15308SOL    HW247602   3.905   5.314   8.599  1.5293  1.3602 -2.0305
15309SOL     OW47603   4.766   1.637   2.965 -0.7352  0.4129  0.0308
15309SOL    HW147604   4.742   1.660   3.055  0.0548  1.8455 -0.1100
15309SOL    HW247605   4.825   1.707   2.938 -0.6176 -0.2545 -1.4536
15310SOL     OW47606   5.165   8.351   5.596  0.4720 -0.2482  0.4521
15310SOL    HW147607   5.079   8.381   5.627 -0.0692 -1.4142  0.0669
15310SOL    HW247608   5.208   8.431   5.566 -0.9717  0.1709 -0.5576
15311SOL     OW47609   6.312   0.716   7.206  0.0803  0.3107  0.0451
15311SOL    HW147610   6.347   0.654   7.270 -0.1126  1.4500  1.2706
15311SOL    HW247611   6.388   0.749   7.159  0.6789  2.5519  2.4903
15312SOL     OW47612   5.895   4.019   0.685 -0.1619  0.1885  0.3309
15312SOL    HW147613   5.839   3.992   0.757  0.1417  1.0249  0.8836
15312SOL    HW247614   5.957   3.947   0.675 -2.2517 -1.4482 -1.2914
15313SOL     OW47615   6.892   4.416   2.196  0.4452 -0.4796  0.1076
15313SOL    HW147616   6.981   4.445   2.216  0.8208 -1.1930 -0.4914
15313SOL    HW247617   6.861   4.478   2.130  0.6551 -0.4842  0.0035
15314SOL     OW47618   7.836   8.051   5.098 -0.3984 -0.0462  0.1399
15314SOL    HW147619   7.746   8.018   5.097 -0.7425  0.8425  1.1736
15314SOL    HW247620   7.857   8.059   5.191  0.4176  0.6526 -0.1047
15315SOL     OW47621   4.929   7.298   3.318 -0.3652 -0.4015 -0.0892
15315SOL    HW147622   4.859   7.315   3.381 -1.5413 -0.3818 -1.4054
15315SOL    HW247623   4.909   7.212   3.282  1.3347 -1.2477  0.8858
15316SOL     OW47624   8.857   1.793   3.622 -0.3712  0.3841  0.9590
15316SOL    HW147625   8.831   1.878   3.657 -1.8951 -0.2781  1.4614
15316SOL    HW247626   8.849   1.803   3.527 -3.3434 -0.0484  1.1115
15317SOL     OW47627   4.568   2.877   4.536 -0.5300 -0.0354 -0.0882
15317SOL    HW147628   4.618   2.959   4.543 -0.3448 -0.2139  0.7903
15317SOL    HW247629   4.501   2.896   4.471 -1.4777  1.3613  1.2351
15318SOL     OW47630   6.718   2.900   0.024 -0.2552 -0.2020 -1.0477
15318SOL    HW147631   6.739   2.879   0.115 -0.8764 -1.9615 -1.2811
15318SOL    HW247632   6.629   2.935   0.027 -0.3828 -0.5262 -1.0027
15319SOL     OW47633   0.920   8.741   7.717  0.1734 -0.5927  0.1979
15319SOL    HW147634   0.940   8.783   7.633  0.4315 -1.7466 -0.3236
15319SOL    HW247635   0.948   8.806   7.783  1.1364 -0.1869 -0.5863
15320SOL     OW47636   5.330   0.332   5.232 -0.3912  0.9470 -0.2932
15320SOL    HW147637   5.360   0.272   5.164  0.7787  1.3605 -0.1638
15320SOL    HW247638   5.235   0.330   5.226 -0.3447 -0.3169 -0.8080
15321SOL     OW47639   0.318   2.521   6.315  0.3888 -0.0269 -0.2416
15321SOL    HW147640   0.394   2.477   6.279  0.3118  0.2353 -0.7243
15321SOL    HW247641   0.243   2.474   6.277  0.3075  0.4282 -0.6435
15322SOL     OW47642   6.836   2.821   4.792  0.4419 -0.3824  0.6411
15322SOL    HW147643   6.768   2.759   4.818 -1.2619  0.4215 -1.7725
15322SOL    HW247644   6.807   2.856   4.708  1.5909  3.3121  1.6727
15323SOL     OW47645   7.468   0.616   6.334  0.1498 -0.5384  0.5224
15323SOL    HW147646   7.464   0.521   6.325  0.4926 -0.3148 -2.3553
15323SOL    HW247647   7.520   0.645   6.260 -1.2715  2.0348  0.4841
15324SOL     OW47648   3.732   6.130   2.334  0.1039 -0.2859  0.1799
15324SOL    HW147649   3.730   6.103   2.242  2.2846  0.7394 -0.1877
15324SOL    HW247650   3.682   6.062   2.380  0.2582 -1.5990 -1.5468
15325SOL     OW47651   4.639   5.419   6.828  0.0682  0.9682 -0.3435
15325SOL    HW147652   4.698   5.433   6.755  0.6218 -1.5136 -0.4283
15325SOL    HW247653   4.588   5.341   6.804 -1.6535  1.7222  0.7153
15326SOL     OW47654   1.345   1.013   5.913 -0.0084  0.0155  0.1657
15326SOL    HW147655   1.420   0.975   5.958  1.2034  0.0967 -1.7339
15326SOL    HW247656   1.283   0.941   5.905 -0.6482  0.2221  2.7348
15327SOL     OW47657   3.664   3.179   2.443 -0.8067 -0.1680  0.3093
15327SOL    HW147658   3.686   3.086   2.438  1.9023  0.5209 -2.3328
15327SOL    HW247659   3.722   3.214   2.510 -0.9353 -0.1591  0.4156
15328SOL     OW47660   8.932   9.229   0.372 -0.3903  0.1783  0.2914
15328SOL    HW147661   9.001   9.256   0.312 -0.7195  1.3453  0.4263
15328SOL    HW247662   8.943   9.287   0.448 -0.4301 -0.7954  1.0536
15329SOL     OW47663   3.945   3.617   8.469 -0.0074 -0.2624  0.1331
15329SOL    HW147664   4.025   3.566   8.483  0.4543  0.7655  1.3950
15329SOL    HW247665   3.958   3.660   8.385  0.7554 -0.1614  0.2924
15330SOL     OW47666   2.913   7.407   1.172 -0.0964  0.3888 -0.0032
15330SOL    HW147667   2.953   7.465   1.237 -0.0143  0.3489 -0.0171
15330SOL    HW247668   2.921   7.455   1.090 -2.5426  1.5827  0.4167
15331SOL     OW47669   6.710   7.717   3.424  0.4678 -0.0032 -0.3554
15331SOL    HW147670   6.719   7.807   3.455  2.0586 -0.5756  0.9099
15331SOL    HW247671   6.640   7.681   3.478  0.6504  0.1205 -0.0354
15332SOL     OW47672   2.613   5.019   4.843 -0.2271 -0.3922 -0.0912
15332SOL    HW147673   2.708   5.003   4.840 -0.0262  0.6871  0.3512
15332SOL    HW247674   2.574   4.932   4.834  0.7761 -0.7060 -1.7413
15333SOL     OW47675   3.346   2.630   5.061  0.4729  0.6340 -0.1792
15333SOL    HW147676   3.303   2.579   5.130 -1.4362  0.2882 -1.5836
15333SOL    HW247677   3.381   2.707   5.107 -0.5464  0.2941  1.2226
15334SOL     OW47678   5.623   4.794   4.998 -0.0725  0.1026  0.0743
15334SOL    HW147679   5.541   4.778   4.950 -1.0340  2.0166  1.0151
15334SOL    HW247680   5.595   4.815   5.087  1.7286 -4.2275  1.7932
15335SOL     OW47681   3.604   8.229   2.415  0.0223  0.0894  0.1379
15335SOL    HW147682   3.611   8.312   2.462 -1.8281  0.9631 -1.0552
15335SOL    HW247683   3.669   8.172   2.456  1.3603  2.1384  0.9391
15336SOL     OW47684   0.631   4.026   2.428  0.1260 -0.4563  0.1111
15336SOL    HW147685   0.670   3.962   2.369  0.6004  1.1541 -1.3539
15336SOL    HW247686   0.546   4.047   2.389 -0.8280 -1.5089  1.5518
15337SOL     OW47687   6.152   3.170   0.334 -0.6501  0.0888 -0.4867
15337SOL    HW147688   6.105   3.088   0.319 -0.5612 -0.3328  1.4197
15337SOL    HW247689   6.084   3.237   0.335 -1.1351 -0.4037  1.3455
15338SOL     OW47690   6.395   2.870   6.727  0.1882 -0.1649  0.2272
15338SOL    HW147691   6.439   2.917   6.656 -0.2493  0.6936  0.5136
15338SOL    HW247692   6.450   2.793   6.743  1.3649  0.6730  0.3049
15339SOL     OW47693   2.212   6.224   7.999 -0.2940  0.1274 -0.4408
15339SOL    HW147694   2.216   6.200   7.906  0.6276  0.2299 -0.4303
15339SOL    HW247695   2.192   6.318   7.998 -0.6141  0.0583 -0.5314
15340SOL     OW47696   7.532   1.322   0.203  0.0630 -0.6894 -0.7120
15340SOL    HW147697   7.520   1.227   0.190 -0.8138 -0.5423 -1.0113
15340SOL    HW247698   7.471   1.362   0.142  0.6199  0.0809 -0.7672
15341SOL     OW47699   6.137   7.542   2.273  0.3795 -0.2455 -0.6400
15341SOL    HW147700   6.196   7.602   2.226  1.1891  1.4949  2.4834
15341SOL    HW247701   6.190   7.464   2.288  1.2742  0.5480  0.4117
15342SOL     OW47702   7.429   3.135   7.113 -0.1641  0.5330  0.3179
15342SOL    HW147703   7.463   3.064   7.167  0.5118  0.7584  0.1906
15342SOL    HW247704   7.471   3.122   7.028  1.7988  2.4597  0.9513
15343SOL     OW47705   8.168   5.678   8.128  0.0449  0.3507 -0.0009
15343SOL    HW147706   8.194   5.742   8.062  1.3769 -0.6304 -0.4253
15343SOL    HW247707   8.073   5.692   8.138  0.3439  2.5444  0.0880
15344SOL     OW47708   5.926   1.118   6.537 -0.0845  0.1369 -0.2741
15344SOL    HW147709   5.831   1.120   6.548 -0.1248  1.0199 -0.6940
15344SOL    HW247710   5.950   1.210   6.522  0.5453 -0.3420 -2.4095
15345SOL     OW47711   0.197   5.820   0.760  0.5204 -0.6977  0.3571
15345SOL    HW147712   0.174   5.805   0.668  1.5182 -2.5010  0.3864
15345SOL    HW247713   0.156   5.748   0.807  0.8000 -0.2903  1.2332
15346SOL     OW47714   2.830   2.051   4.658  0.5220  0.4945  0.0169
15346SOL    HW147715   2.901   2.114   4.672  1.3975 -0.1361 -1.3603
15346SOL    HW247716   2.753   2.105   4.641  0.8798  1.1925  0.5680
15347SOL     OW47717   0.003   7.195   0.357 -0.0776  0.3828 -0.4477
15347SOL    HW147718  -0.037   7.173   0.273  0.1208  1.9897 -0.9752
15347SOL    HW247719   0.010   7.290   0.356  1.9729  0.2526  0.4679
15348SOL     OW47720   3.510   0.841   0.046 -1.0567 -1.0342 -0.4556
15348SOL    HW147721   3.449   0.823  -0.025 -2.3405 -0.6149  0.5174
15348SOL    HW247722   3.574   0.902   0.009 -1.5437 -1.0574 -1.3248
15349SOL     OW47723   6.435   1.812   4.903  0.9050 -0.6426  0.1010
15349SOL    HW147724   6.414   1.788   4.813  0.7860  0.2904 -0.1243
15349SOL    HW247725   6.463   1.730   4.944  0.4959 -1.1620 -0.6492
15350SOL     OW47726   7.605   7.970   8.555 -1.0456  0.0219 -0.5360
15350SOL    HW147727   7.515   7.945   8.580 -0.6783  0.0794  0.9029
15350SOL    HW247728   7.594   8.035   8.486 -2.1196 -0.1007 -0.4899
15351SOL     OW47729   5.180   2.409   2.802  0.6214 -0.1442  0.2916
15351SOL    HW147730   5.110   2.353   2.837 -0.4338 -1.0491 -3.0637
15351SOL    HW247731   5.184   2.386   2.709  3.6852  1.7363 -0.0942
15352SOL     OW47732   3.259   4.387   6.193 -0.4588 -0.0237 -0.0446
15352SOL    HW147733   3.304   4.352   6.116 -0.7805 -0.6309  0.0417
15352SOL    HW247734   3.231   4.310   6.241  0.1926  0.3562  0.9523
15353SOL     OW47735   0.691   7.135   6.684  0.1465 -0.2079  0.8238
15353SOL    HW147736   0.724   7.055   6.645 -0.4736 -0.6463  1.1910
15353SOL    HW247737   0.600   7.116   6.706  0.4272  0.0805  2.3177
15354SOL     OW47738   8.037   4.204   4.330 -0.1252 -0.1195  0.2783
15354SOL    HW147739   8.064   4.294   4.350 -0.3919 -0.2545  1.3098
15354SOL    HW247740   8.116   4.152   4.343  0.2950  0.1030 -1.3631
15355SOL     OW47741   4.975   6.534   4.775 -0.2434  0.3752 -0.0595
15355SOL    HW147742   4.924   6.470   4.726  0.7200 -0.5945  0.1973
15355SOL    HW247743   5.012   6.485   4.848 -1.8147  1.8301  1.7958
15356SOL     OW47744   0.524   2.380   0.922 -0.0634 -0.0660  0.2501
15356SOL    HW147745   0.481   2.440   0.982  1.6799 -1.6726  3.2308
15356SOL    HW247746   0.459   2.312   0.905 -1.5657  1.8825 -2.0587
15357SOL     OW47747   6.904   5.169   8.129  0.0175 -0.3219  0.1009
15357SOL    HW147748   6.969   5.101   8.110  0.2424  0.0623 -0.5430
15357SOL    HW247749   6.956   5.246   8.151 -0.2176 -0.0383 -0.3293
15358SOL     OW47750   3.088   1.328   7.161  0.2415 -0.6789  0.0874
15358SOL    HW147751   3.159   1.382   7.126  0.3823 -1.0335 -0.1707
15358SOL    HW247752   3.097   1.244   7.117 -0.5978 -0.5889 -0.2602
15359SOL     OW47753   0.059   4.111   7.106  0.3915  0.0083 -0.4143
15359SOL    HW147754   0.071   4.038   7.167  0.5857  0.1981 -0.2280
15359SOL    HW247755   0.146   4.131   7.074  0.7071  1.7555  1.3771
15360SOL     OW47756   1.157   6.681   5.759  0.7804 -0.4850  0.2542
15360SOL    HW147757   1.126   6.760   5.714  0.5678 -1.3185 -1.0847
15360SOL    HW247758   1.245   6.666   5.723  1.5091  0.0774  1.7369
15361SOL     OW47759   6.637   7.650   4.279 -0.1098 -0.7574 -0.4292
15361SOL    HW147760   6.617   7.743   4.265 -2.2815 -1.2801 -0.9481
15361SOL    HW247761   6.680   7.648   4.365 -1.9976  0.4983  0.5825
15362SOL     OW47762   9.270   1.602   6.780  0.7679  0.2059 -0.8343
15362SOL    HW147763   9.247   1.624   6.870 -0.1061 -0.6720 -0.8341
15362SOL    HW247764   9.341   1.539   6.788  1.7077  1.2553 -0.7943
15363SOL     OW47765   8.729   4.150   2.801  0.4937  0.0068 -0.2758
15363SOL    HW147766   8.733   4.121   2.892  0.7423  2.2291  0.4466
15363SOL    HW247767   8.807   4.111   2.761  0.9975 -0.0649  0.7451
15364SOL     OW47768   3.726   7.707   2.442  0.0415  0.4957  0.6407
15364SOL    HW147769   3.755   7.627   2.399 -0.1154  0.4827  0.5604
15364SOL    HW247770   3.783   7.775   2.407  0.2128  0.4091  0.7520
15365SOL     OW47771   5.160   0.899   3.967  0.2602 -0.0949  0.0390
15365SOL    HW147772   5.124   0.831   3.910 -0.0466 -0.3459  0.5306
15365SOL    HW247773   5.119   0.980   3.937  0.6888 -0.1071 -0.6004
15366SOL     OW47774   5.507   7.534   7.953  0.0067 -0.3164 -0.8561
15366SOL    HW147775   5.497   7.440   7.969  0.9551 -0.2709  0.0808
15366SOL    HW247776   5.477   7.547   7.863 -0.4939 -1.4472 -0.8611
15367SOL     OW47777   7.035   6.033   9.121 -0.0216 -0.6631 -0.1284
15367SOL    HW147778   6.992   6.118   9.124 -0.9397 -1.1053 -0.7761
15367SOL    HW247779   7.016   5.994   9.207 -0.9308 -0.8647 -0.4171
15368SOL     OW47780   8.816   1.403   1.067 -0.1418  0.0458 -0.4377
15368SOL    HW147781   8.829   1.326   1.123 -0.9371  0.1627 -0.0858
15368SOL    HW247782   8.900   1.415   1.023  0.7134  0.3218  1.2052
15369SOL     OW47783   7.901   2.350   0.224  0.6051  0.4491 -0.3634
15369SOL    HW147784   7.951   2.319   0.299  0.2832  2.1836  0.5917
15369SOL    HW247785   7.818   2.381   0.260 -0.2578 -0.3143 -1.6564
15370SOL     OW47786   8.525   8.921   3.255  0.0199  0.1868  0.0928
15370SOL    HW147787   8.439   8.953   3.283 -2.0261 -1.8038 -3.5462
15370SOL    HW247788   8.559   8.990   3.197  0.3709  0.4209  0.5679
15371SOL     OW47789   5.629   7.587   5.235  0.0855 -0.2376 -0.0698
15371SOL    HW147790   5.673   7.672   5.236 -0.0536 -0.1720  0.9456
15371SOL    HW247791   5.692   7.528   5.193  0.1594  0.3697 -0.8336
15372SOL     OW47792   3.135   2.740   0.958  0.1094 -0.5422 -0.1950
15372SOL    HW147793   3.109   2.663   0.907 -1.2167 -1.2016  1.4541
15372SOL    HW247794   3.053   2.786   0.976  0.6945  0.3001  0.3823
15373SOL     OW47795   2.642   0.211   7.933  0.0816  0.0106 -0.1807
15373SOL    HW147796   2.682   0.292   7.900 -0.8879  1.1323  1.2830
15373SOL    HW247797   2.552   0.215   7.902 -0.9429  1.2667  2.7985
15374SOL     OW47798   7.161   4.502   2.570  0.1001 -0.3328  0.5177
15374SOL    HW147799   7.085   4.559   2.583  1.1033  1.0614  0.4870
15374SOL    HW247800   7.177   4.463   2.656 -0.9989 -1.0897  0.3826
15375SOL     OW47801   0.214   2.629   8.948 -0.0210  0.1192 -0.7735
15375SOL    HW147802   0.124   2.595   8.950  0.2135 -0.4614 -0.0519
15375SOL    HW247803   0.269   2.551   8.947  0.4898  0.4739 -0.4004
15376SOL     OW47804   5.701   5.258   6.513 -0.2138  0.3285  0.2935
15376SOL    HW147805   5.664   5.270   6.425 -0.3080  0.7640  0.3947
15376SOL    HW247806   5.793   5.285   6.504 -0.6998  2.2426  0.7862
15377SOL     OW47807   6.460   7.279   6.505 -0.0703 -0.5122 -0.1804
15377SOL    HW147808   6.371   7.253   6.480  0.3447 -1.1414 -1.0332
15377SOL    HW247809   6.449   7.365   6.546 -1.0183 -0.3446 -0.7591
15378SOL     OW47810   1.386   0.297   7.709 -0.4245  1.1118  0.3434
15378SOL    HW147811   1.348   0.377   7.745 -0.3027  1.3639 -0.0763
15378SOL    HW247812   1.449   0.328   7.643  2.3643  0.8166  2.7491
15379SOL     OW47813   8.488   5.446   2.547 -0.2345 -0.0261  0.1869
15379SOL    HW147814   8.554   5.415   2.485  1.4601 -0.0536  1.9712
15379SOL    HW247815   8.420   5.485   2.492  0.0867 -2.1752 -1.8213
15380SOL     OW47816   7.279   6.429   2.090  0.0903  0.4527  0.1922
15380SOL    HW147817   7.279   6.507   2.034  1.0624 -0.7875 -1.5464
15380SOL    HW247818   7.279   6.465   2.179 -2.5131  2.4544 -0.5201
15381SOL     OW47819   8.997   4.298   5.891 -0.2921  0.5518  0.3379
15381SOL    HW147820   8.917   4.324   5.844  1.0867  2.2874 -1.1323
15381SOL    HW247821   9.058   4.271   5.822  0.0836 -1.7539  1.5175
15382SOL     OW47822   3.838   5.795   3.666 -0.2837 -0.2398  0.0531
15382SOL    HW147823   3.903   5.800   3.736  0.2542  1.3297 -0.5297
15382SOL    HW247824   3.766   5.744   3.702  0.8892 -1.2255  1.0243
15383SOL     OW47825   1.651   2.454   0.261  0.1150 -0.1727  0.2556
15383SOL    HW147826   1.674   2.407   0.181  0.1797 -1.1442  0.8466
15383SOL    HW247827   1.718   2.430   0.324 -0.0505  0.4341  0.6700
15384SOL     OW47828   8.905   5.858   1.301  0.3257 -0.1168  0.2182
15384SOL    HW147829   8.909   5.846   1.395 -1.5483  0.8718  0.4459
15384SOL    HW247830   8.996   5.856   1.272  0.9420  0.2217  2.1237
15385SOL     OW47831   6.715   4.386   6.387  0.0902 -0.0293  0.1632
15385SOL    HW147832   6.701   4.297   6.421 -2.7374 -0.2659 -1.4132
15385SOL    HW247833   6.731   4.440   6.464 -0.1475 -1.5737  1.3148
15386SOL     OW47834   8.827   4.060   8.893  0.6955 -0.3408 -0.0537
15386SOL    HW147835   8.813   4.139   8.945  2.0863 -1.1829  1.6784
15386SOL    HW247836   8.792   4.081   8.807  1.6198  2.3956  0.1990
15387SOL     OW47837   5.769   2.008   8.701 -0.0053 -0.1890 -0.2387
15387SOL    HW147838   5.694   1.958   8.732  0.9172 -1.4557 -0.0255
15387SOL    HW247839   5.804   1.957   8.628  1.6769 -0.5032  0.7671
15388SOL     OW47840   5.828   6.659   5.610  0.1116 -0.1822 -0.9792
15388SOL    HW147841   5.836   6.644   5.704  0.0336  0.1184 -0.9242
15388SOL    HW247842   5.848   6.574   5.570 -0.7555 -0.5369 -0.6572
15389SOL     OW47843   6.342   3.038   1.262  0.2498 -0.0794 -0.6068
15389SOL    HW147844   6.363   3.117   1.311  1.6904 -0.9078  0.1495
15389SOL    HW247845   6.326   3.068   1.173  0.5758  1.0901 -0.2721
15390SOL     OW47846   0.844   3.952   7.118 -0.1808 -0.0466  0.1989
15390SOL    HW147847   0.832   3.869   7.163  1.4605 -1.2603 -1.5106
15390SOL    HW247848   0.780   3.949   7.046  0.8437 -0.4669 -0.7040
15391SOL     OW47849   6.460   7.482   2.498  0.2253  0.3731 -0.5497
15391SOL    HW147850   6.412   7.435   2.566 -1.1110  1.0708 -1.0059
15391SOL    HW247851   6.549   7.489   2.533 -0.3878  0.5201  1.0223
15392SOL     OW47852   5.452   0.737   1.430  0.6270 -0.1175  0.2121
15392SOL    HW147853   5.390   0.808   1.418  1.9043  0.8311 -0.8796
15392SOL    HW247854   5.469   0.704   1.342  1.2326 -0.7569  0.5586
15393SOL     OW47855   3.841   0.816   7.721 -0.4762  0.3274 -0.0018
15393SOL    HW147856   3.907   0.800   7.654 -1.0472 -2.5920  0.0750
15393SOL    HW247857   3.888   0.865   7.789  0.6394  1.4576 -1.5496
15394SOL     OW47858   3.049   2.967   4.468  0.7774  0.0724  0.3092
15394SOL    HW147859   3.132   2.962   4.516 -0.2191 -1.6861  1.9278
15394SOL    HW247860   3.018   3.056   4.484  1.2613  0.0188  1.6381
15395SOL     OW47861   4.142   2.466   4.966 -0.1387  0.7357 -0.0561
15395SOL    HW147862   4.108   2.389   4.920 -0.7999  0.8798  0.1930
15395SOL    HW247863   4.214   2.497   4.910  0.4154 -0.3174  0.0732
15396SOL     OW47864   1.386   2.435   1.115 -0.1379 -0.4600 -0.7239
15396SOL    HW147865   1.417   2.512   1.162  0.8917 -1.0138 -0.4737
15396SOL    HW247866   1.291   2.434   1.129  0.1105 -0.4150  1.0327
15397SOL     OW47867   6.503   0.483   4.765  0.1143 -0.1941  0.8063
15397SOL    HW147868   6.502   0.394   4.801 -2.1308 -0.1617  0.8681
15397SOL    HW247869   6.459   0.536   4.832 -1.5008  0.3686 -0.6766
15398SOL     OW47870   5.251   4.958   6.253  0.9398  0.7506 -0.7041
15398SOL    HW147871   5.171   4.909   6.237 -0.3065  1.9584  1.5349
15398SOL    HW247872   5.281   4.984   6.166 -0.3317 -0.8764 -1.6634
15399SOL     OW47873   1.338   6.579   6.226 -0.3471 -0.1429 -0.3073
15399SOL    HW147874   1.275   6.560   6.157  0.4927  0.3498 -1.2273
15399SOL    HW247875   1.325   6.671   6.247  0.6203  0.1820 -1.0895
15400SOL     OW47876   8.260   6.804   5.616  0.2307 -0.3389 -0.2187
15400SOL    HW147877   8.323   6.844   5.676  0.7232  0.5733 -1.3203
15400SOL    HW247878   8.219   6.734   5.667  0.8997  0.1808  1.0548
15401SOL     OW47879   5.102   1.041   2.402 -0.1426 -0.0674 -0.0165
15401SOL    HW147880   5.140   1.106   2.461  1.0228 -0.2895 -0.4985
15401SOL    HW247881   5.121   0.956   2.443 -0.1708 -0.1799 -0.2336
15402SOL     OW47882   0.893   3.432   7.504  0.5361 -0.6325 -0.8363
15402SOL    HW147883   0.859   3.521   7.491 -2.0376 -1.1003  2.0081
15402SOL    HW247884   0.826   3.376   7.466 -0.1502 -1.4632  1.5187
15403SOL     OW47885   5.551   2.842   2.896  0.0293  0.2916 -0.1722
15403SOL    HW147886   5.520   2.932   2.912 -0.2331  0.1796 -0.0410
15403SOL    HW247887   5.498   2.811   2.823 -0.8746 -0.2523  0.7004
15404SOL     OW47888   1.066   6.342   1.744 -0.0965  0.0412  0.1801
15404SOL    HW147889   1.157   6.325   1.766  0.0141  0.1026 -0.2319
15404SOL    HW247890   1.032   6.257   1.714  0.2505  0.3541 -1.1516
15405SOL     OW47891   5.695   9.140   1.834  0.5599 -0.0137 -0.0228
15405SOL    HW147892   5.646   9.174   1.909 -0.0387 -0.5222 -0.1756
15405SOL    HW247893   5.691   9.045   1.844  2.1494 -0.0524  0.3558
15406SOL     OW47894   1.602   3.579   1.366  0.0037  0.6344  0.1811
15406SOL    HW147895   1.633   3.647   1.425 -0.8519  0.8620  0.3664
15406SOL    HW247896   1.682   3.535   1.336  0.5182  1.3790  0.4656
15407SOL     OW47897   2.948   4.010   8.696 -0.4725 -0.2602  0.1879
15407SOL    HW147898   2.868   4.037   8.651 -0.1331 -0.3986 -0.5061
15407SOL    HW247899   3.004   3.975   8.627  0.6449  0.8897  0.4835
15408SOL     OW47900   0.746   6.880   8.699 -1.1848 -0.4052 -0.0329
15408SOL    HW147901   0.770   6.793   8.731 -1.8468 -0.4959  0.2308
15408SOL    HW247902   0.696   6.919   8.771 -1.6814 -0.1587 -0.5115
15409SOL     OW47903   4.819   1.536   7.643  0.7043  0.3377  0.1681
15409SOL    HW147904   4.766   1.525   7.722  0.3890 -1.9539 -0.3250
15409SOL    HW247905   4.769   1.597   7.589 -0.0518  0.3717  0.8963
15410SOL     OW47906   3.371   6.321   3.314 -0.0541  0.1457 -0.0872
15410SOL    HW147907   3.385   6.257   3.384  0.5073  0.7910  0.3899
15410SOL    HW247908   3.450   6.375   3.313  0.9677 -1.2943 -2.7549
15411SOL     OW47909   2.739   2.160   1.169  0.2359 -0.9936 -0.0144
15411SOL    HW147910   2.708   2.233   1.223 -0.8994 -1.5462  0.0844
15411SOL    HW247911   2.792   2.202   1.101  0.7611 -0.1990  0.8752
15412SOL     OW47912   0.677   2.880   3.085 -0.9297  0.0625  0.0324
15412SOL    HW147913   0.675   2.884   2.989  0.9626  2.3824  0.0386
15412SOL    HW247914   0.750   2.821   3.104 -0.0257  1.1316 -0.0013
15413SOL     OW47915   3.287   8.291   9.193  0.7418  0.1623 -0.1584
15413SOL    HW147916   3.380   8.315   9.201  1.6791 -2.7258 -1.6228
15413SOL    HW247917   3.276   8.270   9.101 -1.0260 -0.8678  0.2692
15414SOL     OW47918   1.657   1.335   8.707 -0.0151  0.3656 -0.6695
15414SOL    HW147919   1.596   1.391   8.756 -0.4395 -0.4978 -0.1908
15414SOL    HW247920   1.719   1.304   8.772 -0.2332 -0.3204 -0.7768
15415SOL     OW47921   1.533   4.848   6.027  0.0369 -0.5865 -0.2833
15415SOL    HW147922   1.582   4.929   6.014 -0.0156 -0.3992  0.6260
15415SOL    HW247923   1.469   4.869   6.096 -0.2190 -1.2934 -0.2945
15416SOL     OW47924   2.915   6.362   0.802  0.3778  0.2397  0.2123
15416SOL    HW147925   2.967   6.439   0.777  1.5434 -0.1008  1.4752
15416SOL    HW247926   2.905   6.312   0.721  0.5597  1.1787 -0.3952
15417SOL     OW47927   5.820   4.842   6.816 -0.2451  0.0462 -0.3339
15417SOL    HW147928   5.749   4.875   6.761 -2.7698 -1.2336  2.0411
15417SOL    HW247929   5.854   4.766   6.768 -1.2539 -0.0244 -0.9530
15418SOL     OW47930   4.275   6.658   6.197  0.2614 -0.5277 -0.3349
15418SOL    HW147931   4.275   6.751   6.177 -0.5177 -0.8331 -1.8384
15418SOL    HW247932   4.334   6.649   6.272  0.6993  1.1080 -0.4768
15419SOL     OW47933   4.904   7.625   6.014 -0.2209  0.3385  0.1387
15419SOL    HW147934   4.813   7.594   6.020 -0.0052 -0.3557 -0.2303
15419SOL    HW247935   4.906   7.678   5.934 -0.1654 -0.0744 -0.1297
15420SOL     OW47936   9.073   0.878   5.194  0.5596  0.6968 -0.6516
15420SOL    HW147937   9.157   0.856   5.232  0.6600 -0.8677 -1.7040
15420SOL    HW247938   9.020   0.799   5.205  0.4036  0.3971 -3.1173
15421SOL     OW47939   1.021   5.400   6.409 -0.1163 -0.1845  0.2884
15421SOL    HW147940   0.986   5.464   6.471 -1.0293 -1.3311  1.0056
15421SOL    HW247941   0.948   5.340   6.394  0.1153  0.0522 -1.8886
15422SOL     OW47942   6.727   5.969   3.066 -0.2301 -0.2043  0.4372
15422SOL    HW147943   6.808   5.973   3.116 -0.3183  0.2167  0.5502
15422SOL    HW247944   6.748   5.913   2.991  0.6029  1.1306 -0.3374
15423SOL     OW47945   7.468   9.213   1.852 -0.7430 -0.1435  0.8707
15423SOL    HW147946   7.479   9.279   1.921  1.7580 -0.9997  1.3661
15423SOL    HW247947   7.452   9.263   1.772  1.8725  1.1406  1.1078
15424SOL     OW47948   5.386   4.674   8.221  0.3018 -0.0804 -0.5045
15424SOL    HW147949   5.433   4.598   8.186  0.4632  0.7797 -2.1990
15424SOL    HW247950   5.380   4.735   8.148 -0.2005  1.3836  0.7181
15425SOL     OW47951   7.698   2.693   6.513  0.4804 -0.0364  0.6674
15425SOL    HW147952   7.726   2.737   6.433 -1.0670  0.1268  0.1977
15425SOL    HW247953   7.648   2.617   6.483  1.0296 -0.7388  1.4837
15426SOL     OW47954   7.282   2.077   2.835 -0.4570  0.1406 -0.2992
15426SOL    HW147955   7.289   2.158   2.886 -1.5234  0.3997 -0.5454
15426SOL    HW247956   7.327   2.012   2.887 -1.9011  0.3092  1.2117
15427SOL     OW47957   5.940   6.159   1.142 -0.8232 -0.0610 -0.6727
15427SOL    HW147958   5.853   6.151   1.180 -1.2949  1.2132 -1.4489
15427SOL    HW247959   5.927   6.212   1.063  0.6259  0.0055 -0.8809
15428SOL     OW47960   1.721   5.060   7.698  0.0428 -0.4975 -0.5837
15428SOL    HW147961   1.738   5.054   7.792  0.6336 -0.4162 -0.6824
15428SOL    HW247962   1.668   4.983   7.678  0.3529 -0.7915 -0.2757
15429SOL     OW47963   3.889   3.758   5.442  0.4040 -0.4172  0.0272
15429SOL    HW147964   3.854   3.846   5.426  0.7795  0.0635  1.7279
15429SOL    HW247965   3.880   3.713   5.358  0.8692  1.4706 -1.0674
15430SOL     OW47966   7.638   0.214   7.499 -0.3291  0.0846  0.0282
15430SOL    HW147967   7.707   0.272   7.467  0.3273 -0.9031 -0.3741
15430SOL    HW247968   7.576   0.208   7.426 -0.7393  0.8077  0.3139
15431SOL     OW47969   4.502   5.385   3.250 -0.3251 -0.0798 -0.0210
15431SOL    HW147970   4.533   5.474   3.235  0.6794 -0.6016 -1.2144
15431SOL    HW247971   4.423   5.377   3.197 -1.1867  0.5172  1.1615
15432SOL     OW47972   8.421   5.808   4.674  0.0318  0.5097 -0.6094
15432SOL    HW147973   8.336   5.804   4.630  0.1029 -1.4660 -0.5934
15432SOL    HW247974   8.485   5.799   4.603  0.1971  0.0133 -0.3954
15433SOL     OW47975   3.414   6.194   6.550 -0.2026 -0.1023  0.2811
15433SOL    HW147976   3.491   6.148   6.583 -0.1089 -1.5925 -1.9095
15433SOL    HW247977   3.341   6.138   6.573 -0.3692 -0.0028 -0.0056
15434SOL     OW47978   3.522   0.613   1.310  0.5588 -0.0109  0.4611
15434SOL    HW147979   3.492   0.641   1.396  0.2326 -0.2712  0.4327
15434SOL    HW247980   3.443   0.582   1.265  1.2514 -3.2733  1.3722
15435SOL     OW47981   4.941   5.290   3.540 -0.2928 -1.0396  0.1989
15435SOL    HW147982   4.878   5.353   3.507 -1.7335 -2.5469 -0.0070
15435SOL    HW247983   4.973   5.328   3.622  1.6021  1.6412 -1.7364
15436SOL     OW47984   3.218   7.467   6.041 -0.0017 -0.5121  0.4364
15436SOL    HW147985   3.169   7.479   5.960 -0.6858 -2.6553  0.5093
15436SOL    HW247986   3.162   7.412   6.095  0.6757  0.4583  2.1731
15437SOL     OW47987   0.988   8.938   7.146  0.7408  0.1395 -0.1465
15437SOL    HW147988   0.913   8.996   7.158 -0.2662 -1.0467 -0.6128
15437SOL    HW247989   1.048   8.964   7.216  0.0877  1.3848 -0.0188
15438SOL     OW47990   3.055   2.309   6.042  0.0676 -0.0805  0.4138
15438SOL    HW147991   3.131   2.340   6.092 -0.4230  0.6142  0.7268
15438SOL    HW247992   3.028   2.384   5.989  0.8188 -0.9328 -1.1960
15439SOL     OW47993   0.939   8.818   2.607  0.4308  0.5014  0.1749
15439SOL    HW147994   1.022   8.821   2.654  1.1182 -0.9094 -0.9292
15439SOL    HW247995   0.874   8.802   2.676  1.3335 -0.7672  0.7620
15440SOL     OW47996   1.984   5.532   8.936 -0.9157 -0.5850  0.4035
15440SOL    HW147997   1.970   5.611   8.884 -0.3252 -0.0622  1.0287
15440SOL    HW247998   2.024   5.563   9.017 -1.2631 -1.4581  0.9187
15441SOL     OW47999   6.636   2.890   6.100 -0.5626 -0.4513 -0.1499
15441SOL    HW148000   6.641   2.934   6.015  4.3018 -2.5279 -1.0924
15441SOL    HW248001   6.672   2.954   6.162  0.0497 -0.5642 -0.3870
15442SOL     OW48002   0.420   0.180   6.859 -0.4880  0.0314  0.2951
15442SOL    HW148003   0.489   0.245   6.849 -0.0595 -0.4492  0.0428
15442SOL    HW248004   0.351   0.208   6.799  0.6091 -0.9208 -1.4519
15443SOL     OW48005   5.409   2.706   0.758  0.1217 -0.0239 -0.2589
15443SOL    HW148006   5.486   2.681   0.707 -0.2894 -0.0882 -0.8473
15443SOL    HW248007   5.374   2.782   0.713  0.4727  0.6850  0.6445
15444SOL     OW48008   3.536   2.672   6.224  0.1352  0.0291  0.2236
15444SOL    HW148009   3.579   2.746   6.181 -1.8948 -0.1514 -2.2258
15444SOL    HW248010   3.526   2.700   6.315  1.4361  1.8208 -0.1529
15445SOL     OW48011   4.740   3.808   8.031 -0.1034  0.1411 -0.4908
15445SOL    HW148012   4.671   3.747   8.056 -0.5669  2.1470  3.6161
15445SOL    HW248013   4.695   3.874   7.977 -0.0287 -1.8682 -3.0986
15446SOL     OW48014   8.952   5.177   6.767 -0.2842 -0.5415  0.3091
15446SOL    HW148015   8.926   5.108   6.828  0.0760 -1.5676 -0.7065
15446SOL    HW248016   9.034   5.146   6.728 -0.9292 -0.2558 -1.2971
15447SOL     OW48017   1.562   1.981   0.741  0.4447  0.2145 -0.1835
15447SOL    HW148018   1.627   2.047   0.764  0.7477 -0.6187  1.4073
15447SOL    HW248019   1.607   1.897   0.753 -1.1611 -0.4178  1.9144
15448SOL     OW48020   2.174   5.583   4.936  0.2330  0.5762 -0.3544
15448SOL    HW148021   2.126   5.569   5.017  0.1801  0.4000 -0.4179
15448SOL    HW248022   2.249   5.525   4.942  0.3934  0.7869 -0.2950
15449SOL     OW48023   5.093   2.190   6.927  0.6153 -0.2740  0.0136
15449SOL    HW148024   5.030   2.242   6.878  1.4216 -0.4721 -1.2392
15449SOL    HW248025   5.046   2.164   7.006 -0.1623  1.4195  0.1332
15450SOL     OW48026   3.790   3.845   7.559 -0.5809  0.6565 -0.4001
15450SOL    HW148027   3.825   3.832   7.470 -2.7167  0.5058 -1.2511
15450SOL    HW248028   3.814   3.935   7.581  1.3975  0.1733 -0.4401
15451SOL     OW48029   4.581   3.456   4.401  0.3029 -0.0055  0.8301
15451SOL    HW148030   4.587   3.531   4.460  0.0184 -0.2341  1.1522
15451SOL    HW248031   4.664   3.410   4.411  0.6113  0.4507  0.3827
15452SOL     OW48032   4.664   6.328   2.628 -0.0304  0.2914 -0.2503
15452SOL    HW148033   4.694   6.257   2.685  2.3323  1.8099  0.4548
15452SOL    HW248034   4.640   6.284   2.546 -1.0127 -1.6070  1.0191
15453SOL     OW48035   8.103   2.314   5.158 -0.6200 -0.3326 -0.0646
15453SOL    HW148036   8.148   2.245   5.109 -0.5597 -2.0114  2.2348
15453SOL    HW248037   8.093   2.386   5.096  1.4175 -1.5432 -1.8470
15454SOL     OW48038   2.044   4.923   5.769  0.3302 -0.6875 -0.3892
15454SOL    HW148039   2.129   4.914   5.725  1.3641  1.1190  1.1450
15454SOL    HW248040   2.054   5.001   5.824 -2.2075 -0.6750  0.1158
15455SOL     OW48041   2.902   5.908   3.183 -0.1455  0.6319  0.0968
15455SOL    HW148042   2.930   5.893   3.093  0.5993  0.0882  0.4186
15455SOL    HW248043   2.825   5.853   3.194 -0.5350  1.0823 -0.3621
15456SOL     OW48044   8.011   3.590   7.359 -0.2956  0.6991  0.3792
15456SOL    HW148045   8.014   3.685   7.373  0.5857  0.5762  1.0060
15456SOL    HW248046   7.942   3.559   7.418  0.7862  0.6930  1.6657
15457SOL     OW48047   4.130   5.148   0.223 -0.2557  0.1244  0.6302
15457SOL    HW148048   4.037   5.131   0.239 -0.3703  1.0382  0.9196
15457SOL    HW248049   4.140   5.242   0.231  0.6252  0.0800  0.1930
15458SOL     OW48050   5.003   1.585   8.078  0.4283  0.4294  0.2927
15458SOL    HW148051   5.088   1.624   8.056  0.5173  0.1415  0.1319
15458SOL    HW248052   4.986   1.614   8.168 -0.4574  2.5437 -0.5231
15459SOL     OW48053   1.221   0.130   7.002  0.5068 -0.3971 -0.3346
15459SOL    HW148054   1.264   0.174   6.929  0.9704 -0.6614 -0.2227
15459SOL    HW248055   1.256   0.041   7.000  0.8116 -0.2964  0.4422
15460SOL     OW48056   4.979   2.863   4.999  0.0041 -0.2656 -0.1507
15460SOL    HW148057   4.975   2.827   5.087  0.6087 -0.8050 -0.3439
15460SOL    HW248058   5.068   2.846   4.969  0.5803  2.1488  0.0749
15461SOL     OW48059   8.827   4.847   5.476 -0.2497  0.2998  0.0941
15461SOL    HW148060   8.921   4.833   5.480 -0.5170 -1.7475 -0.1758
15461SOL    HW248061   8.804   4.887   5.560  0.4254 -2.0293  1.4138
15462SOL     OW48062   5.907   4.673   0.900 -0.0883 -0.7250 -0.1825
15462SOL    HW148063   5.942   4.697   0.985  0.5092  1.4147 -0.9857
15462SOL    HW248064   5.845   4.603   0.918 -1.2144  0.8236  2.2188
15463SOL     OW48065   1.414   6.449   1.378 -0.4077 -0.4056  0.2521
15463SOL    HW148066   1.444   6.489   1.460  0.9445 -0.2833 -0.2907
15463SOL    HW248067   1.465   6.369   1.370  1.0891  0.6885 -1.5665
15464SOL     OW48068   0.559   0.257   8.856  0.3651  0.3316  0.1113
15464SOL    HW148069   0.597   0.185   8.806 -0.8253 -0.5242  0.4136
15464SOL    HW248070   0.522   0.315   8.790  0.3440  0.1032 -0.0790
15465SOL     OW48071   1.681   1.840   0.031 -0.0162  0.4050  0.1926
15465SOL    HW148072   1.611   1.904   0.043 -0.3691 -0.0909  0.8457
15465SOL    HW248073   1.760   1.884   0.063  0.0016  1.0144 -0.6778
15466SOL     OW48074   3.237   6.810   9.042  0.5058  0.1035  0.9793
15466SOL    HW148075   3.187   6.743   8.996  0.7594  1.6594 -1.7133
15466SOL    HW248076   3.179   6.886   9.045  1.3804  0.7737  1.0946
15467SOL     OW48077   3.855   2.242   0.995  0.1802 -0.4368  0.0210
15467SOL    HW148078   3.915   2.199   0.934 -1.1805 -1.2848 -0.7281
15467SOL    HW248079   3.811   2.308   0.942 -0.3617 -0.5726  0.3024
15468SOL     OW48080   8.980   3.571   4.308 -0.3437  0.0031  0.3606
15468SOL    HW148081   8.992   3.589   4.215  1.2145  0.3077  0.6087
15468SOL    HW248082   8.929   3.490   4.311  0.5387 -0.5892 -0.7434
15469SOL     OW48083   6.718   7.795   5.185 -0.5453  0.1503 -0.3956
15469SOL    HW148084   6.805   7.792   5.223 -0.0412  1.9056 -1.4065
15469SOL    HW248085   6.667   7.733   5.238  0.8257  0.5024  1.3694
15470SOL     OW48086   1.358   0.359   2.093 -0.0167 -0.1099  0.5762
15470SOL    HW148087   1.368   0.397   2.006 -0.0596  0.7710  0.9483
15470SOL    HW248088   1.264   0.353   2.107 -0.0468 -2.4073 -0.3484
15471SOL     OW48089   5.579   2.029   1.500  0.0229  0.2038 -0.4269
15471SOL    HW148090   5.627   2.072   1.430  0.8065  0.0143 -0.0064
15471SOL    HW248091   5.539   1.953   1.459 -0.4559  0.7119 -0.9185
15472SOL     OW48092   8.038   3.339   2.663  0.4747 -0.0293 -0.1618
15472SOL    HW148093   7.960   3.393   2.646  0.8886  0.5955 -0.0887
15472SOL    HW248094   8.014   3.252   2.632  0.0214  0.3420 -0.8669
15473SOL     OW48095   0.876   6.176   6.358 -0.0478  0.1095 -0.4178
15473SOL    HW148096   0.785   6.185   6.383 -0.9545 -1.4657 -2.9153
15473SOL    HW248097   0.914   6.118   6.424 -0.8871  0.6134  0.5203
15474SOL     OW48098   7.099   9.233   4.034  0.2091  0.3577  0.3389
15474SOL    HW148099   7.174   9.251   3.977  0.2696  0.2903  0.3969
15474SOL    HW248100   7.025   9.275   3.990  0.1813 -0.0374  0.0082
15475SOL     OW48101   1.950   6.353   5.584  0.6875  0.1126 -0.0152
15475SOL    HW148102   1.993   6.275   5.621 -0.1558  0.1353  1.0228
15475SOL    HW248103   2.013   6.424   5.597  0.1174  0.2610  2.0336
15476SOL     OW48104   4.140   0.386   2.362  0.3945 -0.7636 -0.1827
15476SOL    HW148105   4.228   0.399   2.328  0.3055 -1.3763 -0.6485
15476SOL    HW248106   4.129   0.457   2.426 -0.2865  1.8924 -3.0817
15477SOL     OW48107   3.481   7.962   0.256  0.8932  0.0084  0.5717
15477SOL    HW148108   3.437   8.013   0.325 -0.2889  0.5517 -0.5671
15477SOL    HW248109   3.550   7.915   0.302 -0.2570 -0.1005  2.2477
15478SOL     OW48110   1.858   9.236   5.185  0.1422  0.2569  0.0709
15478SOL    HW148111   1.780   9.268   5.231 -0.7166 -1.6057 -0.0502
15478SOL    HW248112   1.890   9.313   5.138 -0.4086  1.5682  1.7652
15479SOL     OW48113   7.258   7.755   1.332  0.1166 -0.1003  0.1239
15479SOL    HW148114   7.222   7.667   1.330  0.8195 -0.3716 -1.7082
15479SOL    HW248115   7.242   7.786   1.421 -2.2596 -1.1799  0.1090
15480SOL     OW48116   3.543   2.046   3.014  0.0297  0.0521 -0.2891
15480SOL    HW148117   3.616   2.093   2.974  0.1671 -0.7000 -0.9197
15480SOL    HW248118   3.468   2.105   3.002 -0.0687 -0.4400 -2.2241
15481SOL     OW48119   1.016   8.944   3.643 -0.1928 -0.5527 -0.3118
15481SOL    HW148120   1.074   9.019   3.626  0.2682 -0.4753  1.5426
15481SOL    HW248121   0.942   8.982   3.691 -1.3784 -0.8053 -1.8988
15482SOL     OW48122   5.162   0.749   2.426 -0.4956 -0.0453  0.0491
15482SOL    HW148123   5.209   0.758   2.343  1.1811  1.6933  1.1620
15482SOL    HW248124   5.175   0.658   2.451  1.7688  0.2489  0.0182
15483SOL     OW48125   2.249   7.254   4.103 -0.3362  0.0402  0.4801
15483SOL    HW148126   2.212   7.309   4.034 -0.3120  0.2536  0.6393
15483SOL    HW248127   2.333   7.294   4.124  0.3052 -0.8433 -0.3658
15484SOL     OW48128   5.069   0.395   5.460 -0.3107  0.1714 -0.9820
15484SOL    HW148129   5.153   0.438   5.480  0.6838 -1.4854 -1.4954
15484SOL    HW248130   5.066   0.392   5.364 -1.2417  0.7618 -0.9758
15485SOL     OW48131   0.199   0.034   3.935  0.1585  0.6203  0.2315
15485SOL    HW148132   0.201   0.079   4.019  3.6650  0.5366  0.2511
15485SOL    HW248133   0.235   0.098   3.873  0.6573 -0.4843 -0.6227
15486SOL     OW48134   6.597   3.568   1.794  0.0128 -0.0591 -0.1068
15486SOL    HW148135   6.687   3.537   1.778  0.4002  1.0450 -0.1304
15486SOL    HW248136   6.543   3.489   1.790  0.7004 -0.4658 -2.2927
15487SOL     OW48137   7.673   4.535   6.490  0.4287  0.7001 -0.0556
15487SOL    HW148138   7.613   4.607   6.509 -0.0529  0.1492  0.5279
15487SOL    HW248139   7.644   4.502   6.404 -0.3771  0.1634  0.4182
15488SOL     OW48140   7.824   1.936   8.510 -0.0631 -0.6613 -0.4074
15488SOL    HW148141   7.894   1.933   8.575 -0.4956 -1.3175  0.0419
15488SOL    HW248142   7.828   2.024   8.473 -0.4130  0.0482  1.1922
15489SOL     OW48143   1.454   0.220   5.879 -0.1150 -0.4868 -0.8431
15489SOL    HW148144   1.532   0.238   5.932 -0.2356 -0.6230 -0.6165
15489SOL    HW248145   1.461   0.126   5.859 -0.7937 -0.7565  0.1205
15490SOL     OW48146   2.414   6.090   3.856 -0.1377 -0.1186 -0.4307
15490SOL    HW148147   2.399   6.002   3.891  0.7791 -0.3576 -0.6048
15490SOL    HW248148   2.341   6.106   3.797 -0.1823 -0.8724 -0.5825
15491SOL     OW48149   6.363   0.622   6.797 -0.1148  0.2142 -0.0732
15491SOL    HW148150   6.458   0.635   6.803 -0.1778  0.2786  0.7629
15491SOL    HW248151   6.328   0.709   6.781 -0.1545  0.4123  1.0662
15492SOL     OW48152   1.162   8.894   9.256  0.5544  0.0440 -0.1908
15492SOL    HW148153   1.090   8.902   9.319  1.5287 -0.7199  1.0427
15492SOL    HW248154   1.140   8.817   9.203  1.2284 -1.1291  1.2097
15493SOL     OW48155   0.865   4.107   3.596  0.7273  0.0976 -0.4829
15493SOL    HW148156   0.834   4.106   3.505  3.0119  0.7733 -1.2937
15493SOL    HW248157   0.828   4.028   3.634 -0.6874  0.0657 -1.8381
15494SOL     OW48158   5.351   7.797   1.421  0.2518  0.2392 -0.2259
15494SOL    HW148159   5.305   7.747   1.488  0.4436 -2.3102 -1.9166
15494SOL    HW248160   5.435   7.818   1.460  0.9045 -2.4219 -0.1026
15495SOL     OW48161   0.751   0.620   7.055  0.1241 -0.1733 -0.1056
15495SOL    HW148162   0.753   0.715   7.051  2.8672 -0.2651 -1.7859
15495SOL    HW248163   0.818   0.597   7.120  0.8934 -1.0238 -1.1897
15496SOL     OW48164   2.108   6.372   4.258  0.8927 -0.1490  0.7779
15496SOL    HW148165   2.133   6.456   4.295  1.1402  0.9042 -1.7021
15496SOL    HW248166   2.038   6.341   4.316 -0.2648  2.4807  0.8816
15497SOL     OW48167   8.711   1.690   8.739  0.0674  0.2230 -0.3251
15497SOL    HW148168   8.676   1.601   8.726 -0.3157  0.2640  0.4018
15497SOL    HW248169   8.704   1.705   8.833  0.6490  0.8170 -0.3751
15498SOL     OW48170   1.776   4.536   9.254 -0.1110 -0.4283  0.2811
15498SOL    HW148171   1.710   4.592   9.294 -0.1429  0.2425 -0.6848
15498SOL    HW248172   1.831   4.596   9.204  0.1935 -1.1894 -0.3006
15499SOL     OW48173   4.985   6.657   0.226  0.3013  0.4176  0.3615
15499SOL    HW148174   4.946   6.608   0.153 -1.6282 -0.1447  1.7447
15499SOL    HW248175   5.000   6.591   0.293  0.6166  1.2082  1.0722
15500SOL     OW48176   8.048   3.034   3.807 -0.5227  0.4984 -0.2926
15500SOL    HW148177   8.046   2.971   3.879 -1.9226  1.4450  0.5269
15500SOL    HW248178   8.003   2.990   3.735 -1.5536  0.5710  0.2971
15501SOL     OW48179   6.721   8.138   5.912  0.2243  0.3066  0.2190
15501SOL    HW148180   6.794   8.133   5.850 -0.3776  0.1156 -0.4763
15501SOL    HW248181   6.731   8.060   5.967  0.6272  0.3610  0.2241
15502SOL     OW48182   3.969   2.301   2.711 -0.3065  0.0608 -0.1996
15502SOL    HW148183   3.889   2.342   2.745  0.5251  1.2032  0.4479
15502SOL    HW248184   4.030   2.304   2.785  0.5878 -0.0601 -0.9246
15503SOL     OW48185   3.568   9.134   4.298  0.4088 -0.5356  0.2483
15503SOL    HW148186   3.504   9.101   4.235  1.3684 -1.4122 -0.2777
15503SOL    HW248187   3.516   9.181   4.362 -0.5572  0.6260 -1.3623
15504SOL     OW48188   3.865   2.113   6.297  0.2195  0.9904  0.2316
15504SOL    HW148189   3.776   2.124   6.329  0.5320 -0.0870  1.5102
15504SOL    HW248190   3.889   2.024   6.323  1.3714  0.9704 -0.8378
15505SOL     OW48191   7.209   0.297   7.518 -0.3929 -0.4413  1.0350
15505SOL    HW148192   7.211   0.217   7.571  2.6213 -1.5281 -0.6098
15505SOL    HW248193   7.224   0.266   7.428 -1.6210  1.7500  0.0453
15506SOL     OW48194   6.727   4.244   5.593 -0.0592 -1.0111 -0.5910
15506SOL    HW148195   6.645   4.293   5.598 -0.2673 -1.5691  2.3646
15506SOL    HW248196   6.796   4.310   5.607 -0.0717 -0.7638 -1.6849
15507SOL     OW48197   8.865   8.179   2.137 -0.2072  0.1010  0.2977
15507SOL    HW148198   8.900   8.242   2.075  1.5179  0.0257  1.1672
15507SOL    HW248199   8.773   8.203   2.147  0.6196  3.0308  1.2812
15508SOL     OW48200   5.592   2.078   3.253 -0.1988 -0.5699  0.2616
15508SOL    HW148201   5.579   2.159   3.203 -1.3677 -1.0263 -0.1948
15508SOL    HW248202   5.682   2.084   3.286 -0.7669  1.6141  1.5003
15509SOL     OW48203   2.879   2.414   7.358 -0.0749 -0.2910  0.5564
15509SOL    HW148204   2.803   2.463   7.326 -1.2742 -0.9209  2.3918
15509SOL    HW248205   2.880   2.334   7.305  0.0997  0.3065 -0.3646
15510SOL     OW48206   6.537   6.206   4.496  0.0752  0.4172  0.5334
15510SOL    HW148207   6.473   6.255   4.548 -1.6547 -2.5439  1.3371
15510SOL    HW248208   6.619   6.214   4.546 -1.2228 -1.1490  3.0285
15511SOL     OW48209   0.757   3.766   9.257 -0.0009  0.5545 -0.2215
15511SOL    HW148210   0.829   3.703   9.260  0.7943  1.4910  0.3944
15511SOL    HW248211   0.692   3.725   9.198  1.0592 -0.2338 -0.8582
15512SOL     OW48212   1.822   1.761   3.190 -0.2047  0.0136 -0.0800
15512SOL    HW148213   1.764   1.705   3.242  1.2302 -0.9625  0.5096
15512SOL    HW248214   1.879   1.700   3.144  0.8488  0.9605 -0.0618
15513SOL     OW48215   8.370   1.007   2.484  0.3742  0.7350 -0.2199
15513SOL    HW148216   8.417   1.079   2.526  0.1089 -0.0370  1.4191
15513SOL    HW248217   8.430   0.977   2.414 -0.1901  3.5511 -1.9916
15514SOL     OW48218   6.883   5.428   9.139  0.1672  0.2819 -0.3683
15514SOL    HW148219   6.831   5.462   9.212 -1.2240  0.3666 -1.3968
15514SOL    HW248220   6.952   5.377   9.182  0.4788  1.8783  1.0702
15515SOL     OW48221   2.668   1.494   3.390  0.4289  0.0312  0.0777
15515SOL    HW148222   2.689   1.405   3.363  0.2732 -0.6780  2.2219
15515SOL    HW248223   2.574   1.503   3.373  0.4053 -0.2725  0.0506
15516SOL     OW48224   1.116   3.067   7.914  0.1470  0.3215  0.0235
15516SOL    HW148225   1.159   3.123   7.850  0.4981  0.7726  0.6460
15516SOL    HW248226   1.108   2.982   7.872  1.5846  0.2559 -0.1093
15517SOL     OW48227   3.374   8.375   6.648 -0.2305 -0.1425 -0.3953
15517SOL    HW148228   3.451   8.365   6.704 -1.6650  1.3625  1.8969
15517SOL    HW248229   3.402   8.340   6.563  2.8216 -0.0391  0.5069
15518SOL     OW48230   9.032   3.008   6.049  0.4381 -0.4282  0.1989
15518SOL    HW148231   9.120   3.014   6.012  0.9300 -1.5890  1.1370
15518SOL    HW248232   8.975   2.992   5.974  1.2935 -1.7278 -0.1806
15519SOL     OW48233   4.532   5.860   1.607 -0.2166 -0.7013 -0.2514
15519SOL    HW148234   4.519   5.939   1.660 -0.3388  0.1952 -1.5937
15519SOL    HW248235   4.463   5.864   1.541  1.8779 -0.1075 -2.4741
15520SOL     OW48236   4.677   5.174   3.249  0.0951 -0.0554 -0.3084
15520SOL    HW148237   4.741   5.226   3.202 -1.5100  1.4977 -0.8418
15520SOL    HW248238   4.601   5.232   3.259 -1.1233 -1.7423  0.5321
15521SOL     OW48239   5.387   8.795   2.293 -0.4288 -0.0518 -0.1802
15521SOL    HW148240   5.458   8.802   2.356 -1.7906  0.4351  1.3578
15521SOL    HW248241   5.309   8.780   2.347 -1.7215  1.0516 -1.6959
15522SOL     OW48242   7.723   8.549   2.427 -0.1108  0.2110  0.6570
15522SOL    HW148243   7.679   8.580   2.348 -0.9821 -2.4062  0.0785
15522SOL    HW248244   7.686   8.602   2.497 -0.5924  1.3713 -0.4594
15523SOL     OW48245   2.349   1.672   5.326  0.5023  0.0884  0.0703
15523SOL    HW148246   2.304   1.588   5.317  0.3761  0.3121 -1.5107
15523SOL    HW248247   2.431   1.660   5.277  0.3247  0.9933 -0.4445
15524SOL     OW48248   7.926   3.731   3.205  0.0464 -0.0700 -0.0236
15524SOL    HW148249   7.949   3.699   3.118 -2.8495 -1.2359 -0.3894
15524SOL    HW248250   7.996   3.697   3.262  1.9728  0.7141 -1.8442
15525SOL     OW48251   5.759   2.942   2.085 -0.1696  0.0890 -0.1552
15525SOL    HW148252   5.800   2.861   2.053 -0.9454  0.0356 -1.0399
15525SOL    HW248253   5.832   2.993   2.121  0.7375  0.1691 -2.0591
15526SOL     OW48254   2.036   7.298   7.604 -0.5414  0.4682  0.7943
15526SOL    HW148255   2.039   7.375   7.547  2.1988  1.2777  1.9772
15526SOL    HW248256   2.006   7.332   7.688 -2.6084 -0.3736  0.4215
15527SOL     OW48257   6.110   5.394   4.286  0.4561 -0.4515  0.3162
15527SOL    HW148258   6.201   5.393   4.258  0.2920 -0.3117 -0.2448
15527SOL    HW248259   6.078   5.480   4.261  0.5817  0.0676  1.9034
15528SOL     OW48260   3.235   2.656   2.420 -0.0090  0.1584  0.4246
15528SOL    HW148261   3.203   2.568   2.405 -0.4372  0.3976 -0.0621
15528SOL    HW248262   3.191   2.685   2.500  1.1176 -0.5452  1.3204
15529SOL     OW48263   7.403   3.108   3.761  0.1766 -0.1837  0.2497
15529SOL    HW148264   7.464   3.042   3.792  0.4910  0.6301  1.4011
15529SOL    HW248265   7.340   3.118   3.832 -0.5277 -0.0664 -0.3838
15530SOL     OW48266   5.860   2.611   7.071  0.2560 -0.0063  0.3586
15530SOL    HW148267   5.932   2.632   7.012  0.6641 -0.9262  0.5229
15530SOL    HW248268   5.892   2.634   7.158 -0.5147  1.7937  0.2067
15531SOL     OW48269   5.031   7.479   4.649 -0.4359 -0.3438 -0.6521
15531SOL    HW148270   4.950   7.487   4.699  0.1033  1.5419 -0.0173
15531SOL    HW248271   5.017   7.535   4.573  0.9659  1.6060  0.4615
15532SOL     OW48272   8.764   6.962   1.482 -0.3021  0.7090  0.3743
15532SOL    HW148273   8.705   7.006   1.543  0.5657  2.1070  0.2382
15532SOL    HW248274   8.816   6.903   1.537  1.0027  2.5210  1.1417
15533SOL     OW48275   4.003   3.436   2.425 -0.3711 -0.0096  0.0225
15533SOL    HW148276   4.034   3.345   2.429 -0.3958 -0.0827 -1.2185
15533SOL    HW248277   4.049   3.481   2.496  0.4573 -0.7457 -0.0442
15534SOL     OW48278   1.967   5.734   4.849  0.0755 -0.4228 -0.5267
15534SOL    HW148279   2.033   5.670   4.874  0.5908 -0.6263 -2.3456
15534SOL    HW248280   1.921   5.695   4.775 -1.8784 -0.1368  0.5002
15535SOL     OW48281   4.166   0.446   4.537  0.1168 -0.1583  0.2383
15535SOL    HW148282   4.079   0.410   4.517  0.1774  0.0452 -0.4247
15535SOL    HW248283   4.149   0.529   4.581 -0.0277 -0.1491  0.1655
15536SOL     OW48284   0.967   3.824   4.141 -0.6664  0.3659 -0.0698
15536SOL    HW148285   1.024   3.793   4.071  0.8803  1.2321  0.7883
15536SOL    HW248286   0.943   3.913   4.115 -3.0386 -0.5840 -1.2687
15537SOL     OW48287   6.081   3.750   6.464  0.8155  0.1373  0.1614
15537SOL    HW148288   6.091   3.662   6.502  0.9746  0.6218  1.2552
15537SOL    HW248289   5.992   3.776   6.486  1.9609  1.7494  3.0704
15538SOL     OW48290   5.557   2.626   2.414 -0.8348 -0.0231  0.1607
15538SOL    HW148291   5.603   2.544   2.392  0.6114  0.4827  1.1929
15538SOL    HW248292   5.480   2.598   2.463  0.0934 -0.7329  1.2290
15539SOL     OW48293   2.957   1.120   5.556 -0.1923 -0.2636  0.1272
15539SOL    HW148294   2.931   1.168   5.635 -1.5118 -1.2254  0.2795
15539SOL    HW248295   3.001   1.042   5.589  0.0317 -0.2366 -0.1061
15540SOL     OW48296   2.697   7.582   8.069  0.3579 -0.4189 -0.4950
15540SOL    HW148297   2.692   7.523   8.144 -0.1343  0.0752 -0.1362
15540SOL    HW248298   2.618   7.636   8.075  1.3265  1.0025 -0.2051
15541SOL     OW48299   5.454   7.568   8.760 -0.4558 -0.3228  0.5221
15541SOL    HW148300   5.488   7.521   8.684 -1.6917  1.4641 -1.1745
15541SOL    HW248301   5.365   7.534   8.771 -0.8483  0.5868  0.1657
15542SOL     OW48302   1.797   3.308   6.242  0.4162  0.1401 -0.9087
15542SOL    HW148303   1.877   3.359   6.231  2.0455 -1.4752  2.9325
15542SOL    HW248304   1.813   3.226   6.194  0.8485  0.0069 -0.5278
15543SOL     OW48305   1.000   3.508   5.137  0.4230  0.2990 -0.2185
15543SOL    HW148306   0.992   3.583   5.196  0.4589 -0.0860  0.2776
15543SOL    HW248307   0.962   3.434   5.186 -1.2624  0.3491 -1.3962
15544SOL     OW48308   5.980   0.049   3.307  0.7908 -0.1857  0.3880
15544SOL    HW148309   5.995   0.012   3.220  1.1014 -0.0240  0.3734
15544SOL    HW248310   5.927  -0.017   3.352  2.0946 -1.0634  0.6744
15545SOL     OW48311   1.584   3.891   5.118  0.5726 -0.2597 -0.2412
15545SOL    HW148312   1.516   3.956   5.100  0.9529  0.7005  1.6277
15545SOL    HW248313   1.639   3.891   5.040 -0.3274  0.5240 -0.8892
15546SOL     OW48314   2.576   6.784   5.237  0.4000 -0.4567 -0.6042
15546SOL    HW148315   2.524   6.835   5.300  1.3967 -1.4091  1.0393
15546SOL    HW248316   2.520   6.776   5.160 -0.9085  0.6233  0.2093
15547SOL     OW48317   6.710   3.000   7.181 -0.3234 -0.0091  0.0865
15547SOL    HW148318   6.765   2.939   7.131 -0.7800 -0.1785 -0.2227
15547SOL    HW248319   6.716   2.970   7.271 -0.5254 -0.5076 -0.0605
15548SOL     OW48320   6.292   2.148   5.087  0.6830  0.0426  0.0331
15548SOL    HW148321   6.302   2.235   5.126 -1.2669 -0.2367  1.1780
15548SOL    HW248322   6.320   2.087   5.156  2.2442 -0.2652 -0.8370
15549SOL     OW48323   3.623   0.244   8.434 -0.1323  0.2722 -0.0658
15549SOL    HW148324   3.689   0.312   8.445  2.7320 -2.4289  0.2216
15549SOL    HW248325   3.641   0.206   8.347 -0.7772 -1.0367  0.3523
15550SOL     OW48326   1.478   7.236   6.401  0.7445 -0.0747 -0.2338
15550SOL    HW148327   1.470   7.169   6.469  1.9358 -1.7217 -1.6714
15550SOL    HW248328   1.569   7.264   6.404  0.7409  0.0308 -0.9654
15551SOL     OW48329   0.626   8.825   5.647  0.3784  0.8987  0.5788
15551SOL    HW148330   0.627   8.907   5.697 -0.4799  0.1120  1.8919
15551SOL    HW248331   0.636   8.756   5.712  1.1844 -0.0556 -0.5303
15552SOL     OW48332   8.323   4.652   8.210  0.3326  0.1049 -0.5881
15552SOL    HW148333   8.358   4.584   8.151 -0.4221  0.5069 -1.5138
15552SOL    HW248334   8.266   4.704   8.154  1.3778  1.8799 -0.0147
15553SOL     OW48335   4.216   6.864   3.490 -0.6875 -0.0769  0.3209
15553SOL    HW148336   4.287   6.928   3.478 -1.0667  0.2733 -0.0686
15553SOL    HW248337   4.154   6.907   3.549 -0.9578 -0.0816  0.0372
15554SOL     OW48338   7.919   0.962   3.616 -0.9136  0.7457  0.2604
15554SOL    HW148339   7.882   1.023   3.552 -0.7682 -0.3506 -0.9142
15554SOL    HW248340   7.997   1.005   3.650  0.1576  0.5199 -1.8327
15555SOL     OW48341   6.703   6.408   8.465 -0.1943  0.4221 -0.0485
15555SOL    HW148342   6.616   6.445   8.451 -1.0573 -0.8138  1.8465
15555SOL    HW248343   6.747   6.471   8.522 -0.0317  0.7518 -0.5273
15556SOL     OW48344   7.445   4.597   1.011  0.1436 -0.4831  0.0520
15556SOL    HW148345   7.511   4.664   1.031 -1.0431  0.7770 -0.1200
15556SOL    HW248346   7.410   4.573   1.097 -0.9840  0.7702 -0.0382
15557SOL     OW48347   2.818   4.763   8.422 -0.5223 -0.1788 -0.4236
15557SOL    HW148348   2.742   4.752   8.365 -0.2118 -1.1723 -0.6475
15557SOL    HW248349   2.786   4.818   8.494 -1.7107 -1.3735 -0.0261
15558SOL     OW48350   6.445   1.327   8.409 -0.4895  0.8040 -0.0293
15558SOL    HW148351   6.379   1.268   8.373  1.3623 -1.9613  0.9068
15558SOL    HW248352   6.405   1.360   8.489 -0.9070 -0.6041  0.3723
15559SOL     OW48353   6.448   6.730   2.245 -0.5671 -0.1259 -0.7449
15559SOL    HW148354   6.384   6.773   2.189 -1.2269  0.2477  0.2960
15559SOL    HW248355   6.522   6.712   2.187 -2.0292 -1.5356 -2.2244
15560SOL     OW48356   3.045   6.166   8.998 -0.1137  0.0092  0.3292
15560SOL    HW148357   3.039   6.072   9.017  0.1525 -0.0273  0.2393
15560SOL    HW248358   2.979   6.206   9.054  0.2768 -0.1529  0.9103
15561SOL     OW48359   1.869   2.980   6.211  0.4589 -0.0238 -0.0301
15561SOL    HW148360   1.774   2.977   6.201  0.4614 -0.1872 -0.0108
15561SOL    HW248361   1.902   2.978   6.121  0.4114  1.5264 -0.1005
15562SOL     OW48362   6.310   2.982   3.458 -0.5331 -0.0219 -0.2618
15562SOL    HW148363   6.397   3.000   3.420  0.1579  0.0085  1.2996
15562SOL    HW248364   6.329   2.940   3.542 -2.0258  1.4454  0.8288
15563SOL     OW48365   8.726   2.413   6.304  0.3678 -0.3903  0.1686
15563SOL    HW148366   8.770   2.392   6.386  0.7615  0.3902  0.1675
15563SOL    HW248367   8.716   2.509   6.306 -0.2367 -0.4396 -0.3780
15564SOL     OW48368   1.438   1.554   5.000  0.2787  0.5862 -0.2342
15564SOL    HW148369   1.401   1.568   5.087 -1.1754  0.5813 -0.8481
15564SOL    HW248370   1.454   1.642   4.967  0.4707  0.5936 -0.1263
15565SOL     OW48371   4.337   0.291   4.082 -0.0391 -0.4455 -0.3661
15565SOL    HW148372   4.349   0.385   4.092  0.0822 -0.7336  2.6832
15565SOL    HW248373   4.386   0.268   4.004  1.5801  1.7189 -0.0039
15566SOL     OW48374   4.897   0.711   6.071  0.3244  0.4149  0.0995
15566SOL    HW148375   4.873   0.802   6.087  0.6604  0.5712 -0.2906
15566SOL    HW248376   4.990   0.706   6.092  0.1078 -0.0389  0.9543
15567SOL     OW48377   7.389   2.790   5.600 -0.2845 -0.9038 -1.2955
15567SOL    HW148378   7.475   2.748   5.608  0.5026  1.0076  0.8735
15567SOL    HW248379   7.342   2.765   5.680 -0.5099  0.7095 -0.8971
15568SOL     OW48380   7.775   6.619   5.142  0.2421  0.1876  0.1939
15568SOL    HW148381   7.762   6.714   5.138 -0.3572  0.1104  0.2208
15568SOL    HW248382   7.691   6.585   5.174 -0.5224 -0.5685 -2.4517
15569SOL     OW48383   8.579   7.311   9.100  0.2484 -0.0433 -0.1698
15569SOL    HW148384   8.567   7.364   9.178 -1.5808  0.0621 -0.5060
15569SOL    HW248385   8.524   7.352   9.034  1.6444 -0.2174 -1.4881
15570SOL     OW48386   0.864   6.461   4.136  0.1458  0.2124 -0.3794
15570SOL    HW148387   0.774   6.450   4.107  0.8050  0.1884 -2.5200
15570SOL    HW248388   0.904   6.517   4.069  1.6312  0.4969  0.7197
15571SOL     OW48389   0.731   7.556   3.064 -0.3345  0.1631  0.3095
15571SOL    HW148390   0.637   7.543   3.071 -0.6112  2.8796  2.4372
15571SOL    HW248391   0.759   7.583   3.152  1.7861  2.8458 -1.0855
15572SOL     OW48392   6.308   7.686   2.767  0.3216  0.2577 -0.6818
15572SOL    HW148393   6.270   7.645   2.690  0.1708 -1.2739  0.1921
15572SOL    HW248394   6.354   7.615   2.813  1.3452  1.3653  0.0655
15573SOL     OW48395   8.332   1.303   1.523  0.0723 -0.0028 -0.5420
15573SOL    HW148396   8.355   1.376   1.580 -1.5475 -0.7300  1.1243
15573SOL    HW248397   8.240   1.318   1.501 -0.3098 -1.5473 -0.1018
15574SOL     OW48398   6.326   3.169   8.690  0.0590 -0.5344 -0.4756
15574SOL    HW148399   6.275   3.187   8.612  1.7303 -0.7371 -1.6366
15574SOL    HW248400   6.360   3.080   8.676  0.4308 -0.5419  0.4449
15575SOL     OW48401   6.797   4.677   4.391  0.1019 -0.0603 -0.6857
15575SOL    HW148402   6.704   4.683   4.415 -0.5088  1.6070 -3.2079
15575SOL    HW248403   6.816   4.584   4.392 -1.5464 -0.4154  0.0985
15576SOL     OW48404   8.600   0.490   2.949 -0.0693  0.8192 -0.7696
15576SOL    HW148405   8.668   0.427   2.972  0.8403  1.8163 -0.6960
15576SOL    HW248406   8.646   0.562   2.905 -0.6893  2.6398  1.4276
15577SOL     OW48407   1.405   6.070   9.080  0.1302 -0.0222  0.5267
15577SOL    HW148408   1.355   6.114   9.149 -1.6357 -2.0665  0.5741
15577SOL    HW248409   1.469   6.017   9.127  0.2405  0.1305  0.5466
15578SOL     OW48410   6.490   7.978   4.814 -0.0907  1.0810  0.5803
15578SOL    HW148411   6.428   8.008   4.748  2.1770 -1.3158 -2.8018
15578SOL    HW248412   6.445   7.906   4.859 -0.5346  0.6875 -0.4844
15579SOL     OW48413   3.208   0.380   5.563 -0.0310 -0.3158 -0.1159
15579SOL    HW148414   3.298   0.347   5.572  0.3834  1.2389  1.6722
15579SOL    HW248415   3.165   0.356   5.645 -0.7172  0.5415 -0.2153
15580SOL     OW48416   3.317   0.792   9.153 -0.2666  0.1952  0.1763
15580SOL    HW148417   3.268   0.872   9.171  0.1975  0.6070 -0.3482
15580SOL    HW248418   3.281   0.728   9.213 -2.4950  0.0607 -1.2425
15581SOL     OW48419   0.564   4.761   3.543 -0.5392  0.5423  0.4097
15581SOL    HW148420   0.501   4.732   3.610 -1.3920  1.4787  0.0267
15581SOL    HW248421   0.521   4.740   3.460  0.7786 -1.1668  0.1350
15582SOL     OW48422   0.471   3.561   0.078  0.5145 -0.2602  0.1394
15582SOL    HW148423   0.556   3.530   0.046  0.1484 -0.9146 -0.2215
15582SOL    HW248424   0.492   3.636   0.133  1.2908 -0.1412 -0.3080
15583SOL     OW48425   9.100   7.872   9.096 -0.5143 -0.1767  0.1599
15583SOL    HW148426   9.122   7.925   9.019 -0.8571 -0.4940 -0.1579
15583SOL    HW248427   9.035   7.925   9.143 -0.0545  0.1673  0.4056
15584SOL     OW48428   7.210   2.317   0.063 -0.1211 -0.4479  1.2109
15584SOL    HW148429   7.126   2.333   0.106  0.1333 -0.4817  1.7194
15584SOL    HW248430   7.187   2.299  -0.028 -0.7345 -1.4356  1.5588
15585SOL     OW48431   6.677   0.926   1.077 -0.8762  0.7961  0.3034
15585SOL    HW148432   6.618   0.869   1.127 -0.5084 -0.8710 -1.1126
15585SOL    HW248433   6.761   0.921   1.124 -0.1739 -1.7880 -1.1351
15586SOL     OW48434   1.663   3.045   1.389  0.1792  0.0472  0.4567
15586SOL    HW148435   1.754   3.025   1.412  0.5570  0.4540 -0.6678
15586SOL    HW248436   1.668   3.082   1.301 -1.3143 -2.0532 -0.5525
15587SOL     OW48437   0.626   7.250   3.698 -0.3554 -0.1052 -0.3978
15587SOL    HW148438   0.537   7.229   3.728 -0.4365  1.9284  0.8878
15587SOL    HW248439   0.677   7.255   3.779  0.6873 -0.0764 -1.0540
15588SOL     OW48440   6.991   2.346   1.445 -0.3443  0.3377 -0.2408
15588SOL    HW148441   6.918   2.360   1.386 -0.7826 -0.4181  0.1135
15588SOL    HW248442   7.023   2.434   1.465 -1.0975  0.6663 -0.4678
15589SOL     OW48443   4.574   5.647   3.189 -0.5637  0.4851  0.4634
15589SOL    HW148444   4.627   5.703   3.131  0.6626  0.6858  1.7594
15589SOL    HW248445   4.502   5.704   3.217  0.4016  1.2781  1.3743
15590SOL     OW48446   8.848   2.882   7.532 -0.2817 -0.0468 -0.2954
15590SOL    HW148447   8.909   2.924   7.472  1.2897  0.7271  1.7519
15590SOL    HW248448   8.864   2.788   7.522 -0.0341  0.0776 -1.0610
15591SOL     OW48449   2.339   6.356   0.340 -0.1760  0.1719  0.3141
15591SOL    HW148450   2.286   6.287   0.380 -1.8767  0.6193 -1.0788
15591SOL    HW248451   2.327   6.432   0.398  0.5789 -0.2992  1.0957
15592SOL     OW48452   7.904   5.720   8.183 -0.0432 -0.1320  0.0714
15592SOL    HW148453   7.889   5.763   8.099 -1.2720 -1.2074 -0.2754
15592SOL    HW248454   7.837   5.652   8.188  1.3269 -1.4708  0.9765
15593SOL     OW48455   5.252   7.054   1.604 -0.2089  0.3028 -0.1421
15593SOL    HW148456   5.318   7.013   1.548  0.3955 -0.6117  1.2240
15593SOL    HW248457   5.201   7.110   1.544  0.6499 -0.3767 -1.5261
15594SOL     OW48458   7.333   0.445   4.995 -0.0652  0.3919 -0.2121
15594SOL    HW148459   7.413   0.489   5.026 -0.5518  1.4511 -0.4495
15594SOL    HW248460   7.330   0.363   5.045  0.8685  0.6098  0.2110
15595SOL     OW48461   5.791   7.659   4.907 -0.7078  0.3376 -0.5033
15595SOL    HW148462   5.731   7.585   4.917 -0.2400  0.0719  0.4342
15595SOL    HW248463   5.733   7.735   4.893 -1.1195 -0.4891 -3.5271
15596SOL     OW48464   8.588   7.337   2.679  0.6473  0.1347  0.3637
15596SOL    HW148465   8.641   7.258   2.664  0.3624 -0.2452  1.3469
15596SOL    HW248466   8.652   7.408   2.681  1.3000 -0.4830  2.9390
15597SOL     OW48467   7.355   6.195   7.179  0.3356  0.5563  0.6312
15597SOL    HW148468   7.418   6.139   7.133  0.1827  1.1829 -0.3678
15597SOL    HW248469   7.295   6.224   7.110 -0.5359  0.6591  1.4223
15598SOL     OW48470   8.213   3.578   6.521  0.3243 -0.4169  0.5281
15598SOL    HW148471   8.144   3.583   6.455  0.3524 -2.4211  0.3316
15598SOL    HW248472   8.239   3.669   6.535 -0.5253  0.1271 -1.3248
15599SOL     OW48473   3.455   2.003   5.563  0.5242  0.6320  0.1176
15599SOL    HW148474   3.473   1.939   5.632 -4.1723  0.0871  0.9670
15599SOL    HW248475   3.481   2.087   5.601 -0.2738  0.1173  1.8243
15600SOL     OW48476   0.096   0.717   3.875  0.1832  1.2522  0.1935
15600SOL    HW148477   0.009   0.730   3.915 -0.4997  1.8419 -1.4301
15600SOL    HW248478   0.154   0.771   3.929 -0.5340  1.2342  1.0134
15601SOL     OW48479   6.592   4.643   6.314  0.6570  0.3014  0.2616
15601SOL    HW148480   6.532   4.677   6.381  1.5777  0.6233  0.9352
15601SOL    HW248481   6.592   4.548   6.328 -0.3574  0.2106 -0.3068
15602SOL     OW48482   6.504   3.851   1.569 -0.4422 -0.0486 -0.2926
15602SOL    HW148483   6.524   3.836   1.476 -0.6563  0.3889 -0.4126
15602SOL    HW248484   6.446   3.928   1.568 -0.3034  0.0607  0.2163
15603SOL     OW48485   6.871   3.834   1.051 -0.7309  1.0142 -0.1322
15603SOL    HW148486   6.798   3.787   1.010  0.3123 -0.1346 -0.6862
15603SOL    HW248487   6.941   3.832   0.986  0.6899 -0.2107  1.4005
15604SOL     OW48488   3.190   7.295   0.458 -0.5051  0.7001  0.4249
15604SOL    HW148489   3.165   7.256   0.542 -0.2736  1.4485  0.8465
15604SOL    HW248490   3.246   7.369   0.482  0.8565 -0.0375 -0.4590
15605SOL     OW48491   4.601   5.815   0.610  0.0855 -0.1354  0.2925
15605SOL    HW148492   4.654   5.881   0.566  1.7812 -2.9569 -2.0610
15605SOL    HW248493   4.661   5.773   0.672 -0.7588 -0.0703  1.1736
15606SOL     OW48494   7.729   5.181   4.164 -0.0932 -0.3947 -0.6466
15606SOL    HW148495   7.742   5.181   4.069 -0.1725  0.7094 -0.6537
15606SOL    HW248496   7.658   5.243   4.179  1.4307  1.1315  0.3459
15607SOL     OW48497   6.929   1.394   6.443 -0.2619  0.0312  0.1891
15607SOL    HW148498   6.960   1.464   6.500  2.3166  0.9049 -2.1959
15607SOL    HW248499   6.906   1.438   6.361  0.5586 -1.7695 -1.0431
15608SOL     OW48500   6.100   1.276   1.107  0.6520 -0.0397  0.2943
15608SOL    HW148501   6.191   1.261   1.133  0.1378 -1.2581  1.4647
15608SOL    HW248502   6.067   1.338   1.172  0.6077  0.3201 -0.0684
15609SOL     OW48503   5.188   4.369   4.820 -0.3847  0.4030 -0.6028
15609SOL    HW148504   5.232   4.421   4.887 -0.5110  0.9163 -0.9086
15609SOL    HW248505   5.096   4.397   4.825 -0.8305 -1.2052  0.5471
15610SOL     OW48506   6.613   1.952   1.537  0.3078 -0.4227 -0.1879
15610SOL    HW148507   6.550   1.887   1.566 -1.6993  2.1778  1.5413
15610SOL    HW248508   6.589   1.971   1.446 -0.0522 -0.9553 -0.2020
15611SOL     OW48509   1.757   2.334   2.074 -0.4900  0.3210  0.1447
15611SOL    HW148510   1.786   2.418   2.038  0.2484 -0.3783 -0.9332
15611SOL    HW248511   1.773   2.341   2.168 -1.4441  1.7828  0.2162
15612SOL     OW48512   2.995   8.390   6.342  0.0246 -0.0073 -0.2470
15612SOL    HW148513   2.937   8.363   6.413 -0.8766 -1.7590 -1.6265
15612SOL    HW248514   2.991   8.486   6.343 -1.6798 -0.0812  0.6589
15613SOL     OW48515   1.706   8.227   4.532 -0.1300 -0.1375 -0.3656
15613SOL    HW148516   1.750   8.292   4.476  1.5252 -0.0268  1.0241
15613SOL    HW248517   1.757   8.147   4.519 -0.1878 -0.3022  0.4117
15614SOL     OW48518   0.413   1.060   0.567  0.1522  0.3102 -0.3049
15614SOL    HW148519   0.432   1.154   0.571 -0.9258  0.4989  0.4402
15614SOL    HW248520   0.399   1.043   0.474 -0.5409  1.0698 -0.3466
15615SOL     OW48521   7.049   6.693   6.767  0.5265 -0.4361 -0.7820
15615SOL    HW148522   7.107   6.767   6.749  1.3197 -0.6991  0.5488
15615SOL    HW248523   7.048   6.687   6.863 -2.5366  0.1999 -0.7361
15616SOL     OW48524   6.830   8.130   4.798 -0.2744 -0.0188  0.7716
15616SOL    HW148525   6.837   8.051   4.851 -0.5079  0.2255  1.1679
15616SOL    HW248526   6.750   8.173   4.827 -0.6720 -0.1363 -0.1298
15617SOL     OW48527   2.291   7.349   3.721  0.0847 -0.3445 -0.2684
15617SOL    HW148528   2.257   7.415   3.661  0.4522 -1.6561 -1.9843
15617SOL    HW248529   2.246   7.365   3.803 -1.7012  0.4488 -1.3687
15618SOL     OW48530   4.958   4.987   4.020  1.0184  0.3383 -0.3303
15618SOL    HW148531   4.942   4.975   4.114  0.8607 -1.5519 -0.5926
15618SOL    HW248532   5.052   5.006   4.014  0.8361  1.5342  0.2828
15619SOL     OW48533   0.322   4.601   2.656 -0.0119  0.2934 -0.0399
15619SOL    HW148534   0.302   4.677   2.711  0.5981  0.9680 -0.7365
15619SOL    HW248535   0.259   4.606   2.585  1.5401  1.5075 -1.3669
15620SOL     OW48536   7.808   3.274   6.333 -0.0794 -0.0673 -0.4606
15620SOL    HW148537   7.832   3.365   6.353 -1.5737  0.9905 -3.1978
15620SOL    HW248538   7.856   3.222   6.397  0.5477  2.6679  1.3998
15621SOL     OW48539   8.676   5.951   3.453  0.2685  0.0674  0.0136
15621SOL    HW148540   8.697   6.028   3.506  1.1086 -0.3935  0.3647
15621SOL    HW248541   8.647   5.885   3.516 -0.5027  0.1133 -0.2922
15622SOL     OW48542   2.513   9.229   7.103 -0.0313 -0.5947  0.1513
15622SOL    HW148543   2.518   9.134   7.102  0.4134 -0.5708  0.0651
15622SOL    HW248544   2.432   9.249   7.150 -0.2981 -1.0196 -0.1304
15623SOL     OW48545   2.018   5.731   8.754  0.0674  0.6824 -0.3291
15623SOL    HW148546   2.073   5.666   8.709  0.0715  0.0941  0.5134
15623SOL    HW248547   2.023   5.809   8.698 -0.1892 -0.1306 -1.5203
15624SOL     OW48548   0.588   1.781   3.135  0.1121 -0.0559  0.2347
15624SOL    HW148549   0.508   1.833   3.146  0.1383  0.0382 -0.0119
15624SOL    HW248550   0.590   1.760   3.042  0.2867 -0.2022  0.2712
15625SOL     OW48551   2.050   0.906   0.400 -0.3990 -0.2493 -1.0265
15625SOL    HW148552   2.072   0.870   0.486 -0.8325  0.4656 -0.6089
15625SOL    HW248553   1.966   0.950   0.413 -1.2368 -1.4573 -2.1924
15626SOL     OW48554   5.530   9.114   0.204 -0.0970  0.0274 -0.1213
15626SOL    HW148555   5.453   9.161   0.234  0.2443  0.7118 -0.3014
15626SOL    HW248556   5.604   9.167   0.234  0.2594  0.6271 -1.9590
15627SOL     OW48557   2.318   3.524   0.656 -0.0475 -0.5632 -0.0401
15627SOL    HW148558   2.411   3.521   0.677  0.0936  1.9250 -0.1594
15627SOL    HW248559   2.315   3.512   0.561  0.1949  0.0126 -0.1190
15628SOL     OW48560   3.344   1.993   1.526  0.2252 -0.0970  0.3737
15628SOL    HW148561   3.390   1.911   1.546  1.1859  0.1384 -0.7861
15628SOL    HW248562   3.259   1.984   1.569  1.0740 -0.8657  1.9085
15629SOL     OW48563   3.224   2.217   2.684 -0.5697 -0.7405 -0.2014
15629SOL    HW148564   3.199   2.302   2.719  1.4418 -0.2283  0.0451
15629SOL    HW248565   3.145   2.185   2.640 -1.5619  0.9149  0.3265
15630SOL     OW48566   6.255   5.746   7.752 -0.0397  0.1363 -0.4217
15630SOL    HW148567   6.272   5.675   7.814  3.1880 -0.2269 -1.6136
15630SOL    HW248568   6.296   5.717   7.670  0.6983  3.0085 -1.1283
15631SOL     OW48569   4.480   5.865   5.874  0.2207  0.4711 -0.2113
15631SOL    HW148570   4.510   5.898   5.789 -1.0492 -0.1081 -0.9109
15631SOL    HW248571   4.463   5.943   5.926  1.7922  0.8189 -0.1986
15632SOL     OW48572   2.249   3.561   8.823 -0.3082  0.2875 -0.1008
15632SOL    HW148573   2.232   3.468   8.839  2.3007 -0.5816 -2.0208
15632SOL    HW248574   2.191   3.584   8.751 -0.9944  0.1659  0.4100
15633SOL     OW48575   1.392   8.035   5.373 -0.2113  0.4674  0.2378
15633SOL    HW148576   1.357   7.950   5.399  1.5316  0.0677  1.3539
15633SOL    HW248577   1.487   8.025   5.382  0.1196  1.9223 -1.4813
15634SOL     OW48578   6.721   6.157   8.545 -0.7484  0.4280  0.4641
15634SOL    HW148579   6.626   6.146   8.548 -0.8219  0.9910  0.2362
15634SOL    HW248580   6.734   6.248   8.517 -0.1232 -0.4727 -2.3126
15635SOL     OW48581   3.652   3.265   5.558 -1.0936  0.2532  0.2217
15635SOL    HW148582   3.567   3.229   5.531 -0.6164 -0.0081 -0.9352
15635SOL    HW248583   3.660   3.347   5.510 -0.6339  0.2253  0.2479
15636SOL     OW48584   0.356   3.541   5.071 -0.4240  0.1820 -0.1381
15636SOL    HW148585   0.284   3.511   5.016 -0.5040 -1.4968  0.8454
15636SOL    HW248586   0.394   3.461   5.106  1.9491  1.0548 -0.6576
15637SOL     OW48587   0.948   5.948   1.965  0.4779  0.2610  0.0350
15637SOL    HW148588   0.963   6.031   2.011  0.7012  0.9824 -1.2922
15637SOL    HW248589   0.865   5.960   1.919 -1.3404 -1.5992  2.6815
15638SOL     OW48590   3.140   8.917   8.711  0.2720  0.2094 -0.1601
15638SOL    HW148591   3.228   8.918   8.674 -0.0992  0.5375 -1.0401
15638SOL    HW248592   3.152   8.886   8.801  1.0273 -1.7596 -0.9100
15639SOL     OW48593   6.828   1.455   7.304 -0.4009  0.2456  0.0809
15639SOL    HW148594   6.901   1.493   7.255  0.0635 -1.4344 -0.5518
15639SOL    HW248595   6.763   1.433   7.237 -0.4986 -0.4413  0.3966
15640SOL     OW48596   9.208   4.229   5.705 -0.1701  0.0074  0.3452
15640SOL    HW148597   9.297   4.266   5.700 -0.3274  0.2692 -0.5980
15640SOL    HW248598   9.218   4.138   5.677  0.0059 -0.3277  1.4623
15641SOL     OW48599   0.646   9.185   2.503 -0.0162  0.3409  0.0485
15641SOL    HW148600   0.729   9.142   2.523  1.0477  2.4026  0.1476
15641SOL    HW248601   0.652   9.271   2.546 -0.7430  1.9124 -2.8810
15642SOL     OW48602   6.510   2.250   7.535  0.4532 -0.7619 -0.0321
15642SOL    HW148603   6.435   2.231   7.591  0.2863 -0.9735 -0.3268
15642SOL    HW248604   6.492   2.202   7.454  0.9236 -0.8415 -0.0881
15643SOL     OW48605   6.616   1.535   0.927 -0.6208  0.8104 -0.0557
15643SOL    HW148606   6.621   1.516   1.021  0.9661 -1.3891 -0.5399
15643SOL    HW248607   6.543   1.483   0.896 -0.9230  1.2709 -0.1279
15644SOL     OW48608   8.843   2.460   4.328  0.0065  0.1423 -0.5435
15644SOL    HW148609   8.858   2.552   4.349  0.0143  0.4475 -1.8767
15644SOL    HW248610   8.885   2.447   4.243 -0.1173 -1.0617 -0.4379
15645SOL     OW48611   8.357   4.283   4.050 -0.2484 -0.3434 -0.1516
15645SOL    HW148612   8.339   4.194   4.080 -0.4285 -0.1409  0.3478
15645SOL    HW248613   8.311   4.339   4.112 -1.2212  0.0654 -1.2071
15646SOL     OW48614   2.492   6.358   9.025 -0.4623 -0.2176 -0.3746
15646SOL    HW148615   2.509   6.278   8.976 -0.9895 -0.2580 -0.4896
15646SOL    HW248616   2.472   6.424   8.958 -0.5452 -0.1162 -0.2511
15647SOL     OW48617   6.899   1.244   2.361  0.0876 -0.2553 -0.0056
15647SOL    HW148618   6.925   1.302   2.289  1.0548  2.0235  2.0951
15647SOL    HW248619   6.817   1.204   2.331  0.5449  0.4912 -2.4195
15648SOL     OW48620   4.459   4.651   8.125  0.0635 -0.4930  0.1518
15648SOL    HW148621   4.378   4.621   8.167 -0.3003  0.1246 -0.1126
15648SOL    HW248622   4.526   4.593   8.161 -0.6046 -1.4942 -0.1929
15649SOL     OW48623   1.105   4.959   1.200 -0.3742 -0.4337  0.7430
15649SOL    HW148624   1.146   4.899   1.262 -0.0698 -0.1721  0.7993
15649SOL    HW248625   1.178   5.010   1.165 -0.4068 -1.2995 -0.6127
15650SOL     OW48626   5.532   0.971   1.228  0.0940  0.3073 -0.3557
15650SOL    HW148627   5.583   1.046   1.199  0.7314 -0.5919 -1.6449
15650SOL    HW248628   5.442   1.003   1.233  0.3340  1.1116 -1.0903
15651SOL     OW48629   1.422   7.420   5.045  0.2838 -0.2720  0.6312
15651SOL    HW148630   1.328   7.406   5.033  0.4497 -0.2122 -0.8460
15651SOL    HW248631   1.439   7.506   5.004  1.1427 -0.7262  0.0076
15652SOL     OW48632   7.755   1.904   1.615  0.2160  0.0071  0.0704
15652SOL    HW148633   7.753   1.950   1.531  0.6128 -0.5265 -0.2300
15652SOL    HW248634   7.720   1.817   1.596  1.7332 -0.6324  0.1345
15653SOL     OW48635   3.510   1.632   6.721 -0.0244 -0.8061 -0.1259
15653SOL    HW148636   3.506   1.561   6.785  0.3331 -0.8260 -0.1209
15653SOL    HW248637   3.525   1.587   6.638  2.3117 -0.6296  0.1601
15654SOL     OW48638   6.698   2.220   0.331 -0.2693 -0.2230  0.7602
15654SOL    HW148639   6.761   2.181   0.391  2.2381  2.7689  0.1682
15654SOL    HW248640   6.675   2.304   0.372 -0.3491  0.7841 -1.3042
15655SOL     OW48641   2.927   8.602   6.658  0.2035  0.1238 -0.1382
15655SOL    HW148642   2.996   8.637   6.714  0.6662  0.3256 -0.8271
15655SOL    HW248643   2.954   8.625   6.569  0.4232 -1.8635 -0.5957
15656SOL     OW48644   1.807   3.953   8.380  0.1443 -0.0374 -0.2222
15656SOL    HW148645   1.739   3.925   8.441  0.3211 -0.0170 -0.0145
15656SOL    HW248646   1.886   3.962   8.434  0.3181 -0.0853 -0.4645
15657SOL     OW48647   8.961   6.589   6.896 -0.4858 -0.2055  0.7004
15657SOL    HW148648   9.047   6.629   6.884 -0.1094 -1.0855  0.4066
15657SOL    HW248649   8.916   6.605   6.813 -1.4001  2.1256  1.6111
15658SOL     OW48650   7.606   6.226   2.448  0.2838  0.2786  0.0772
15658SOL    HW148651   7.701   6.239   2.453  0.2794  0.6949 -0.7139
15658SOL    HW248652   7.569   6.306   2.485  0.2393 -0.3126  1.3097
15659SOL     OW48653   6.974   7.006   1.848  0.1683 -0.3850  0.3517
15659SOL    HW148654   6.937   6.921   1.874 -2.0289  0.6901  0.8468
15659SOL    HW248655   6.996   7.049   1.930 -1.6282  0.7743  0.2389
15660SOL     OW48656   2.962   0.381   8.534  0.7440 -0.0662 -0.5025
15660SOL    HW148657   2.930   0.417   8.451  2.6034  3.6849  0.2932
15660SOL    HW248658   2.911   0.426   8.601  0.6532 -1.5960  0.4898
15661SOL     OW48659   0.289   0.327   5.279 -0.2731  0.7955 -0.6681
15661SOL    HW148660   0.202   0.289   5.287  0.5369 -0.7102  1.5453
15661SOL    HW248661   0.298   0.382   5.357  0.5560  1.3550 -1.1514
15662SOL     OW48662   0.216   1.847   4.773 -0.2038  0.2552 -0.1022
15662SOL    HW148663   0.156   1.884   4.708 -1.0124  1.0097  1.0398
15662SOL    HW248664   0.220   1.754   4.753 -0.6655  0.4355 -1.0511
15663SOL     OW48665   3.419   8.949   2.513  0.0893  0.2690  0.3605
15663SOL    HW148666   3.500   8.990   2.543  0.3118  0.6679 -0.8024
15663SOL    HW248667   3.447   8.886   2.446 -0.3952 -0.7711  1.1084
15664SOL     OW48668   1.569   5.468   4.125 -0.1861 -0.6711  0.4121
15664SOL    HW148669   1.530   5.555   4.134  0.4599 -0.4016  0.6755
15664SOL    HW248670   1.559   5.447   4.033 -0.4129 -0.3432  0.3608
15665SOL     OW48671   0.988   0.237   3.498  0.0603 -0.3525 -0.1886
15665SOL    HW148672   1.049   0.169   3.470  1.7759  1.6159 -1.3979
15665SOL    HW248673   1.005   0.310   3.438 -1.9027  1.0396  0.9119
15666SOL     OW48674   6.320   9.119   4.725  0.5675 -0.1267  0.0308
15666SOL    HW148675   6.368   9.088   4.802  0.2248 -0.4770  0.1015
15666SOL    HW248676   6.388   9.158   4.669  1.0296 -1.1938 -0.1638
15667SOL     OW48677   5.002   8.721   6.380 -0.4107 -0.9183 -0.3461
15667SOL    HW148678   5.034   8.773   6.307  1.4951 -1.5591  0.0062
15667SOL    HW248679   4.942   8.657   6.340 -0.1860 -0.5987 -1.2029
15668SOL     OW48680   5.213   3.226   0.410  0.4961  0.5058  0.1858
15668SOL    HW148681   5.123   3.200   0.430  0.9853 -0.0817  1.6575
15668SOL    HW248682   5.267   3.172   0.467  1.7815  0.9086 -0.6422
15669SOL     OW48683   5.022   7.432   1.637 -0.2200 -0.5894 -0.4686
15669SOL    HW148684   5.030   7.429   1.732 -0.3763 -1.6289 -0.4829
15669SOL    HW248685   4.929   7.447   1.620 -0.1356 -0.0440 -0.4543
15670SOL     OW48686   6.855   5.592   1.831  0.1901 -0.1746 -0.0785
15670SOL    HW148687   6.812   5.602   1.746 -0.2735 -0.7680  0.0786
15670SOL    HW248688   6.861   5.497   1.844 -1.4861 -0.1134  1.3914
15671SOL     OW48689   8.527   9.076   0.733 -0.2196  0.3706  0.4256
15671SOL    HW148690   8.536   9.076   0.829  1.0429 -0.5787  0.3175
15671SOL    HW248691   8.617   9.074   0.701 -0.6263  1.2891 -0.7945
15672SOL     OW48692   4.382   7.143   2.894  0.1196 -0.2729 -0.3211
15672SOL    HW148693   4.444   7.098   2.951  0.0971 -1.1076 -0.9394
15672SOL    HW248694   4.425   7.147   2.809 -0.1471  0.2985 -0.4344
15673SOL     OW48695   0.108   8.517   0.767 -0.1318 -0.6836  0.2466
15673SOL    HW148696   0.187   8.570   0.780 -0.2202 -0.9812  2.0773
15673SOL    HW248697   0.071   8.508   0.854 -2.6106  0.0611 -0.6894
15674SOL     OW48698   4.768   7.191   3.604  0.0181 -0.1606 -0.1427
15674SOL    HW148699   4.846   7.138   3.620 -0.9039 -1.1659  1.0631
15674SOL    HW248700   4.695   7.136   3.633 -1.1569  0.7241 -1.3539
15675SOL     OW48701   2.751   7.400   0.110 -0.0218 -0.3886  0.4694
15675SOL    HW148702   2.822   7.338   0.123 -0.2012 -0.4184  1.3775
15675SOL    HW248703   2.769   7.441   0.025  0.7376 -0.8359  0.4144
15676SOL     OW48704   0.073   0.495   4.206  0.5345  0.2084 -0.0437
15676SOL    HW148705   0.138   0.426   4.220  0.9389  0.3331 -1.2623
15676SOL    HW248706  -0.007   0.448   4.182  0.6148  0.1325 -0.1650
15677SOL     OW48707   6.433   6.558   9.288  0.2262  0.2075  0.4308
15677SOL    HW148708   6.495   6.615   9.244  0.0792  0.6416  0.7846
15677SOL    HW248709   6.375   6.527   9.219  0.1798  0.6522  0.2691
15678SOL     OW48710   8.700   7.073   0.021  0.3592  0.6864 -0.3409
15678SOL    HW148711   8.738   7.094  -0.064 -0.0891  1.1943 -0.4194
15678SOL    HW248712   8.759   7.115   0.084  3.5251 -3.7906 -0.0976
15679SOL     OW48713   5.327   0.209   1.723  0.3110 -0.2145  0.0704
15679SOL    HW148714   5.281   0.283   1.764 -0.9961 -1.7569  1.4559
15679SOL    HW248715   5.339   0.146   1.795  0.5388 -1.7609 -1.2996
15680SOL     OW48716   7.566   4.547   1.359 -0.1347  0.2912 -0.0821
15680SOL    HW148717   7.601   4.538   1.447 -3.5211 -1.9792  1.1428
15680SOL    HW248718   7.617   4.486   1.306  0.9506  0.5861  0.6134
15681SOL     OW48719   1.073   6.082   7.322  0.2111  0.1433  0.3361
15681SOL    HW148720   1.166   6.108   7.325  0.6005 -1.0604 -0.8264
15681SOL    HW248721   1.052   6.058   7.412  1.1874 -0.1026  0.5050
15682SOL     OW48722   4.132   6.754   5.193  0.3150 -0.2140 -0.4998
15682SOL    HW148723   4.149   6.678   5.248 -0.0973  0.0765  0.0387
15682SOL    HW248724   4.038   6.753   5.178 -0.1320  1.6644  1.7528
15683SOL     OW48725   5.413   3.071   1.515  0.4101 -0.1711  0.2454
15683SOL    HW148726   5.432   3.164   1.531 -0.7906  0.0380  0.4612
15683SOL    HW248727   5.475   3.046   1.446  0.2538  0.9747 -0.3176
15684SOL     OW48728   3.703   7.042   0.360  0.4868  0.0359 -0.0139
15684SOL    HW148729   3.720   6.980   0.290 -0.0901 -0.3357  0.1714
15684SOL    HW248730   3.667   7.119   0.316  0.4900 -0.0472 -0.1616
15685SOL     OW48731   0.043   8.069   1.242  0.2450  0.4563  0.3463
15685SOL    HW148732   0.070   7.992   1.191  1.1820  0.2178  1.1874
15685SOL    HW248733   0.081   8.143   1.195  2.5618  0.1090  1.6200
15686SOL     OW48734   2.907   3.757   7.296  0.1022 -0.3148  0.1150
15686SOL    HW148735   2.869   3.833   7.340  0.2747  1.0081 -1.9345
15686SOL    HW248736   2.994   3.748   7.335  0.0657  0.5213  0.4163
15687SOL     OW48737   8.956   0.737   8.088  0.5163 -0.1333  0.3889
15687SOL    HW148738   8.984   0.711   8.000 -1.4158  0.4750 -0.4452
15687SOL    HW248739   8.904   0.816   8.074 -0.2549 -0.3323  2.0186
15688SOL     OW48740   4.395   2.696   0.846 -0.0734 -0.5355 -0.2363
15688SOL    HW148741   4.421   2.612   0.808 -0.0856 -1.4221  1.6773
15688SOL    HW248742   4.307   2.712   0.810  0.3365 -0.8270 -1.4017
15689SOL     OW48743   0.972   7.556   7.645  0.2653  0.0728  0.2640
15689SOL    HW148744   0.887   7.547   7.602  0.3303  1.0073 -0.0765
15689SOL    HW248745   0.978   7.481   7.704  0.4033 -1.5067 -1.7486
15690SOL     OW48746   7.102   1.816   5.083 -0.4391 -0.4032  0.5632
15690SOL    HW148747   7.037   1.755   5.049  0.4003 -0.9067 -0.1813
15690SOL    HW248748   7.095   1.892   5.026 -1.5304  0.2228  1.5310
15691SOL     OW48749   7.401   0.160   9.284  0.0775 -0.2116 -0.1298
15691SOL    HW148750   7.412   0.147   9.190 -0.1442  0.7152 -0.2844
15691SOL    HW248751   7.490   0.149   9.320  0.1364 -0.7213 -0.4173
15692SOL     OW48752   7.892   0.976   4.297 -0.3062 -0.4618 -0.4775
15692SOL    HW148753   7.942   1.010   4.222 -0.8163 -0.3086 -0.7514
15692SOL    HW248754   7.801   0.977   4.267 -0.8725  2.3995  1.1769
15693SOL     OW48755   0.614   2.999   5.520 -0.4690  0.2905 -0.1790
15693SOL    HW148756   0.523   2.989   5.492 -0.5555  0.7852 -0.0802
15693SOL    HW248757   0.614   2.970   5.611 -0.3386 -0.5879 -0.4471
15694SOL     OW48758   6.889   9.108   0.197 -0.8652  0.7476 -0.2132
15694SOL    HW148759   6.880   9.088   0.104  2.3784  0.1252 -0.4424
15694SOL    HW248760   6.939   9.190   0.198  3.6025 -1.8016  0.9334
15695SOL     OW48761   1.945   5.296   2.784 -0.3051  0.0317 -0.0818
15695SOL    HW148762   1.989   5.381   2.775 -1.1651  0.8353  2.5511
15695SOL    HW248763   1.855   5.313   2.756 -0.1284 -0.3598 -0.8746
15696SOL     OW48764   0.340   3.155   3.467  0.2504 -0.0823  0.1242
15696SOL    HW148765   0.325   3.076   3.416 -0.4542 -0.6495  1.1777
15696SOL    HW248766   0.399   3.128   3.537  0.6611  0.5191  0.0132
15697SOL     OW48767   8.739   5.716   6.060  0.9733  0.2266  0.0035
15697SOL    HW148768   8.808   5.746   6.002  2.8528 -1.2988  1.3942
15697SOL    HW248769   8.713   5.631   6.025  1.5183 -0.3079  0.8719
15698SOL     OW48770   7.124   6.549   5.732 -0.0880  0.0879 -0.0961
15698SOL    HW148771   7.187   6.499   5.680 -0.9148 -1.1517  0.0574
15698SOL    HW248772   7.039   6.508   5.713 -0.8384  1.6430 -0.1966
15699SOL     OW48773   2.388   8.834   3.123  0.1401  0.2096 -0.3742
15699SOL    HW148774   2.440   8.781   3.062 -2.1298 -2.2922 -0.1933
15699SOL    HW248775   2.411   8.801   3.209 -1.6568 -0.8271 -0.2865
15700SOL     OW48776   2.390   2.035   0.496 -0.3908 -0.4947  0.1678
15700SOL    HW148777   2.336   1.981   0.439  0.4214  0.8065 -1.8884
15700SOL    HW248778   2.471   2.048   0.447  1.3255 -1.3946  2.6826
15701SOL     OW48779   1.942   5.875   0.607  0.0228 -0.0315 -0.1775
15701SOL    HW148780   1.996   5.869   0.685  0.3331  0.1667 -0.3732
15701SOL    HW248781   2.001   5.911   0.540 -0.1188 -0.5961 -0.6121
15702SOL     OW48782   4.696   4.804   1.024  0.5391  0.1157  0.7297
15702SOL    HW148783   4.613   4.777   1.063  0.7502  0.0406  1.1331
15702SOL    HW248784   4.738   4.722   0.998 -0.3369  0.2367 -1.2157
15703SOL     OW48785   3.747   9.050   4.467 -0.0216 -0.7846  0.4542
15703SOL    HW148786   3.694   9.064   4.389  0.2894  0.0824  0.4006
15703SOL    HW248787   3.822   8.999   4.436  1.8130  2.3545 -0.4856
15704SOL     OW48788   1.803   2.710   3.449  0.5720 -0.0949  0.1741
15704SOL    HW148789   1.781   2.723   3.541  1.3699  0.3602  0.3076
15704SOL    HW248790   1.891   2.671   3.451  1.0488  0.9479 -0.4236
15705SOL     OW48791   4.964   6.934   1.728 -0.2215  0.1185 -0.3375
15705SOL    HW148792   5.023   7.002   1.760 -1.0607  0.3449  0.7322
15705SOL    HW248793   5.021   6.859   1.711  0.5307  0.6866 -0.3567
15706SOL     OW48794   0.595   0.467   7.519  0.2491 -0.0927  0.6241
15706SOL    HW148795   0.658   0.473   7.591 -0.6437  2.1991  1.2590
15706SOL    HW248796   0.644   0.496   7.442  0.4911 -0.1426  0.7591
15707SOL     OW48797   3.034   4.987   8.645  0.0786 -0.0373  0.0512
15707SOL    HW148798   3.016   5.053   8.578  2.4721  1.4659  0.8018
15707SOL    HW248799   2.990   5.019   8.723  1.2359  0.7265  0.4145
15708SOL     OW48800   6.350   1.015   5.547  0.0366  0.1102 -0.0816
15708SOL    HW148801   6.260   1.049   5.540  0.1018  0.5474  1.1036
15708SOL    HW248802   6.370   0.983   5.459 -0.6415  1.6086 -0.7963
15709SOL     OW48803   2.415   7.582   7.952 -0.3584 -0.1908  0.0693
15709SOL    HW148804   2.345   7.629   7.999  1.0810  1.6738  0.3775
15709SOL    HW248805   2.375   7.499   7.928 -1.8947 -0.2059  2.5152
15710SOL     OW48806   5.875   0.244   4.242 -0.0044 -0.3764 -0.2397
15710SOL    HW148807   5.844   0.189   4.314 -1.1832 -1.0935 -1.2673
15710SOL    HW248808   5.864   0.333   4.274  1.5262 -0.7115  1.2765
15711SOL     OW48809   5.768   6.835   5.366 -0.1729 -0.5589  0.3126
15711SOL    HW148810   5.818   6.803   5.291 -0.4330  3.5277 -1.7177
15711SOL    HW248811   5.834   6.860   5.430  0.1501 -1.1352  0.2110
15712SOL     OW48812   8.614   2.009   2.684  0.5050 -0.0724  0.2982
15712SOL    HW148813   8.615   2.015   2.779  0.2838  1.7089  0.2214
15712SOL    HW248814   8.544   2.069   2.657  2.9973  2.3738 -1.0945
15713SOL     OW48815   2.491   2.420   4.152 -0.3132  0.4664 -0.1913
15713SOL    HW148816   2.414   2.434   4.097  0.7055  0.2445 -1.7066
15713SOL    HW248817   2.560   2.396   4.091  0.5090 -1.1940  1.3388
15714SOL     OW48818   4.967   6.480   2.899  0.0536  0.0678 -0.3846
15714SOL    HW148819   4.919   6.561   2.913  1.8757  1.2470 -0.7672
15714SOL    HW248820   4.932   6.419   2.964  0.9876  2.1873  2.1933
15715SOL     OW48821   8.765   0.522   5.062  1.0950 -0.4585  0.0439
15715SOL    HW148822   8.773   0.490   4.972  0.5401  0.1868 -0.2390
15715SOL    HW248823   8.756   0.617   5.053 -1.7334 -0.6449  0.6112
15716SOL     OW48824   8.286   4.363   7.710  0.2544 -0.2313 -0.1120
15716SOL    HW148825   8.237   4.364   7.792  0.8809  0.9157  0.2665
15716SOL    HW248826   8.220   4.381   7.642  0.0286  0.5819  0.3194
15717SOL     OW48827   1.196   5.575   4.315  0.3263  0.0099  0.0782
15717SOL    HW148828   1.271   5.596   4.260  0.0593 -2.3840 -1.2899
15717SOL    HW248829   1.121   5.579   4.255 -0.3159  0.1076  0.8860
15718SOL     OW48830   8.581   8.147   8.343 -0.1494 -0.1892  0.2906
15718SOL    HW148831   8.533   8.212   8.395  0.3875 -0.8002  1.5641
15718SOL    HW248832   8.588   8.186   8.256 -1.5707  0.5991  0.5148
15719SOL     OW48833   7.687   7.287   5.685 -0.6093  0.2242  0.8065
15719SOL    HW148834   7.671   7.324   5.598  0.9453  0.8280  0.7571
15719SOL    HW248835   7.761   7.228   5.672  0.0328  0.7872  1.8380
15720SOL     OW48836   6.161   1.012   5.964 -0.1859  0.0772  0.1144
15720SOL    HW148837   6.225   0.977   5.903  1.0418 -0.0897  1.4631
15720SOL    HW248838   6.092   0.945   5.967 -0.4563  0.2880 -1.3849
15721SOL     OW48839   4.602   0.142   6.443  0.3134 -0.0369 -0.4236
15721SOL    HW148840   4.594   0.066   6.500 -1.4403  0.6079  0.2271
15721SOL    HW248841   4.667   0.116   6.377 -0.0108 -1.9478 -0.0159
15722SOL     OW48842   8.289   8.794   5.314  0.1973  0.2647  0.1672
15722SOL    HW148843   8.280   8.735   5.239  1.5657 -0.7011  0.7444
15722SOL    HW248844   8.272   8.738   5.390  1.4761  0.6306  0.7204
15723SOL     OW48845   0.462   6.063   5.560 -0.4067  0.3045  0.3404
15723SOL    HW148846   0.410   6.139   5.585  0.2381  0.6217  0.7195
15723SOL    HW248847   0.489   6.081   5.470 -2.3434 -0.6286 -0.4582
15724SOL     OW48848   0.891   5.383   4.838 -1.1325 -0.0479  0.0794
15724SOL    HW148849   0.835   5.417   4.767 -2.3807 -4.2193 -1.1035
15724SOL    HW248850   0.831   5.371   4.911 -0.3070  1.9988  1.1341
15725SOL     OW48851   8.250   6.138   4.263  0.3927  0.0159 -0.3529
15725SOL    HW148852   8.226   6.226   4.233 -1.2762 -0.3079 -0.0018
15725SOL    HW248853   8.223   6.136   4.355  0.9698 -0.6635 -0.1956
15726SOL     OW48854   6.268   7.433   4.929  0.1009  0.1416 -0.0201
15726SOL    HW148855   6.326   7.486   4.875 -0.1562 -0.6465 -1.0786
15726SOL    HW248856   6.190   7.487   4.941  0.5365  0.6888  0.3355
15727SOL     OW48857   6.319   1.261   4.695  0.1838 -0.3912 -0.3229
15727SOL    HW148858   6.311   1.321   4.621 -0.6766  0.7660  0.6867
15727SOL    HW248859   6.233   1.262   4.736  0.1578 -2.3299 -0.2880
15728SOL     OW48860   6.070   7.288   0.679 -0.4818 -0.1475  0.6791
15728SOL    HW148861   5.999   7.305   0.617 -1.1969 -1.2722  1.1797
15728SOL    HW248862   6.042   7.330   0.760 -1.1393 -1.6486  1.2270
15729SOL     OW48863   5.700   1.428   3.929  0.4104 -0.2115  0.5306
15729SOL    HW148864   5.742   1.343   3.921 -1.1944 -1.0911  1.1260
15729SOL    HW248865   5.769   1.487   3.959  2.1969 -0.6858 -2.4203
15730SOL     OW48866   4.854   6.997   4.051 -0.0308  0.4947 -0.1744
15730SOL    HW148867   4.807   6.958   4.125 -0.8816  2.0362  0.1370
15730SOL    HW248868   4.871   6.924   3.992 -1.0143 -0.4513  0.6766
15731SOL     OW48869   2.642   2.406   2.459  0.0986  0.1775  0.0209
15731SOL    HW148870   2.675   2.446   2.540  1.3016  0.6201 -0.6865
15731SOL    HW248871   2.666   2.467   2.390 -2.6459  0.7680 -0.4792
15732SOL     OW48872   4.342   3.851   4.151 -0.3964  0.2520  0.7618
15732SOL    HW148873   4.417   3.803   4.117 -0.0469 -0.4608  2.4648
15732SOL    HW248874   4.274   3.841   4.084 -0.2062 -2.3063  0.9060
15733SOL     OW48875   7.042   0.296   8.705 -0.4527  0.7503 -0.3602
15733SOL    HW148876   7.002   0.261   8.625 -0.5535 -0.9412  0.4017
15733SOL    HW248877   7.114   0.350   8.674 -0.2486 -0.1998 -1.5976
15734SOL     OW48878   4.029   7.182   0.517 -0.0469  0.2515  0.0936
15734SOL    HW148879   4.002   7.162   0.428  1.1689  0.7464 -0.3951
15734SOL    HW248880   4.119   7.150   0.524  0.6031  2.0448  0.4681
15735SOL     OW48881   8.927   2.618   7.733 -0.1813  0.6608 -0.0228
15735SOL    HW148882   8.875   2.659   7.802 -1.0525 -0.3784 -0.0570
15735SOL    HW248883   8.864   2.597   7.665  0.2279 -0.8883  0.0573
15736SOL     OW48884   1.924   8.045   0.211  0.4161  0.1347  0.2646
15736SOL    HW148885   2.012   8.056   0.247  0.0151  0.4117  1.1746
15736SOL    HW248886   1.939   8.023   0.119  1.4101  1.2312  0.1466
15737SOL     OW48887   8.340   0.224   1.783 -0.4287 -0.4422  0.6423
15737SOL    HW148888   8.435   0.229   1.772 -0.2073 -1.0333  2.2652
15737SOL    HW248889   8.310   0.180   1.703  0.6898 -0.5290  0.2580
15738SOL     OW48890   9.199   4.491   5.113  0.0329 -0.2367 -0.2309
15738SOL    HW148891   9.159   4.418   5.159 -0.7485  2.0992  2.9080
15738SOL    HW248892   9.293   4.475   5.119 -0.0751 -0.0513  2.0273
15739SOL     OW48893   3.078   6.712   4.052 -0.3389 -0.0143  0.2319
15739SOL    HW148894   2.998   6.765   4.059  1.0307  2.3008 -1.2680
15739SOL    HW248895   3.149   6.774   4.066  1.2666 -1.7061 -0.3168
15740SOL     OW48896   1.917   3.245   5.812 -0.5573  0.4016  0.3846
15740SOL    HW148897   1.943   3.312   5.748  0.3018  0.3250  0.6363
15740SOL    HW248898   1.849   3.287   5.865 -0.0003  1.0999  0.5646
15741SOL     OW48899   4.100   0.693   9.046  0.3815  0.1973 -0.0090
15741SOL    HW148900   4.113   0.619   9.106 -1.5600 -2.6107 -2.8803
15741SOL    HW248901   4.144   0.666   8.965  0.7255  2.7699 -0.6988
15742SOL     OW48902   5.501   2.455   4.113  0.2513  0.1461 -0.0717
15742SOL    HW148903   5.409   2.441   4.091  0.0192  1.3141  0.1189
15742SOL    HW248904   5.547   2.381   4.073 -0.5956  0.3102 -1.3972
15743SOL     OW48905   2.260   2.982   1.614 -0.0864 -0.3094 -0.3442
15743SOL    HW148906   2.317   2.906   1.627 -0.6739 -1.2364 -2.9611
15743SOL    HW248907   2.293   3.024   1.535 -2.1861 -0.0738 -1.1227
15744SOL     OW48908   3.041   4.117   4.828 -0.2604  0.0844 -0.1038
15744SOL    HW148909   3.047   4.137   4.921 -0.0335  0.3021 -0.1650
15744SOL    HW248910   3.130   4.127   4.795  0.0106 -1.8792  0.0193
15745SOL     OW48911   1.308   5.027   6.842  0.1138  0.3139 -0.3421
15745SOL    HW148912   1.269   5.012   6.756 -1.9922 -0.0213  0.6468
15745SOL    HW248913   1.374   5.095   6.827 -1.2681  1.3297 -1.9487
15746SOL     OW48914   0.395   4.999   0.341 -0.3400  0.1480  0.0703
15746SOL    HW148915   0.447   5.079   0.343  0.6238 -0.3399 -2.4153
15746SOL    HW248916   0.441   4.939   0.401  1.2504  0.1765 -1.0695
15747SOL     OW48917   7.388   6.866   6.550 -0.1651 -0.1848 -0.7071
15747SOL    HW148918   7.328   6.893   6.620  0.8018 -0.6654  0.3209
15747SOL    HW248919   7.372   6.772   6.540  0.9149 -0.4593  0.0681
15748SOL     OW48920   3.870   2.829   1.088  0.3314 -0.2794  0.3262
15748SOL    HW148921   3.883   2.845   0.994 -0.5841 -2.7312 -0.2605
15748SOL    HW248922   3.872   2.734   1.096 -1.6949 -0.1665  2.4990
15749SOL     OW48923   7.019   0.910   1.809 -0.0310 -0.5121  0.0605
15749SOL    HW148924   6.961   0.853   1.759  0.7797 -1.1329 -0.1950
15749SOL    HW248925   7.047   0.976   1.747  0.2737 -0.7650 -0.0749
15750SOL     OW48926   0.101   5.379   9.122  0.8080  0.0552  0.9647
15750SOL    HW148927   0.132   5.312   9.183 -0.1845 -1.6042 -0.3063
15750SOL    HW248928   0.013   5.401   9.154  0.0570 -1.2346 -0.1690
15751SOL     OW48929   6.866   4.608   7.924  0.2552 -0.1984 -0.5986
15751SOL    HW148930   6.770   4.606   7.916  0.1284  0.1842  0.7281
15751SOL    HW248931   6.888   4.701   7.930  0.6372 -0.3208 -0.0689
15752SOL     OW48932   8.708   5.718   0.912  0.1066 -0.2955 -0.0523
15752SOL    HW148933   8.655   5.741   0.988 -0.2716  0.1184 -0.4433
15752SOL    HW248934   8.780   5.781   0.912 -0.1830  0.0393 -0.3391
15753SOL     OW48935   5.870   8.664   3.679 -0.7455  0.0885 -0.0607
15753SOL    HW148936   5.800   8.600   3.664 -0.2103 -0.2017 -1.3569
15753SOL    HW248937   5.950   8.619   3.650 -0.1194  0.7124  0.6670
15754SOL     OW48938   6.321   7.062   4.289  0.0287 -0.4377 -0.1659
15754SOL    HW148939   6.337   7.042   4.381 -1.1365 -0.4565  0.0437
15754SOL    HW248940   6.226   7.050   4.278 -0.2632  2.0241 -0.7388
15755SOL     OW48941   3.455   3.662   8.874  0.2164  0.4735 -0.2039
15755SOL    HW148942   3.439   3.586   8.818 -0.5213  0.4065  0.1037
15755SOL    HW248943   3.543   3.692   8.848 -0.3087  0.7398 -1.7247
15756SOL     OW48944   0.386   8.467   7.895 -0.4767  0.4606  0.0963
15756SOL    HW148945   0.469   8.459   7.847  0.7838  1.7270  1.9495
15756SOL    HW248946   0.390   8.399   7.962 -1.3033 -0.0059 -0.3323
15757SOL     OW48947   6.956   5.080   1.673 -0.3494  0.5961 -0.1457
15757SOL    HW148948   7.042   5.122   1.674  0.1244 -0.3174  2.2836
15757SOL    HW248949   6.960   5.016   1.602  1.6066 -0.6235  1.0140
15758SOL     OW48950   7.829   3.726   6.147  0.0268  0.4525  0.3601
15758SOL    HW148951   7.848   3.743   6.055  0.1485 -1.1116  0.0705
15758SOL    HW248952   7.747   3.676   6.146 -0.0623  0.5700  1.1020
15759SOL     OW48953   6.116   5.764   0.465 -0.1550 -0.3826 -0.8336
15759SOL    HW148954   6.151   5.675   0.478  1.9504  0.7867  2.2083
15759SOL    HW248955   6.035   5.765   0.515  0.9456  0.0166  0.9920
15760SOL     OW48956   4.754   1.455   2.783  0.1392 -0.2063  0.0862
15760SOL    HW148957   4.770   1.519   2.853  0.8815 -1.3922  1.0246
15760SOL    HW248958   4.803   1.489   2.708 -0.8399  1.1949  0.0651
15761SOL     OW48959   7.633   6.474   1.374  0.2372  0.8365  0.1040
15761SOL    HW148960   7.605   6.442   1.288 -1.5035 -0.3790  1.0889
15761SOL    HW248961   7.666   6.397   1.419 -3.2271  0.4628  2.1992
15762SOL     OW48962   4.051   9.235   8.560  0.1464 -0.1003  0.2810
15762SOL    HW148963   4.031   9.269   8.473  1.7884  1.1280  0.3529
15762SOL    HW248964   4.026   9.306   8.619  0.0299 -0.5168  0.7307
15763SOL     OW48965   4.760   3.043   5.062  0.0503 -1.1804 -0.3685
15763SOL    HW148966   4.853   3.025   5.077 -0.0984 -1.1376  0.5855
15763SOL    HW248967   4.738   3.113   5.123 -0.0793  0.3490 -2.1017
15764SOL     OW48968   6.053   6.104   2.606  0.4982  0.6919 -0.4968
15764SOL    HW148969   6.108   6.174   2.643 -0.7646  1.5908 -0.2770
15764SOL    HW248970   6.009   6.067   2.682 -1.2903  1.8214 -0.9689
15765SOL     OW48971   6.728   9.018   4.801  0.6531  0.4552 -0.1173
15765SOL    HW148972   6.727   9.096   4.746 -2.0004 -0.1308 -0.9749
15765SOL    HW248973   6.720   8.945   4.739  2.1567 -0.4719  0.7388
15766SOL     OW48974   4.747   2.019   2.260 -0.0837  0.0073 -0.3227
15766SOL    HW148975   4.833   2.056   2.240  0.1502 -1.0696 -1.3232
15766SOL    HW248976   4.705   2.086   2.315  0.1641  1.9741 -2.4564
15767SOL     OW48977   0.889   3.663   6.579  0.5428  0.4239  0.5697
15767SOL    HW148978   0.984   3.664   6.578  0.5572 -1.1831  0.0429
15767SOL    HW248979   0.866   3.631   6.666  0.4319  2.8954  1.5094
15768SOL     OW48980   3.186   5.734   8.894 -0.3032  0.0738  0.0149
15768SOL    HW148981   3.195   5.740   8.799  2.2191 -1.2595  0.1225
15768SOL    HW248982   3.163   5.642   8.910  1.1066 -0.1524  0.8025
15769SOL     OW48983   3.302   3.763   1.302  0.1601 -0.2882  0.1244
15769SOL    HW148984   3.313   3.846   1.348 -0.9743  0.2392 -0.5491
15769SOL    HW248985   3.222   3.726   1.338 -0.4744 -0.1002 -1.0558
15770SOL     OW48986   6.277   8.711   4.787 -0.4928  0.0483 -0.2671
15770SOL    HW148987   6.327   8.702   4.706  1.0938 -0.7837  0.7654
15770SOL    HW248988   6.285   8.625   4.829 -3.2402 -0.2505 -0.2979
15771SOL     OW48989   9.262   1.036   4.056 -0.3333  0.0886 -0.4623
15771SOL    HW148990   9.275   0.942   4.070 -0.6554 -0.1246 -1.5484
15771SOL    HW248991   9.343   1.076   4.088 -0.3663 -0.5228  0.3949
15772SOL     OW48992   7.224   2.221   7.276  0.2471 -0.1463 -0.0692
15772SOL    HW148993   7.132   2.246   7.283  0.3467 -0.2804  1.9450
15772SOL    HW248994   7.264   2.291   7.225 -0.4587  1.2521  1.2867
15773SOL     OW48995   0.530   4.080   4.240  0.2427 -0.3957  0.1310
15773SOL    HW148996   0.610   4.089   4.291  0.7760 -2.3576 -0.3474
15773SOL    HW248997   0.471   4.028   4.294  0.3528 -1.4186 -0.7160
15774SOL     OW48998   2.087   8.991   1.515  0.3295  0.7344 -0.1675
15774SOL    HW148999   2.143   9.056   1.558  1.5059 -0.1530 -0.3294
15774SOL    HW249000   2.137   8.963   1.439 -0.3203 -0.1181 -0.2864
15775SOL     OW49001   6.571   8.122   4.028 -1.0374  0.1581  0.2668
15775SOL    HW149002   6.503   8.186   4.049 -1.5945 -0.3345 -0.0451
15775SOL    HW249003   6.545   8.042   4.074  0.8811  0.8117  2.5643
15776SOL     OW49004   3.359   8.188   0.415  0.4128  0.0595  0.5519
15776SOL    HW149005   3.405   8.231   0.342 -0.8768 -0.1050 -0.3853
15776SOL    HW249006   3.405   8.219   0.493  1.7960  0.2897 -0.3191
15777SOL     OW49007   8.763   2.329   8.611  0.4054 -0.2064 -0.1205
15777SOL    HW149008   8.713   2.385   8.553  0.5598 -0.0360 -0.0906
15777SOL    HW249009   8.855   2.346   8.588  0.5468  1.1123  1.2992
15778SOL     OW49010   9.052   8.362   8.178  0.6665 -0.0374  0.3893
15778SOL    HW149011   8.986   8.354   8.248  0.0835  1.0786 -0.0246
15778SOL    HW249012   9.029   8.443   8.133  2.1127  0.1656  0.0035
15779SOL     OW49013   4.642   1.129   3.761 -0.1365 -0.2180  0.1586
15779SOL    HW149014   4.613   1.054   3.709  0.8844  0.1856 -1.0203
15779SOL    HW249015   4.642   1.203   3.699  0.2165  0.4524  0.9508
15780SOL     OW49016   8.432   7.377   3.402  0.2651  0.4723  0.2685
15780SOL    HW149017   8.482   7.416   3.474 -2.3549  0.5294  2.1066
15780SOL    HW249018   8.382   7.450   3.366  0.5816  0.1760 -0.7678
15781SOL     OW49019   5.263   6.305   6.820  0.5161  1.5054  0.2708
15781SOL    HW149020   5.275   6.262   6.735  1.5705  0.8188  0.7571
15781SOL    HW249021   5.319   6.255   6.880  0.3907  2.4790  1.2039
15782SOL     OW49022   0.291   8.892   6.446  0.1939 -0.3677 -0.1333
15782SOL    HW149023   0.332   8.806   6.455  0.0963 -0.2699  1.2883
15782SOL    HW249024   0.346   8.950   6.499  0.8651  0.6694 -1.8873
15783SOL     OW49025   2.188   1.034   8.985  0.2292  0.6227  0.2356
15783SOL    HW149026   2.188   1.129   8.969  2.0949  1.0444  2.5173
15783SOL    HW249027   2.256   1.000   8.926 -1.2405  0.4958 -1.4431
15784SOL     OW49028   1.090   1.442   5.699  0.1139 -0.0001 -0.2137
15784SOL    HW149029   1.179   1.478   5.703  0.4325 -0.7938  0.0541
15784SOL    HW249030   1.098   1.355   5.739 -1.1780  0.6912  1.6120
15785SOL     OW49031   6.043   0.027   2.776  0.0190  0.0001 -0.5797
15785SOL    HW149032   5.980   0.100   2.774 -1.0873 -0.9630 -2.3075
15785SOL    HW249033   6.086   0.030   2.690  3.0116  1.1892  0.9068
15786SOL     OW49034   6.358   3.531   3.576 -0.4656  0.2201 -0.2346
15786SOL    HW149035   6.312   3.516   3.494 -0.7846  3.0614 -0.6108
15786SOL    HW249036   6.443   3.489   3.564 -0.5014  0.6531 -2.0433
15787SOL     OW49037   1.987   8.814   4.462 -0.4988 -0.0402  0.2686
15787SOL    HW149038   2.057   8.878   4.472 -0.9919  0.5373  0.0361
15787SOL    HW249039   1.919   8.844   4.522 -0.5342 -0.6193  0.5175
15788SOL     OW49040   7.666   4.748   3.523  0.0074  0.4696  0.5063
15788SOL    HW149041   7.651   4.837   3.491  0.0872  0.4350  0.3710
15788SOL    HW249042   7.760   4.733   3.510  0.1828  0.7131  1.4173
15789SOL     OW49043   6.872   9.168   8.866 -0.0387 -0.1443 -0.0798
15789SOL    HW149044   6.892   9.095   8.808  1.1999 -0.5303  0.7942
15789SOL    HW249045   6.944   9.168   8.929 -0.0315  1.8144 -0.0568
15790SOL     OW49046   2.949   4.517   8.373 -0.7597 -0.3137 -0.5131
15790SOL    HW149047   2.943   4.537   8.280  0.2476  2.1991 -0.0761
15790SOL    HW249048   2.944   4.602   8.417 -1.4806 -1.4765  1.7519
15791SOL     OW49049   2.591   8.556   4.595 -0.3079  0.5861  0.1711
15791SOL    HW149050   2.537   8.612   4.651 -1.7695 -1.4852  0.8950
15791SOL    HW249051   2.680   8.568   4.629 -0.5022  2.8192 -0.0133
15792SOL     OW49052   0.590   2.964   4.936  0.1311  0.7834  0.3783
15792SOL    HW149053   0.620   3.051   4.911 -2.1772  1.6515  0.5662
15792SOL    HW249054   0.623   2.907   4.866  1.5018  1.8209  0.1644
15793SOL     OW49055   0.747   8.691   4.774 -0.2735  0.4602  0.4842
15793SOL    HW149056   0.666   8.708   4.727  0.9242 -1.9958 -2.6826
15793SOL    HW249057   0.719   8.664   4.861 -2.7765  1.2876 -0.0210
15794SOL     OW49058   6.887   5.282   2.931  0.2199  0.3437 -0.1134
15794SOL    HW149059   6.979   5.256   2.927 -0.1184 -0.7437 -1.2269
15794SOL    HW249060   6.867   5.318   2.845 -0.5121  0.1748 -0.0248
15795SOL     OW49061   8.257   6.020   9.259 -0.1430  0.0242 -0.0389
15795SOL    HW149062   8.296   5.936   9.234 -0.0085 -0.4927  1.7799
15795SOL    HW249063   8.331   6.080   9.264 -0.2376  0.2456 -1.3339
15796SOL     OW49064   6.857   2.418   5.046 -0.2262  0.4537 -0.0127
15796SOL    HW149065   6.906   2.465   5.114 -0.2817  1.4276 -0.6411
15796SOL    HW249066   6.806   2.352   5.095  2.0598 -0.9145  0.5894
15797SOL     OW49067   0.340   5.324   4.660 -0.5163 -0.3516  0.2669
15797SOL    HW149068   0.257   5.283   4.684 -0.5535 -1.1043 -1.0940
15797SOL    HW249069   0.406   5.268   4.701 -0.6127 -1.1241 -0.6045
15798SOL     OW49070   6.489   2.042   9.177 -0.2672  0.4535  0.1499
15798SOL    HW149071   6.562   2.013   9.123  0.3478  1.6365  0.3290
15798SOL    HW249072   6.413   2.040   9.118 -0.0476 -0.5297 -0.1023
15799SOL     OW49073   4.707   8.655   4.874 -0.0215 -0.0789 -0.1713
15799SOL    HW149074   4.685   8.701   4.955 -0.7854  0.0704 -0.4668
15799SOL    HW249075   4.803   8.657   4.872 -0.0362  1.1796  0.0029
15800SOL     OW49076   0.147   7.414   3.549 -0.1583 -0.3799  0.0030
15800SOL    HW149077   0.196   7.332   3.553  0.6848 -0.0690 -2.8332
15800SOL    HW249078   0.209   7.480   3.579  0.1814 -0.4040 -0.6231
15801SOL     OW49079   6.778   6.811   4.949 -0.0991 -0.0355  0.2930
15801SOL    HW149080   6.870   6.806   4.920 -0.7540 -0.6247 -1.7735
15801SOL    HW249081   6.774   6.891   5.001  1.2056  0.9978 -1.1266
15802SOL     OW49082   5.394   6.793   2.227 -0.1037  0.2115 -0.5532
15802SOL    HW149083   5.409   6.867   2.168 -1.0722  0.3259 -0.6664
15802SOL    HW249084   5.439   6.720   2.185  3.1362  1.2754  0.8863
15803SOL     OW49085   6.647   0.440   2.870  0.1131 -0.5116  0.4902
15803SOL    HW149086   6.692   0.404   2.794 -0.7032 -0.7861  0.1283
15803SOL    HW249087   6.670   0.533   2.870  1.7058 -0.9000  1.0636
15804SOL     OW49088   4.981   5.912   1.984  0.0260  0.2278 -0.6335
15804SOL    HW149089   5.048   5.861   2.030 -1.3429 -0.8459  0.2114
15804SOL    HW249090   5.031   5.971   1.928  1.6657 -1.4922 -1.0432
15805SOL     OW49091   5.695   3.649   5.057  0.3150  0.7015  0.4295
15805SOL    HW149092   5.625   3.610   5.109  1.4633 -0.0182  1.4653
15805SOL    HW249093   5.705   3.737   5.094  0.7914  0.3663  1.1149
15806SOL     OW49094   4.896   6.828   3.759 -0.3749  0.3253  0.1193
15806SOL    HW149095   4.922   6.898   3.700  3.1764 -1.8421 -1.0310
15806SOL    HW249096   4.833   6.776   3.708  0.7703 -0.1160 -0.8603
15807SOL     OW49097   6.348   2.071   5.924  0.8816 -0.1463  0.2251
15807SOL    HW149098   6.259   2.035   5.926  1.0079 -0.4433  0.4671
15807SOL    HW249099   6.395   2.016   5.861  1.2055 -0.7074  0.9542
15808SOL     OW49100   8.259   3.855   6.464 -0.1621  0.4983 -0.1690
15808SOL    HW149101   8.222   3.906   6.536  0.0655 -0.6293  0.7585
15808SOL    HW249102   8.354   3.863   6.476 -0.0967  1.5463 -1.2408
15809SOL     OW49103   9.108   0.539   6.700  0.1345  0.5126  0.6910
15809SOL    HW149104   9.033   0.598   6.694  1.0052  1.5633 -0.1418
15809SOL    HW249105   9.127   0.515   6.609  0.0091 -0.7944  0.9932
15810SOL     OW49106   6.321   6.201   6.176 -0.1008 -0.0908  0.4384
15810SOL    HW149107   6.285   6.164   6.095 -1.0109 -0.8603  1.1860
15810SOL    HW249108   6.392   6.259   6.146 -1.3232  0.6927 -0.9857
15811SOL     OW49109   8.271   7.375   8.373  0.1080  0.0611  0.6752
15811SOL    HW149110   8.361   7.388   8.346 -0.0692  2.1392  0.9671
15811SOL    HW249111   8.277   7.339   8.461  0.6534 -2.8310 -0.5097
15812SOL     OW49112   1.353   2.130   6.749 -0.4677 -0.0373 -0.7649
15812SOL    HW149113   1.261   2.149   6.733 -0.2725  0.0720 -1.7789
15812SOL    HW249114   1.389   2.108   6.663  0.1546 -1.4049 -0.1711
15813SOL     OW49115   8.235   2.529   7.638  0.6736 -0.0297 -0.9620
15813SOL    HW149116   8.221   2.492   7.551 -2.3909 -2.2702  0.3925
15813SOL    HW249117   8.216   2.622   7.628  1.0626 -0.1400 -2.8484
15814SOL     OW49118   0.447   2.369   6.923  0.8257  0.1369 -0.1745
15814SOL    HW149119   0.452   2.275   6.940 -0.1119  0.1247  0.0536
15814SOL    HW249120   0.538   2.398   6.925  1.1316 -0.7877 -0.3764
15815SOL     OW49121   7.864   5.149   7.726 -0.1256 -0.2986  0.0102
15815SOL    HW149122   7.872   5.129   7.633 -0.8934 -1.4121  0.1763
15815SOL    HW249123   7.780   5.194   7.735  0.3974  0.6894  0.0288
15816SOL     OW49124   2.740   6.709   1.314  0.4083  0.5992 -0.2844
15816SOL    HW149125   2.823   6.754   1.328  0.2349  0.4723  1.2448
15816SOL    HW249126   2.761   6.616   1.321  1.0061  0.2688 -4.6919
15817SOL     OW49127   6.697   7.175   6.597  0.1508 -0.2657 -0.2845
15817SOL    HW149128   6.652   7.122   6.663  0.1458 -1.8380 -1.5065
15817SOL    HW249129   6.629   7.200   6.535  0.5718 -0.9637 -1.0523
15818SOL     OW49130   1.994   0.179   1.914  0.1119  0.7126  0.1377
15818SOL    HW149131   2.040   0.174   1.998  1.5803  1.5287 -0.6108
15818SOL    HW249132   1.910   0.221   1.936 -0.5201 -1.2565  1.5858
15819SOL     OW49133   0.313   1.100   7.830  0.4568 -0.7216  0.3061
15819SOL    HW149134   0.344   1.014   7.802  1.8403 -0.3090  0.5432
15819SOL    HW249135   0.255   1.082   7.904  1.7237 -1.3605  1.1558
15820SOL     OW49136   0.457   7.652   4.274  0.3189  0.0900 -0.0382
15820SOL    HW149137   0.370   7.613   4.263 -0.8269  1.7307  2.7855
15820SOL    HW249138   0.517   7.577   4.273 -1.4574 -1.3824  1.3352
15821SOL     OW49139   2.985   3.317   6.129 -0.0656 -0.2028  0.0085
15821SOL    HW149140   3.020   3.336   6.216  1.5488 -0.4708 -0.5666
15821SOL    HW249141   2.899   3.277   6.146  0.4359 -0.6980  1.4813
15822SOL     OW49142   6.573   9.159   0.209 -0.0244 -0.8752 -0.6050
15822SOL    HW149143   6.653   9.125   0.169  1.1790  1.2061 -0.0249
15822SOL    HW249144   6.557   9.243   0.165 -0.2180  0.1280  1.3331
15823SOL     OW49145   2.254   7.068   3.766 -0.6866  0.3302  0.2669
15823SOL    HW149146   2.267   7.161   3.748 -0.2794  0.1629 -0.3291
15823SOL    HW249147   2.339   7.036   3.796 -1.0559  0.3390  1.3491
15824SOL     OW49148   0.172   2.173   1.183  0.4078  0.8096 -0.4061
15824SOL    HW149149   0.156   2.078   1.186 -0.6451  0.9703 -0.7694
15824SOL    HW249150   0.089   2.212   1.208  1.2570  1.6386  1.2322
15825SOL     OW49151   7.058   5.418   7.919  0.3564  0.2054 -0.2803
15825SOL    HW149152   7.089   5.475   7.990 -3.1044 -0.1402  1.5993
15825SOL    HW249153   7.107   5.337   7.930  2.0939  1.2214 -0.2466
15826SOL     OW49154   8.233   4.237   1.754 -0.3315 -0.0297  0.1618
15826SOL    HW149155   8.278   4.176   1.814 -0.9716 -1.5350 -0.8480
15826SOL    HW249156   8.157   4.187   1.723 -0.7967  1.2570 -0.7969
15827SOL     OW49157   4.003   3.174   2.534 -0.5685  0.9185  0.1615
15827SOL    HW149158   3.966   3.091   2.564 -1.1591  1.5602  1.2146
15827SOL    HW249159   4.089   3.179   2.575 -0.2615  0.5409 -0.4148
15828SOL     OW49160   7.929   6.190   4.373 -0.3452  0.2703 -0.5333
15828SOL    HW149161   7.923   6.104   4.413  1.5734 -0.1240 -1.0482
15828SOL    HW249162   7.919   6.174   4.279 -0.2627  0.6270 -0.6059
15829SOL     OW49163   7.469   2.837   2.542 -0.0919  0.2960  0.5733
15829SOL    HW149164   7.558   2.858   2.570  0.1484 -0.2550  0.2321
15829SOL    HW249165   7.413   2.880   2.606  0.3673  2.7325 -0.6311
15830SOL     OW49166   7.673   2.497   7.217 -0.0929  0.4260 -0.6423
15830SOL    HW149167   7.724   2.417   7.213 -1.6746 -0.6308 -0.1326
15830SOL    HW249168   7.712   2.554   7.151  0.6554 -0.9876 -1.4345
15831SOL     OW49169   8.709   5.128   7.914  0.3929  0.2645  0.6485
15831SOL    HW149170   8.718   5.116   7.819  0.2907  0.2312  0.6431
15831SOL    HW249171   8.620   5.162   7.925  0.2817 -0.0634  0.7639
15832SOL     OW49172   3.766   4.131   7.594 -0.2343  0.3203  0.3239
15832SOL    HW149173   3.697   4.150   7.657  0.7154 -0.9417  1.7556
15832SOL    HW249174   3.844   4.175   7.630 -0.1171  1.1821 -0.9405
15833SOL     OW49175   6.095   5.299   2.457  0.2328 -0.0893  0.1848
15833SOL    HW149176   6.006   5.334   2.460  0.6448  0.9408  0.5609
15833SOL    HW249177   6.152   5.375   2.472  1.2349 -0.4650 -1.5669
15834SOL     OW49178   0.293   3.721   0.962 -0.4592 -0.0799  0.1592
15834SOL    HW149179   0.229   3.766   0.906 -0.0905  0.1746 -0.0625
15834SOL    HW249180   0.378   3.758   0.936 -0.0822 -1.3436 -0.4554
15835SOL     OW49181   1.141   8.739   2.260 -0.3880 -0.3942  0.2212
15835SOL    HW149182   1.147   8.686   2.339  1.5463  0.0701  0.4315
15835SOL    HW249183   1.076   8.695   2.205  0.7872 -2.6912  0.6150
15836SOL     OW49184   5.062   7.815   8.913  0.0219 -0.2978  0.3996
15836SOL    HW149185   5.015   7.768   8.845  0.7338 -0.8883  0.3126
15836SOL    HW249186   4.994   7.863   8.961 -0.6372 -0.9947  0.1617
15837SOL     OW49187   1.412   0.683   8.835 -0.0781 -0.2739  0.9356
15837SOL    HW149188   1.483   0.618   8.826  1.4105  1.6399 -1.5219
15837SOL    HW249189   1.443   0.742   8.904  1.5208  1.5287 -1.2886
15838SOL     OW49190   1.442   7.116   3.589  0.3072 -0.0449  0.3012
15838SOL    HW149191   1.440   7.028   3.551  1.2183 -0.5164  1.2904
15838SOL    HW249192   1.510   7.111   3.657 -0.1313  1.2200  0.8574
15839SOL     OW49193   6.692   7.326   2.818 -0.2002  0.2352 -0.5696
15839SOL    HW149194   6.751   7.260   2.781  0.2956  0.2078  0.2671
15839SOL    HW249195   6.614   7.276   2.842  0.2459 -0.0854  0.2328
15840SOL     OW49196   8.117   7.076   6.902  0.6446  0.3108  0.4320
15840SOL    HW149197   8.032   7.044   6.875  0.6178 -0.0589  0.9454
15840SOL    HW249198   8.179   7.008   6.875  0.8281  0.7914 -0.3519
15841SOL     OW49199   4.087   4.761   0.328 -0.1531  0.3013  0.4948
15841SOL    HW149200   4.036   4.798   0.256  0.4324  0.7185  0.2861
15841SOL    HW249201   4.135   4.688   0.288 -0.9928 -0.4256  0.8116
15842SOL     OW49202   7.527   6.266   8.844 -0.0107 -0.0079  0.1193
15842SOL    HW149203   7.497   6.197   8.904  1.6498 -0.0804  0.8949
15842SOL    HW249204   7.610   6.296   8.881  0.1137  1.2630 -1.1266
15843SOL     OW49205   0.098   2.288   4.450 -0.5552 -0.2279  0.8816
15843SOL    HW149206   0.007   2.276   4.476 -0.6877  2.5593  1.8160
15843SOL    HW249207   0.139   2.329   4.526  0.8031  1.2168 -0.6046
15844SOL     OW49208   1.008   3.184   0.668 -0.0343 -0.1426  0.0798
15844SOL    HW149209   1.066   3.108   0.663 -1.6957 -1.4759  0.9459
15844SOL    HW249210   1.040   3.232   0.745  1.1406  0.1703 -0.5817
15845SOL     OW49211   2.391   6.303   4.518 -0.1816  0.1319  0.3628
15845SOL    HW149212   2.457   6.298   4.588  1.6872  0.4646 -1.3441
15845SOL    HW249213   2.347   6.218   4.521  0.3017 -0.0990  1.5190
15846SOL     OW49214   9.046   0.383   5.426  1.0708  0.0579 -0.0371
15846SOL    HW149215   8.984   0.311   5.439  0.4870  0.6010  0.2082
15846SOL    HW249216   9.132   0.341   5.426  0.6888 -0.7348 -0.6475
15847SOL     OW49217   0.179   2.065   8.645 -0.5471  0.2375  0.3930
15847SOL    HW149218   0.187   1.984   8.696 -1.0321 -0.5468 -0.7740
15847SOL    HW249219   0.270   2.091   8.627 -0.3737  0.3425  1.3456
15848SOL     OW49220   0.927   6.475   9.195 -0.6641 -0.0709 -0.5229
15848SOL    HW149221   0.992   6.544   9.177 -2.3936  1.1488 -2.3670
15848SOL    HW249222   0.846   6.523   9.212 -1.2783 -1.6003  0.9769
15849SOL     OW49223   1.879   4.769   1.922 -0.9752  0.3655  0.6394
15849SOL    HW149224   1.836   4.757   2.007 -0.0663 -0.8622  0.9254
15849SOL    HW249225   1.815   4.736   1.858 -1.4089  0.7257  0.8794
15850SOL     OW49226   3.057   5.288   6.395 -0.2634 -0.1541 -0.2059
15850SOL    HW149227   3.003   5.245   6.462 -0.2112 -1.7434 -1.1479
15850SOL    HW249228   3.022   5.377   6.390 -0.9603 -0.3320  1.1823
15851SOL     OW49229   3.605   0.357   6.939  0.1069  0.8446 -0.9514
15851SOL    HW149230   3.562   0.357   6.854  1.6982  0.7282 -1.7698
15851SOL    HW249231   3.644   0.270   6.947 -1.3404  0.3023  0.5850
15852SOL     OW49232   1.486   2.118   1.519 -0.1785 -0.1117  0.7543
15852SOL    HW149233   1.491   2.199   1.468 -1.6365 -1.6631 -1.9137
15852SOL    HW249234   1.416   2.068   1.478  2.3187 -3.8170  0.8152
15853SOL     OW49235   3.360   1.056   4.107 -0.5479 -0.2220 -0.1420
15853SOL    HW149236   3.337   1.028   4.196 -0.2183 -0.4275 -0.1211
15853SOL    HW249237   3.286   1.028   4.053 -1.0907  0.5710  0.1913
15854SOL     OW49238   2.621   8.384   9.073  0.1422  0.2909  0.5192
15854SOL    HW149239   2.600   8.467   9.116  1.3575  1.3796 -0.9060
15854SOL    HW249240   2.625   8.406   8.980 -0.3001 -1.5503  0.0410
15855SOL     OW49241   8.927   8.850   0.671 -0.1029 -0.4405  0.4761
15855SOL    HW149242   8.900   8.758   0.668 -0.5951 -0.3130  0.8941
15855SOL    HW249243   9.022   8.848   0.661 -0.0972 -1.0079  0.6562
15856SOL     OW49244   8.639   8.769   0.008  0.1045 -0.0960  0.1676
15856SOL    HW149245   8.635   8.741  -0.084 -0.2423  0.0921  0.1240
15856SOL    HW249246   8.615   8.691   0.058  0.1950 -0.1724  0.0934
15857SOL     OW49247   2.322   4.930   8.657  0.6838 -0.1138  0.1385
15857SOL    HW149248   2.288   4.937   8.568  0.5223  0.4523  0.2429
15857SOL    HW249249   2.303   4.839   8.682  1.8726 -0.6481 -0.8554
15858SOL     OW49250   6.048   2.722   8.679  0.2188  0.1496 -0.3983
15858SOL    HW149251   6.072   2.662   8.750  1.7142  1.3488  0.1186
15858SOL    HW249252   6.129   2.736   8.630 -0.2044  1.4796 -0.7308
15859SOL     OW49253   6.576   1.923   8.914 -0.4112  1.0565 -0.3655
15859SOL    HW149254   6.630   1.979   8.859  0.4104 -1.1467 -1.8970
15859SOL    HW249255   6.499   1.903   8.861 -0.9980  1.2372  0.4031
15860SOL     OW49256   8.588   5.048   5.534 -0.2599  0.1267 -0.5058
15860SOL    HW149257   8.496   5.023   5.522 -0.5178  1.2647 -0.9316
15860SOL    HW249258   8.609   5.020   5.623 -0.7386 -1.0049 -0.7475
15861SOL     OW49259   0.166   9.035   5.518  0.1895 -0.2467  0.3456
15861SOL    HW149260   0.137   9.074   5.600 -0.3702  1.0135 -0.4418
15861SOL    HW249261   0.260   9.052   5.515  0.0662  0.4253  0.3296
15862SOL     OW49262   3.218   0.479   5.957 -0.7552 -0.1272 -0.3166
15862SOL    HW149263   3.196   0.437   6.040 -0.5639  0.6502  0.1302
15862SOL    HW249264   3.148   0.451   5.897 -0.1661 -1.7643 -0.2634
15863SOL     OW49265   5.324   2.514   9.161 -0.0748  0.6547  0.1561
15863SOL    HW149266   5.334   2.483   9.071 -0.7140 -0.9025  0.6095
15863SOL    HW249267   5.258   2.457   9.199  0.2566  1.2421  1.6541
15864SOL     OW49268   2.912   2.612   1.247 -0.0749 -0.7570  0.0045
15864SOL    HW149269   3.005   2.625   1.228  0.0014 -0.2245  0.7460
15864SOL    HW249270   2.883   2.696   1.284 -0.1447 -1.8766  2.5742
15865SOL     OW49271   0.068   0.206   1.639  0.7663  0.0305  0.4456
15865SOL    HW149272   0.136   0.192   1.705  0.5172 -0.8218  0.5273
15865SOL    HW249273   0.004   0.137   1.655  0.6109 -0.0785 -0.5744
15866SOL     OW49274   3.573   7.008   3.988 -0.1851  0.0173 -0.0670
15866SOL    HW149275   3.484   7.040   3.972  0.0272  2.0549  2.5779
15866SOL    HW249276   3.624   7.042   3.915 -1.2608  0.2099 -0.7384
15867SOL     OW49277   5.838   0.568   6.892 -0.4376  0.4000  0.0701
15867SOL    HW149278   5.821   0.618   6.813 -0.1916 -0.7304 -0.7125
15867SOL    HW249279   5.807   0.479   6.872 -0.4999  0.1396  1.2790
15868SOL     OW49280   0.057   9.261   5.984 -0.6606  0.1246 -0.3015
15868SOL    HW149281   0.131   9.253   6.043  0.5238  1.8615 -1.5045
15868SOL    HW249282  -0.002   9.323   6.028 -1.2026 -0.9034  0.4383
15869SOL     OW49283   4.034   0.392   5.885 -0.2905  0.1714 -0.2286
15869SOL    HW149284   4.016   0.323   5.822 -0.8080  1.1296 -1.1306
15869SOL    HW249285   3.958   0.450   5.881  0.2117  0.8910  0.4077
15870SOL     OW49286   5.479   5.312   6.117 -0.0828 -0.4882  0.4168
15870SOL    HW149287   5.428   5.264   6.052  1.8200 -0.3288 -1.2496
15870SOL    HW249288   5.504   5.246   6.181 -1.1052 -0.8513  0.4515
15871SOL     OW49289   3.396   4.823   2.577  0.3342 -0.6587  0.2468
15871SOL    HW149290   3.477   4.853   2.535  0.6581 -0.8052  0.7624
15871SOL    HW249291   3.341   4.900   2.581  1.4626  0.0908  2.2871
15872SOL     OW49292   7.952   5.692   3.430  0.0057 -0.3772  0.4654
15872SOL    HW149293   7.929   5.627   3.363 -1.0563 -0.8025  1.2363
15872SOL    HW249294   8.047   5.704   3.419  0.6419 -3.7292  1.7737
15873SOL     OW49295   3.083   5.341   2.622  0.2316  0.2440 -0.6490
15873SOL    HW149296   3.075   5.415   2.682 -0.7637 -0.3309 -0.0611
15873SOL    HW249297   2.994   5.307   2.614  0.5397 -0.3412 -1.6120
15874SOL     OW49298   2.928   3.850   2.563 -0.7743 -0.5592  0.0103
15874SOL    HW149299   3.015   3.850   2.602 -0.6923 -0.0600 -0.1733
15874SOL    HW249300   2.881   3.780   2.609 -0.8195  0.2982  1.2964
15875SOL     OW49301   7.316   5.485   8.178  0.0890 -0.1847 -0.2059
15875SOL    HW149302   7.337   5.578   8.171 -0.7954  0.2197  2.2470
15875SOL    HW249303   7.397   5.440   8.154  1.2340  1.2444  0.9764
15876SOL     OW49304   7.125   3.945   5.951  0.0241 -0.4550 -0.1603
15876SOL    HW149305   7.190   3.889   5.994 -1.6400 -0.6167  2.2460
15876SOL    HW249306   7.137   4.031   5.992 -1.1987 -0.4615  0.2406
15877SOL     OW49307   9.280   2.171   8.808 -0.2627  0.3972 -0.0800
15877SOL    HW149308   9.285   2.152   8.902  1.4383  1.6516  0.1231
15877SOL    HW249309   9.357   2.127   8.771 -1.0746 -0.3167 -0.9475
15878SOL     OW49310   8.863   4.820   6.118 -0.7072 -0.2628 -0.1795
15878SOL    HW149311   8.936   4.759   6.115 -1.0947 -0.6450 -2.2965
15878SOL    HW249312   8.786   4.765   6.130 -0.9511 -0.0936 -0.9912
15879SOL     OW49313   2.327   9.142   8.094  0.0341 -0.3637 -0.5389
15879SOL    HW149314   2.344   9.050   8.115 -0.6320 -0.4936 -0.5805
15879SOL    HW249315   2.305   9.141   8.001 -0.7638 -0.2600 -0.3494
15880SOL     OW49316   5.532   5.475   4.381  0.0650  0.7044  0.3509
15880SOL    HW149317   5.623   5.449   4.395  0.1507  1.1613  0.6645
15880SOL    HW249318   5.524   5.488   4.287 -0.4763 -2.2896 -0.0535
15881SOL     OW49319   1.394   2.103   7.479  0.0665  0.1625 -0.4537
15881SOL    HW149320   1.445   2.053   7.415 -0.8867  0.3389 -1.3622
15881SOL    HW249321   1.429   2.076   7.564  0.3223 -1.1984 -0.9786
15882SOL     OW49322   5.020   3.110   6.646 -0.4789 -0.2451 -0.2591
15882SOL    HW149323   4.928   3.122   6.623 -0.5771 -0.9492 -0.2465
15882SOL    HW249324   5.044   3.026   6.607  0.0034 -0.3251  0.1999
15883SOL     OW49325   2.684   7.771   0.819  0.4956 -0.4868  0.6437
15883SOL    HW149326   2.589   7.770   0.815  0.4578  0.7891  1.0266
15883SOL    HW249327   2.707   7.864   0.830  1.7900 -0.7347  0.1390
15884SOL     OW49328   1.279   0.724   6.826  0.5321 -0.2011  0.1005
15884SOL    HW149329   1.192   0.684   6.831  0.1276  0.6288 -0.1589
15884SOL    HW249330   1.277   0.796   6.888  0.7700  0.3029 -0.4615
15885SOL     OW49331   4.061   5.321   7.641  0.0524  0.5314 -0.0804
15885SOL    HW149332   4.132   5.288   7.585 -0.9619 -0.1443 -0.9764
15885SOL    HW249333   3.983   5.317   7.586 -0.7737  0.8180  1.0605
15886SOL     OW49334   2.941   1.015   2.617 -0.2240 -0.1881  0.2035
15886SOL    HW149335   2.905   1.104   2.609  0.4478  0.1980  1.3258
15886SOL    HW249336   2.982   1.014   2.704  0.8589 -1.2013 -0.3089
15887SOL     OW49337   6.555   4.776   5.568  1.1169  0.0613 -0.1149
15887SOL    HW149338   6.534   4.732   5.485  0.5021 -0.2608  0.2102
15887SOL    HW249339   6.593   4.860   5.541 -1.3193  1.0218 -0.7571
15888SOL     OW49340   1.656   8.247   8.101  0.2734 -0.1458 -0.1178
15888SOL    HW149341   1.730   8.295   8.065 -0.6179  0.6497 -0.8940
15888SOL    HW249342   1.595   8.314   8.131  0.0159 -0.7963  0.8614
15889SOL     OW49343   7.738   6.838   8.557 -0.9218 -0.2961  0.2623
15889SOL    HW149344   7.817   6.886   8.580  0.0742 -0.5261 -2.5110
15889SOL    HW249345   7.667   6.886   8.601  0.5021  1.2829  0.8781
15890SOL     OW49346   0.010   4.754   6.554 -0.0274 -0.1868 -0.6003
15890SOL    HW149347  -0.006   4.719   6.467  0.8476  1.0715 -1.2914
15890SOL    HW249348   0.091   4.712   6.583 -0.1753 -0.4043 -0.5014
15891SOL     OW49349   5.559   4.298   6.770  0.3844 -0.3289 -0.0787
15891SOL    HW149350   5.588   4.323   6.858 -3.3556 -1.5551  1.6058
15891SOL    HW249351   5.525   4.379   6.732  2.2187  0.2528 -0.5350
15892SOL     OW49352   1.813   4.480   2.163 -0.3247 -0.2382  0.0481
15892SOL    HW149353   1.751   4.465   2.235 -1.1963 -0.8025 -0.8143
15892SOL    HW249354   1.820   4.576   2.159  0.0665 -0.2066  1.1584
15893SOL     OW49355   4.945   2.274   4.084  0.0319  0.0314 -0.5089
15893SOL    HW149356   4.899   2.350   4.051  1.8377  0.9229 -1.0481
15893SOL    HW249357   4.882   2.202   4.077 -1.4290  1.3266 -0.6910
15894SOL     OW49358   4.199   2.929   5.217 -0.1901 -0.6034  0.4727
15894SOL    HW149359   4.185   2.952   5.309  1.0754 -1.5060  0.9073
15894SOL    HW249360   4.226   3.010   5.175 -0.1070 -0.3355  1.0414
15895SOL     OW49361   5.057   7.905   1.329 -0.3302  0.4380 -0.0985
15895SOL    HW149362   4.992   7.963   1.368 -2.0196 -1.6392  0.3179
15895SOL    HW249363   5.118   7.885   1.400  0.1632  1.5575 -0.2054
15896SOL     OW49364   8.089   5.521   7.235  0.0161  0.1772 -0.0728
15896SOL    HW149365   8.147   5.473   7.176 -0.1435 -0.5161  0.3282
15896SOL    HW249366   8.043   5.584   7.179  2.2893  1.8391 -0.1522
15897SOL     OW49367   4.129   7.169   1.480  0.1942  0.2725  0.5569
15897SOL    HW149368   4.042   7.207   1.492  0.2735  0.5606  0.2190
15897SOL    HW249369   4.135   7.149   1.386 -1.3241 -4.1683  1.2837
15898SOL     OW49370   8.197   1.405   2.587 -0.0300  0.2066  0.3548
15898SOL    HW149371   8.277   1.403   2.640  0.9966 -1.0125 -1.2098
15898SOL    HW249372   8.217   1.465   2.515 -0.5819  0.0296  0.0486
15899SOL     OW49373   6.148   6.539   0.783 -0.0021  0.1722  0.3408
15899SOL    HW149374   6.064   6.571   0.816  0.8924  1.7294  1.1703
15899SOL    HW249375   6.180   6.609   0.726  1.5163  0.3489  1.3807
15900SOL     OW49376   7.864   0.353   7.478 -0.2922  0.6761  0.8970
15900SOL    HW149377   7.846   0.446   7.489  0.2797  0.7241  1.4648
15900SOL    HW249378   7.953   0.341   7.512  0.4698  0.3102 -1.1895
15901SOL     OW49379   1.546   0.199   3.331  0.2503  0.2320  0.4893
15901SOL    HW149380   1.522   0.288   3.355  1.1175  0.4050  0.7275
15901SOL    HW249381   1.495   0.180   3.252 -2.4753 -0.2660  2.3115
15902SOL     OW49382   0.227   6.373   3.046 -0.0503 -0.4700 -0.0975
15902SOL    HW149383   0.272   6.339   2.968 -0.5040  1.1266 -1.0891
15902SOL    HW249384   0.135   6.374   3.022 -0.3997 -1.7327  1.1621
15903SOL     OW49385   5.840   5.578   4.551 -0.0014 -0.1617 -0.1471
15903SOL    HW149386   5.822   5.618   4.466  2.0721 -0.1175 -0.6035
15903SOL    HW249387   5.827   5.648   4.614 -0.2317  0.1601 -0.5506
15904SOL     OW49388   7.438   5.167   0.752 -0.1033 -0.3519  0.4607
15904SOL    HW149389   7.360   5.166   0.696  1.9177  2.8491 -2.5973
15904SOL    HW249390   7.415   5.224   0.825 -1.6606 -2.0085  1.3189
15905SOL     OW49391   0.797   4.855   2.229 -0.4395 -0.3732  0.1891
15905SOL    HW149392   0.847   4.811   2.161 -0.1524 -1.8029  1.3148
15905SOL    HW249393   0.786   4.945   2.196 -0.0732 -0.9636 -1.6042
15906SOL     OW49394   4.700   0.223   5.641  0.3939  0.4740 -0.1735
15906SOL    HW149395   4.794   0.227   5.659  0.5367 -0.8959 -0.5489
15906SOL    HW249396   4.658   0.242   5.725  1.0155  0.2152  0.1924
15907SOL     OW49397   9.247   6.165   2.699  0.1860  0.1197 -0.7866
15907SOL    HW149398   9.165   6.179   2.652 -0.0812  1.3965  0.0231
15907SOL    HW249399   9.311   6.148   2.631 -0.5218  0.3113 -1.5099
15908SOL     OW49400   1.358   4.671   4.477  0.1564  0.5265  0.1863
15908SOL    HW149401   1.324   4.620   4.403 -3.3850 -0.2666  2.2495
15908SOL    HW249402   1.398   4.748   4.436 -0.5115 -0.5473 -2.6222
15909SOL     OW49403   1.087   3.960   6.388 -0.4162 -0.2591  0.0137
15909SOL    HW149404   1.106   3.984   6.297 -0.4498 -0.5103 -0.0601
15909SOL    HW249405   1.030   4.030   6.420  2.4733  1.7553  0.9581
15910SOL     OW49406   9.173   6.882   7.137  0.1837  0.4186  0.1876
15910SOL    HW149407   9.261   6.859   7.167  1.7742  3.6614 -1.7356
15910SOL    HW249408   9.156   6.968   7.175 -1.4015  0.6417 -0.9488
15911SOL     OW49409   8.813   1.452   2.316  0.1576 -0.2567  0.6657
15911SOL    HW149410   8.905   1.446   2.338  0.2808  1.8713  0.8468
15911SOL    HW249411   8.786   1.362   2.297  2.6482 -0.6931 -0.9634
15912SOL     OW49412   0.203   1.378   6.077  0.5087 -0.6286  0.4066
15912SOL    HW149413   0.149   1.329   6.014  1.1163 -1.5539  0.6084
15912SOL    HW249414   0.148   1.384   6.155 -0.0874  0.1689 -0.0584
15913SOL     OW49415   3.789   6.626   0.596  0.1774  0.4329 -0.2455
15913SOL    HW149416   3.816   6.611   0.686  1.4851 -0.0088 -0.7055
15913SOL    HW249417   3.813   6.546   0.550 -2.1424 -0.0688 -0.6309
15914SOL     OW49418   0.949   9.155   7.374 -0.2363 -0.5170  0.0056
15914SOL    HW149419   1.018   9.219   7.355 -0.2861 -0.4018  0.2058
15914SOL    HW249420   0.869   9.195   7.340 -0.0337 -1.1526 -1.2499
15915SOL     OW49421   3.371   8.902   2.811 -0.3623  0.1564  0.4559
15915SOL    HW149422   3.408   8.891   2.723 -0.7605 -1.2765  0.4474
15915SOL    HW249423   3.426   8.967   2.853  2.0187 -1.7573  0.3756
15916SOL     OW49424   2.533   3.381   6.189 -0.0384 -0.4845  0.6348
15916SOL    HW149425   2.472   3.335   6.246  0.0188 -1.0250  0.2619
15916SOL    HW249426   2.483   3.454   6.153  0.1025  0.2380  1.8617
15917SOL     OW49427   4.063   5.443   5.257  0.4288  0.4560  0.0319
15917SOL    HW149428   4.066   5.524   5.309 -0.0532  1.3746 -1.3423
15917SOL    HW249429   3.970   5.427   5.243  0.5468  0.0378 -0.2802
15918SOL     OW49430   3.745   0.847   6.116 -0.5289 -0.2697 -0.7058
15918SOL    HW149431   3.663   0.837   6.068 -1.7520  0.5577  1.1472
15918SOL    HW249432   3.732   0.798   6.197 -0.1586  1.8769  0.7108
15919SOL     OW49433   1.023   6.093   3.788 -0.2923 -0.1628  0.4716
15919SOL    HW149434   0.952   6.115   3.848 -2.1939 -1.1793 -1.3317
15919SOL    HW249435   1.032   6.170   3.732 -0.6945 -0.3972  0.0704
15920SOL     OW49436   0.659   4.791   7.811 -0.0349  0.5865  0.1593
15920SOL    HW149437   0.670   4.732   7.736 -1.0402 -0.8753  1.1214
15920SOL    HW249438   0.713   4.752   7.880  0.0025  1.2974  0.5346
15921SOL     OW49439   8.643   7.093   7.390 -0.7787 -0.0668 -0.6015
15921SOL    HW149440   8.643   7.005   7.427  0.4494  0.1261 -0.1381
15921SOL    HW249441   8.653   7.079   7.296 -4.6037 -0.5891 -1.0207
15922SOL     OW49442   3.572   4.958   9.132  0.0290  0.0767 -0.3578
15922SOL    HW149443   3.498   4.915   9.173  1.3881 -1.5060  0.5294
15922SOL    HW249444   3.597   5.028   9.192 -0.3817  0.2508 -0.3893
15923SOL     OW49445   8.381   1.338   4.792  0.0413  0.4050 -0.3618
15923SOL    HW149446   8.361   1.259   4.743 -2.9843 -0.0834  1.5304
15923SOL    HW249447   8.464   1.320   4.836 -0.2506 -1.4160 -0.5557
15924SOL     OW49448   0.542   2.760   6.571  0.2491  0.3952 -0.7586
15924SOL    HW149449   0.495   2.842   6.583  0.9330  0.6764  0.0856
15924SOL    HW249450   0.574   2.764   6.481 -1.3684  0.1773 -1.3414
15925SOL     OW49451   2.936   0.113   5.084  0.3851 -0.0238 -0.2213
15925SOL    HW149452   2.937   0.030   5.133 -0.6923 -0.3591 -0.7498
15925SOL    HW249453   2.964   0.088   4.996 -0.9850 -0.0042 -0.6593
15926SOL     OW49454   8.710   4.378   8.264 -0.0343  0.3000  0.1133
15926SOL    HW149455   8.689   4.423   8.182 -0.0057  0.7138  0.3267
15926SOL    HW249456   8.800   4.349   8.253 -0.2923 -0.3441 -0.3066
15927SOL     OW49457   2.292   1.615   3.672 -0.3816 -0.3963 -0.0300
15927SOL    HW149458   2.377   1.639   3.709  0.0070 -1.0600 -0.4910
15927SOL    HW249459   2.295   1.520   3.663 -0.2794 -0.2094 -2.2005
15928SOL     OW49460   0.585   4.918   1.345  0.1968  0.4171 -0.0691
15928SOL    HW149461   0.530   4.884   1.416  0.0295  1.2030  0.1825
15928SOL    HW249462   0.669   4.874   1.357 -0.5496 -1.2852 -0.8394
15929SOL     OW49463   2.134   0.947   7.931 -0.8830 -0.1795  0.1975
15929SOL    HW149464   2.070   0.999   7.980 -0.2365 -0.0794  0.9403
15929SOL    HW249465   2.216   0.995   7.940 -0.6134 -0.5318 -0.3937
15930SOL     OW49466   7.086   5.160   8.984 -0.2153  0.4644 -0.0910
15930SOL    HW149467   7.100   5.206   9.067  1.3906  1.4450 -0.8776
15930SOL    HW249468   7.024   5.215   8.936 -1.1303 -0.0930  0.4284
15931SOL     OW49469   5.517   4.228   6.102  0.1546 -0.3392  0.4947
15931SOL    HW149470   5.525   4.252   6.009  0.0701 -0.5716  0.4245
15931SOL    HW249471   5.447   4.163   6.103 -0.3913  0.2529  0.8331
15932SOL     OW49472   4.072   1.843   5.084  0.0374  0.5696 -0.3081
15932SOL    HW149473   4.003   1.830   5.019  0.9502 -0.2271 -1.1285
15932SOL    HW249474   4.139   1.895   5.039  0.0555  1.2188  0.4394
15933SOL     OW49475   9.074   4.409   6.787 -0.0321 -0.0560 -0.3494
15933SOL    HW149476   9.076   4.410   6.692 -0.1804 -1.5329 -0.3839
15933SOL    HW249477   8.999   4.354   6.809  1.7067 -2.0958  0.5909
15934SOL     OW49478   1.906   2.295   8.894 -0.0335  0.3212 -0.4611
15934SOL    HW149479   1.897   2.355   8.968  0.1133  1.9246 -1.7173
15934SOL    HW249480   1.830   2.314   8.839  0.7424  0.3163 -1.5423
15935SOL     OW49481   3.919   7.293   3.908 -0.5080  0.2001 -0.4366
15935SOL    HW149482   4.006   7.260   3.882  0.8517  1.9900  1.6658
15935SOL    HW249483   3.902   7.250   3.992 -1.9252 -0.5500 -1.0902
15936SOL     OW49484   8.995   2.498   1.344 -0.0270 -0.1686  0.2306
15936SOL    HW149485   8.990   2.591   1.323  1.8922 -0.2333 -0.6156
15936SOL    HW249486   8.999   2.454   1.259 -2.2057 -1.1477  0.5820
15937SOL     OW49487   7.054   4.452   1.342 -0.3583 -0.2477 -0.0907
15937SOL    HW149488   7.004   4.455   1.423  1.0638  0.5785  0.7853
15937SOL    HW249489   7.124   4.388   1.359 -1.0479 -1.3469 -1.2722
15938SOL     OW49490   1.225   3.409   6.873  0.5251 -0.2364 -0.3289
15938SOL    HW149491   1.200   3.498   6.899  1.2178 -0.1382  0.0154
15938SOL    HW249492   1.204   3.355   6.949  1.4486 -0.1339  0.0113
15939SOL     OW49493   8.758   4.430   1.564 -0.5156  0.3016  0.0865
15939SOL    HW149494   8.689   4.393   1.620 -0.8186  1.4913  0.5055
15939SOL    HW249495   8.755   4.524   1.580  1.0764  0.3957 -0.0430
15940SOL     OW49496   3.512   8.106   6.002 -0.4207  0.2894  0.0783
15940SOL    HW149497   3.495   8.200   6.006  0.5801  0.4020  2.4191
15940SOL    HW249498   3.432   8.066   6.035 -0.5989  0.3381 -0.2903
15941SOL     OW49499   4.739   7.173   6.973 -0.3047 -0.2547  0.1945
15941SOL    HW149500   4.823   7.142   7.006  0.3136  0.3830 -0.7255
15941SOL    HW249501   4.685   7.095   6.965 -0.3142 -0.4752  2.2216
15942SOL     OW49502   4.564   9.196   5.434 -0.0336  1.0464 -0.1578
15942SOL    HW149503   4.578   9.241   5.518  0.6301 -0.4044  0.5410
15942SOL    HW249504   4.595   9.258   5.368  0.2194  1.8823  0.7288
15943SOL     OW49505   2.867   4.763   5.490 -0.1244  0.5431 -0.0298
15943SOL    HW149506   2.822   4.794   5.411  0.6598 -0.2084 -0.7811
15943SOL    HW249507   2.958   4.752   5.462  0.2561  0.7766  1.1236
15944SOL     OW49508   7.275   7.729   5.908  0.1783  0.0525  0.6565
15944SOL    HW149509   7.323   7.652   5.937 -0.4975 -0.1428  1.2808
15944SOL    HW249510   7.341   7.786   5.869  1.0159  0.0938  2.1226
15945SOL     OW49511   2.597   8.887   6.875  0.4157  0.0458  0.4949
15945SOL    HW149512   2.512   8.931   6.882 -0.2307 -0.9523 -1.0010
15945SOL    HW249513   2.661   8.959   6.878 -0.5852  1.0356 -1.2253
15946SOL     OW49514   6.034   4.407   2.105  0.4856 -0.2162  0.3656
15946SOL    HW149515   6.093   4.342   2.144  0.1433  0.6996  2.4614
15946SOL    HW249516   6.077   4.491   2.122 -1.4979  0.4821  2.1109
15947SOL     OW49517   0.209   5.599   4.962 -0.4505 -0.7696 -0.0230
15947SOL    HW149518   0.139   5.608   4.897 -0.4411 -1.4470 -0.1274
15947SOL    HW249519   0.230   5.689   4.987 -1.6177 -0.5702  0.2855
15948SOL     OW49520   6.032   1.288   0.335  0.1500 -0.4907 -0.0210
15948SOL    HW149521   6.076   1.373   0.333 -0.9266  0.0863  0.0682
15948SOL    HW249522   6.017   1.267   0.243  0.3340 -0.5371 -0.0404
15949SOL     OW49523   8.129   0.819   7.369 -0.0147  0.2796 -0.0894
15949SOL    HW149524   8.107   0.887   7.434 -0.8582 -1.2393  1.2508
15949SOL    HW249525   8.108   0.737   7.413 -0.7932 -0.7758 -2.3857
15950SOL     OW49526   3.999   3.924   8.032 -0.0895  0.0146  0.1468
15950SOL    HW149527   4.092   3.904   8.035 -0.2119 -0.5621  0.2726
15950SOL    HW249528   3.993   4.018   8.048  0.5349  0.2197 -0.7674
15951SOL     OW49529   2.674   6.112   3.944 -0.0330 -0.0820  0.4745
15951SOL    HW149530   2.618   6.137   4.017 -1.7039 -1.6255 -0.2611
15951SOL    HW249531   2.614   6.098   3.871  1.3861 -0.9400 -0.5569
15952SOL     OW49532   8.361   4.617   1.391 -0.1989  0.3101 -0.1284
15952SOL    HW149533   8.339   4.563   1.467  2.2242  0.6880  0.8691
15952SOL    HW249534   8.374   4.705   1.427 -0.1099  0.7295 -1.1574
15953SOL     OW49535   2.756   2.038   2.444 -0.2408  0.5763  0.2177
15953SOL    HW149536   2.737   1.956   2.489 -0.4640  0.4618 -0.0832
15953SOL    HW249537   2.679   2.055   2.390  0.6440 -0.0962 -1.3097
15954SOL     OW49538   1.355   6.882   2.928  0.0687  0.3521 -0.8912
15954SOL    HW149539   1.402   6.942   2.985 -0.2367 -0.7235  0.5104
15954SOL    HW249540   1.410   6.805   2.923 -0.2697  0.1426 -1.4450
15955SOL     OW49541   6.765   3.778   7.260 -0.4682 -0.3175  0.7227
15955SOL    HW149542   6.724   3.838   7.323  0.3885  0.6458  0.3779
15955SOL    HW249543   6.774   3.831   7.180  1.3871 -0.5299  0.7706
15956SOL     OW49544   0.126   8.250   1.594 -0.4080 -0.3915  0.0396
15956SOL    HW149545   0.119   8.159   1.563 -2.4316  0.1510 -1.1770
15956SOL    HW249546   0.085   8.302   1.525  1.3800  1.5458  0.3765
15957SOL     OW49547   1.422   2.711   1.231  0.2359 -0.1353  0.3757
15957SOL    HW149548   1.494   2.703   1.294 -0.5995 -0.9279  1.2405
15957SOL    HW249549   1.433   2.799   1.194  0.3186  0.6313  2.1438
15958SOL     OW49550   0.398   9.127   1.377 -0.3081  0.7712 -0.5919
15958SOL    HW149551   0.375   9.116   1.470  2.6464  1.9679  0.3526
15958SOL    HW249552   0.381   9.219   1.360 -0.4598  0.6445 -1.1048
15959SOL     OW49553   7.076   4.204   6.328  0.1023  0.4476  0.3759
15959SOL    HW149554   7.164   4.187   6.295 -0.0832  1.0623 -0.4459
15959SOL    HW249555   7.024   4.226   6.251 -0.6077  0.7853  0.9312
15960SOL     OW49556   5.771   4.402   5.870  0.5381  0.0399 -0.0747
15960SOL    HW149557   5.684   4.372   5.844  0.4180  0.7008 -0.4563
15960SOL    HW249558   5.800   4.457   5.797  1.1324  0.1047  0.2037
15961SOL     OW49559   3.532   3.083   0.243 -0.2765  0.0478 -0.4152
15961SOL    HW149560   3.547   3.173   0.270  0.4237 -0.0371 -0.4973
15961SOL    HW249561   3.620   3.048   0.228 -0.4944 -0.9140  0.4943
15962SOL     OW49562   6.441   2.980   0.065  0.2629  0.6741 -0.9988
15962SOL    HW149563   6.352   2.955   0.089  1.3566 -1.1867  1.5010
15962SOL    HW249564   6.448   3.072   0.091 -0.1768  0.1079  1.2628
15963SOL     OW49565   7.024   1.799   3.079  0.2638 -0.0328 -0.5230
15963SOL    HW149566   7.089   1.864   3.053  0.0501  0.4483  0.1166
15963SOL    HW249567   6.959   1.849   3.129  0.3712 -0.8237  0.4319
15964SOL     OW49568   5.382   6.438   4.685  0.1865 -0.3098  0.0343
15964SOL    HW149569   5.322   6.510   4.662 -0.9885 -0.6099  2.0299
15964SOL    HW249570   5.341   6.360   4.648 -1.0226 -0.6076  1.9561
15965SOL     OW49571   7.348   7.656   2.612 -0.2316 -0.1625  0.1884
15965SOL    HW149572   7.289   7.639   2.538 -0.4005  2.1125 -0.2383
15965SOL    HW249573   7.290   7.662   2.688 -0.2872 -0.3601  0.1615
15966SOL     OW49574   2.743   1.695   2.171 -0.3378 -0.6027  0.4463
15966SOL    HW149575   2.819   1.656   2.129 -0.1957 -0.0904  0.2167
15966SOL    HW249576   2.777   1.776   2.211 -0.4826 -1.0326  1.4681
15967SOL     OW49577   3.858   8.723   3.943  0.8742  1.0667  0.3451
15967SOL    HW149578   3.852   8.670   4.022 -0.5019 -3.9889 -2.9046
15967SOL    HW249579   3.951   8.726   3.922  1.0968  1.1987  1.3682
15968SOL     OW49580   4.038   8.386   1.479 -0.0483 -0.6237 -0.2440
15968SOL    HW149581   4.048   8.310   1.536  1.3857 -0.7591 -0.6692
15968SOL    HW249582   3.943   8.393   1.466 -0.2978 -1.4235  1.0154
15969SOL     OW49583   1.600   0.175   0.674 -0.5375  0.3297  0.3526
15969SOL    HW149584   1.681   0.218   0.646 -0.8099  0.6722  0.0853
15969SOL    HW249585   1.626   0.085   0.692 -0.0316  0.5140  0.5770
15970SOL     OW49586   5.203   2.289   3.454 -0.2858  0.0633  0.0402
15970SOL    HW149587   5.212   2.352   3.382  1.2636 -0.9581 -0.6871
15970SOL    HW249588   5.293   2.263   3.474 -0.8787 -1.4612  0.7389
15971SOL     OW49589   3.688   2.701   4.285 -0.1351  0.9367 -0.0476
15971SOL    HW149590   3.709   2.730   4.196 -0.4777  2.1807  0.2731
15971SOL    HW249591   3.769   2.658   4.315 -0.2380 -0.0897 -1.1920
15972SOL     OW49592   4.386   8.444   2.525  0.3670  0.2893  0.3394
15972SOL    HW149593   4.391   8.349   2.530 -0.1100  0.2160 -0.6153
15972SOL    HW249594   4.294   8.464   2.543  0.3869  0.5447  0.1607
15973SOL     OW49595   5.752   2.065   5.193  0.6616  0.1816 -0.3886
15973SOL    HW149596   5.697   1.993   5.163  1.7657 -0.6182 -0.5259
15973SOL    HW249597   5.797   2.096   5.115  0.3589  0.8742 -0.2904
15974SOL     OW49598   6.623   5.098   5.249 -0.1309 -0.0723  0.5265
15974SOL    HW149599   6.558   5.075   5.183  0.3593 -0.8776  0.3176
15974SOL    HW249600   6.685   5.154   5.204  0.3582 -0.8497  0.2171
15975SOL     OW49601   4.502   1.923   2.936  0.3927 -0.0378  0.7565
15975SOL    HW149602   4.562   1.867   2.887 -0.2881 -1.0336  1.0479
15975SOL    HW249603   4.551   1.946   3.016  0.7310 -0.0937  0.5661
15976SOL     OW49604   8.804   7.963   7.686 -0.0134  0.6387 -0.0543
15976SOL    HW149605   8.784   7.870   7.682  0.9456  0.3686  1.2529
15976SOL    HW249606   8.743   7.998   7.751 -1.5753  1.2557 -1.8255
15977SOL     OW49607   4.968   1.490   8.891 -0.2837 -0.2893 -0.5829
15977SOL    HW149608   4.908   1.474   8.818  0.2166 -0.0119 -1.0643
15977SOL    HW249609   4.923   1.554   8.946 -0.9535 -1.0007 -0.2888
15978SOL     OW49610   5.262   6.340   5.069 -0.1736 -0.3040  0.6305
15978SOL    HW149611   5.275   6.329   4.975  0.5835 -0.6931  0.7769
15978SOL    HW249612   5.217   6.260   5.096 -0.1216 -0.3259  0.6522
15979SOL     OW49613   1.894   5.037   1.673  0.6740 -0.3465  0.1795
15979SOL    HW149614   1.801   5.046   1.651  0.8118 -0.9943 -0.7143
15979SOL    HW249615   1.896   4.974   1.745  0.4523 -0.8467 -0.2399
15980SOL     OW49616   2.261   1.206   5.512  0.4030  0.1969 -0.4389
15980SOL    HW149617   2.312   1.230   5.589  0.3849 -0.3711 -0.2429
15980SOL    HW249618   2.178   1.252   5.522  0.5314  0.3987 -0.2977
15981SOL     OW49619   2.361   4.186   7.967  0.2196 -1.0102 -0.2400
15981SOL    HW149620   2.273   4.163   7.994  0.4419 -0.0954  1.2798
15981SOL    HW249621   2.351   4.216   7.876 -0.9932 -1.0907 -0.1412
15982SOL     OW49622   9.005   3.923   9.066  0.1042  0.3047  0.6286
15982SOL    HW149623   8.957   3.952   8.988  1.0366 -1.0894 -0.5069
15982SOL    HW249624   8.943   3.870   9.115 -0.2006  0.3746  0.3178
15983SOL     OW49625   5.904   7.969   4.656 -0.5487  0.0981  0.2862
15983SOL    HW149626   5.968   7.907   4.622 -0.6891 -0.0863  0.3609
15983SOL    HW249627   5.942   8.000   4.738  1.6773  3.4907 -1.8794
15984SOL     OW49628   6.605   6.691   3.680  0.1661 -0.6675 -0.0732
15984SOL    HW149629   6.634   6.781   3.696 -1.1804 -0.3836  0.8529
15984SOL    HW249630   6.614   6.680   3.586  0.8548  0.2615 -0.1305
15985SOL     OW49631   3.777   6.707   1.432  0.1108  0.3839  0.7019
15985SOL    HW149632   3.699   6.712   1.487  0.1409  0.0694  0.7739
15985SOL    HW249633   3.823   6.789   1.448 -1.3545  1.5937 -1.0580
15986SOL     OW49634   7.954   9.160   0.235  0.0054  0.1971 -0.1805
15986SOL    HW149635   7.968   9.075   0.193  1.2252  0.0518  0.4871
15986SOL    HW249636   7.865   9.185   0.211 -0.8358 -1.8729  0.6669
15987SOL     OW49637   2.350   9.065   4.309  0.3979 -0.2377 -0.5690
15987SOL    HW149638   2.357   9.143   4.254  1.7888 -0.0822 -0.2010
15987SOL    HW249639   2.292   9.006   4.261  0.0832  0.6570 -1.2926
15988SOL     OW49640   0.857   1.619   4.691 -0.1324  0.5017  0.1910
15988SOL    HW149641   0.911   1.698   4.683  0.9027  0.0327  2.1023
15988SOL    HW249642   0.808   1.633   4.772  1.0544 -1.3557  1.2698
15989SOL     OW49643   8.530   1.027   3.971 -0.4251 -0.8907 -0.4296
15989SOL    HW149644   8.574   0.942   3.976  0.6160 -0.3915 -0.9521
15989SOL    HW249645   8.477   1.021   3.892  1.3750 -0.2700 -1.7194
15990SOL     OW49646   5.844   0.832   7.835  0.4753  0.4893 -0.1235
15990SOL    HW149647   5.883   0.892   7.772 -0.5327  0.9069 -0.3535
15990SOL    HW249648   5.792   0.772   7.783  2.3748 -1.3114 -0.0047
15991SOL     OW49649   3.772   5.452   9.101  0.0071 -0.1729 -0.0774
15991SOL    HW149650   3.838   5.430   9.166 -0.9954  2.2690  1.8867
15991SOL    HW249651   3.793   5.542   9.075 -0.8914 -0.3534 -1.4764
15992SOL     OW49652   5.169   1.465   1.153  0.0184  0.1174  0.2806
15992SOL    HW149653   5.233   1.481   1.084 -0.6788  2.4888  0.1296
15992SOL    HW249654   5.094   1.426   1.108  1.4649 -3.1053  0.5285
15993SOL     OW49655   3.098   7.360   2.602 -0.4972  0.0770 -0.2586
15993SOL    HW149656   3.179   7.371   2.552  0.4245 -3.8185  0.1650
15993SOL    HW249657   3.102   7.427   2.671  2.0982  0.3073 -0.5950
15994SOL     OW49658   4.502   2.923   5.287  0.0242 -0.3025  0.7227
15994SOL    HW149659   4.533   2.903   5.199  1.4450 -2.7848  1.7475
15994SOL    HW249660   4.426   2.867   5.299  1.2223 -1.7186  1.8937
15995SOL     OW49661   3.253   6.591   0.354  0.2345 -0.1514 -0.0023
15995SOL    HW149662   3.263   6.638   0.271 -1.1566 -1.2350 -0.7997
15995SOL    HW249663   3.331   6.614   0.404  0.5547  1.3849 -1.1802
15996SOL     OW49664   1.803   2.384   1.391  0.1646 -0.6076  0.5625
15996SOL    HW149665   1.711   2.378   1.366  0.5824  2.3722 -1.9727
15996SOL    HW249666   1.807   2.461   1.448  1.3760  0.3853 -0.8440
15997SOL     OW49667   1.362   7.059   8.361 -0.0974 -0.4862 -0.0063
15997SOL    HW149668   1.408   7.122   8.304  1.3749 -1.0255  0.5879
15997SOL    HW249669   1.366   7.099   8.448 -0.8840 -0.4741  0.0257
15998SOL     OW49670   3.404   2.661   0.831 -0.3644  0.0433  0.3014
15998SOL    HW149671   3.378   2.585   0.780  0.4561 -0.9012  1.2586
15998SOL    HW249672   3.332   2.675   0.892 -2.1460  2.2584 -2.2586
15999SOL     OW49673   6.788   0.307   4.161 -0.2164 -0.3961  0.1434
15999SOL    HW149674   6.743   0.292   4.078  1.1967 -1.1449 -0.5043
15999SOL    HW249675   6.721   0.290   4.227 -1.4305  0.4714 -0.8298
16000SOL     OW49676   3.979   6.181   1.639 -0.3486 -0.4153  0.4644
16000SOL    HW149677   3.907   6.123   1.616 -0.4774 -0.1384  0.1759
16000SOL    HW249678   3.964   6.261   1.588  0.1681 -0.3617  0.3881
16001SOL     OW49679   8.300   1.447   6.566  0.4122  0.0420  0.3620
16001SOL    HW149680   8.248   1.431   6.486  0.3560 -2.1485  0.7964
16001SOL    HW249681   8.383   1.483   6.534  0.0833 -0.0486 -0.6259
16002SOL     OW49682   1.609   1.168   4.221  0.1655  0.2712 -0.3713
16002SOL    HW149683   1.516   1.176   4.200 -0.0620  1.7486  1.0558
16002SOL    HW249684   1.655   1.196   4.142 -0.6225  0.6443 -0.6999
16003SOL     OW49685   0.396   7.397   0.243 -0.1346 -0.4117  0.5693
16003SOL    HW149686   0.430   7.318   0.284  1.1221  1.7795  3.9357
16003SOL    HW249687   0.463   7.422   0.179  0.0863 -1.3071  0.4455
16004SOL     OW49688   2.935   5.075   3.547  0.0043 -0.1785  0.1329
16004SOL    HW149689   2.863   5.022   3.582 -2.4756  1.1440 -2.6791
16004SOL    HW249690   2.911   5.165   3.570  2.3014  0.0817  1.6815
16005SOL     OW49691   4.256   5.302   4.125  0.1223 -0.1966  0.1902
16005SOL    HW149692   4.346   5.312   4.094 -0.2776  2.0904 -0.3428
16005SOL    HW249693   4.229   5.390   4.150 -1.6325 -1.0179  1.3438
16006SOL     OW49694   2.725   4.774   5.719  0.6998  0.5569 -0.9439
16006SOL    HW149695   2.777   4.813   5.789 -1.3875  3.2126 -0.7497
16006SOL    HW249696   2.774   4.793   5.639  1.3568  0.6274 -0.5269
16007SOL     OW49697   0.049   7.527   7.236 -0.1050  0.0466 -0.6389
16007SOL    HW149698   0.009   7.608   7.205  0.8348  0.7147 -0.1077
16007SOL    HW249699   0.142   7.546   7.242 -0.1370 -0.3642  1.6897
16008SOL     OW49700   8.188   2.547   2.983 -0.2574 -0.8963 -0.5214
16008SOL    HW149701   8.168   2.512   2.896 -2.1210 -1.0299 -0.0507
16008SOL    HW249702   8.129   2.500   3.042 -1.3819  1.5886  0.3781
16009SOL     OW49703   6.239   4.878   1.374  0.3092 -0.0979  0.1621
16009SOL    HW149704   6.234   4.814   1.303 -1.1565  0.2260 -0.0312
16009SOL    HW249705   6.207   4.959   1.335  2.3589  0.8272  0.3465
16010SOL     OW49706   7.618   8.686   4.239 -0.0439 -0.1577 -0.4452
16010SOL    HW149707   7.595   8.655   4.327 -1.5742  1.4733 -0.2266
16010SOL    HW249708   7.567   8.630   4.180 -0.7665  0.2023 -0.1766
16011SOL     OW49709   6.291   6.412   6.967  0.3266 -0.1924 -0.3363
16011SOL    HW149710   6.208   6.378   7.001  0.8818 -0.3869  0.8577
16011SOL    HW249711   6.318   6.347   6.902 -0.6785  0.1113 -1.0701
16012SOL     OW49712   5.835   4.335   4.575  0.3995 -0.4877 -0.2110
16012SOL    HW149713   5.857   4.397   4.505 -2.5154 -0.8921 -1.5664
16012SOL    HW249714   5.839   4.387   4.655  2.2347  0.3848 -0.8472
16013SOL     OW49715   1.233   4.924   6.609 -0.1921 -0.5606  0.0632
16013SOL    HW149716   1.188   4.987   6.552  0.6679 -1.6210 -1.8375
16013SOL    HW249717   1.181   4.844   6.602  1.2267 -1.4012 -1.1122
16014SOL     OW49718   9.157   3.923   2.864 -0.0180 -0.4185 -0.1010
16014SOL    HW149719   9.088   3.957   2.807  0.0308 -0.2550 -0.0648
16014SOL    HW249720   9.157   3.983   2.939 -0.6813 -1.1484  0.4932
16015SOL     OW49721   2.207   7.116   5.002 -0.5576 -0.0324  0.3583
16015SOL    HW149722   2.115   7.135   5.016 -0.2345  0.1392  2.3327
16015SOL    HW249723   2.213   7.098   4.908 -2.8087 -1.2235  0.3969
16016SOL     OW49724   6.886   7.024   5.565  0.6392  0.1225  0.2404
16016SOL    HW149725   6.963   7.046   5.617  0.7673 -0.2233  0.1954
16016SOL    HW249726   6.862   6.935   5.593  0.6975 -0.0572 -0.2785
16017SOL     OW49727   5.406   8.745   7.481  0.0174  0.4432 -0.0590
16017SOL    HW149728   5.325   8.695   7.493  0.1471  0.1947 -0.2228
16017SOL    HW249729   5.380   8.836   7.495 -0.4975  0.4628 -1.0439
16018SOL     OW49730   9.122   8.090   8.197 -0.0089  0.2168  0.4494
16018SOL    HW149731   9.142   8.181   8.173  0.6002 -0.3386 -1.2180
16018SOL    HW249732   9.109   8.045   8.113 -1.6893 -0.9343  1.3022
16019SOL     OW49733   0.195   0.497   5.491  0.7145  0.2199 -0.0381
16019SOL    HW149734   0.163   0.546   5.566  0.0601  0.3139 -0.3721
16019SOL    HW249735   0.286   0.523   5.482  0.1929  1.9294 -0.6442
16020SOL     OW49736   5.853   3.940   1.894 -0.1700 -0.2596 -0.3824
16020SOL    HW149737   5.870   4.001   1.823 -0.7342 -0.7504 -0.9397
16020SOL    HW249738   5.940   3.905   1.917 -0.1343 -1.0147 -1.6488
16021SOL     OW49739   5.804   0.432   3.798 -0.1074 -0.1002 -0.3620
16021SOL    HW149740   5.846   0.375   3.862 -1.6126 -0.7049  0.1235
16021SOL    HW249741   5.866   0.437   3.725  1.3921  0.1498  0.9024
16022SOL     OW49742   5.602   1.499   1.462  0.5298  0.2865  0.0313
16022SOL    HW149743   5.551   1.569   1.503 -0.3047 -0.3793  0.1366
16022SOL    HW249744   5.591   1.513   1.368  1.8815  1.4010  0.0217
16023SOL     OW49745   0.685   2.273   3.367 -0.3383 -0.7094 -0.0942
16023SOL    HW149746   0.630   2.202   3.334 -1.9526 -0.6371  2.3780
16023SOL    HW249747   0.763   2.229   3.402 -0.5626 -1.1148 -0.1006
16024SOL     OW49748   2.056   2.682   7.538 -0.3945 -0.2188  0.0585
16024SOL    HW149749   2.014   2.656   7.620  0.3502 -1.8989 -0.0684
16024SOL    HW249750   2.072   2.776   7.548 -4.0027  0.4545  0.1423
16025SOL     OW49751   2.737   6.247   8.668 -0.3278 -0.4958  0.1733
16025SOL    HW149752   2.723   6.191   8.593 -0.2028  1.6643 -1.5276
16025SOL    HW249753   2.830   6.236   8.690 -0.1073 -0.3330 -0.6738
16026SOL     OW49754   5.699   8.853   7.095  0.2846 -0.2646 -0.0897
16026SOL    HW149755   5.793   8.834   7.084  0.6155  0.7959  0.8317
16026SOL    HW249756   5.693   8.948   7.087 -0.4838 -0.1718  1.4718
16027SOL     OW49757   6.531   4.160   2.385  0.4115 -0.1958 -0.3528
16027SOL    HW149758   6.488   4.115   2.312  0.3208  1.5313 -1.3977
16027SOL    HW249759   6.577   4.233   2.343  1.0587  0.3168  1.2312
16028SOL     OW49760   6.708   4.927   1.159  0.0673  0.1505  0.0564
16028SOL    HW149761   6.730   4.894   1.072  0.0316  3.6793 -1.3880
16028SOL    HW249762   6.613   4.931   1.160  0.0229 -1.1289  0.7466
16029SOL     OW49763   9.287   2.308   0.041 -0.8842  0.0050  0.1451
16029SOL    HW149764   9.338   2.249   0.097 -0.5149  0.6121  0.4587
16029SOL    HW249765   9.314   2.396   0.069 -0.4085  0.3108 -1.2718
16030SOL     OW49766   3.160   5.047   0.773  0.4034  0.1269  0.0482
16030SOL    HW149767   3.113   5.093   0.703 -1.1436 -1.4059  0.0515
16030SOL    HW249768   3.252   5.057   0.751 -0.0097  1.0976 -1.2918
16031SOL     OW49769   6.390   3.570   6.695  0.2044  0.0258  0.5544
16031SOL    HW149770   6.298   3.551   6.713  0.0509 -0.8263 -1.0301
16031SOL    HW249771   6.408   3.649   6.745 -1.8622  1.1597 -0.4086
16032SOL     OW49772   7.250   5.225   8.023  0.3405 -0.1829  0.5837
16032SOL    HW149773   7.318   5.208   8.089  1.5761 -0.3065 -0.6974
16032SOL    HW249774   7.289   5.290   7.965 -1.6332  1.6783  1.3072
16033SOL     OW49775   4.934   4.710   5.244  0.0858  0.1966 -0.5328
16033SOL    HW149776   4.847   4.696   5.282  0.0360  1.9836  0.0980
16033SOL    HW249777   4.982   4.756   5.313  1.0676  0.5237 -1.4271
16034SOL     OW49778   5.518   3.811   2.532 -0.1773 -0.0111  0.0708
16034SOL    HW149779   5.565   3.790   2.451 -0.9047  0.0536 -0.3711
16034SOL    HW249780   5.544   3.741   2.593  0.5325  0.0572 -0.1504
16035SOL     OW49781   1.612   3.088   5.943 -0.4321  0.1488  0.0306
16035SOL    HW149782   1.561   3.070   5.864 -0.2243  0.1365 -0.0997
16035SOL    HW249783   1.694   3.040   5.931 -1.3216 -1.7375  1.2935
16036SOL     OW49784   0.725   6.926   7.261  0.6595  0.2107  0.6249
16036SOL    HW149785   0.715   6.958   7.351 -1.4159  2.0665 -0.2143
16036SOL    HW249786   0.695   6.835   7.265  1.0900  0.1135  1.8982
16037SOL     OW49787   7.976   5.018   5.245  0.4200  0.2655 -0.0339
16037SOL    HW149788   7.919   5.075   5.296  1.4796  1.1844  0.1479
16037SOL    HW249789   8.003   5.071   5.171 -0.7573 -0.9179 -1.3431
16038SOL     OW49790   7.138   1.370   5.420  0.2967 -0.7336 -0.0631
16038SOL    HW149791   7.098   1.289   5.390  1.1296 -1.4676  0.8015
16038SOL    HW249792   7.076   1.438   5.393  0.6725 -1.4182 -2.8179
16039SOL     OW49793   0.305   7.020   5.997  0.1312  0.4942 -0.1594
16039SOL    HW149794   0.322   6.971   6.077  1.1671 -0.7099 -1.0800
16039SOL    HW249795   0.392   7.036   5.960 -0.3363  1.0148 -1.0426
16040SOL     OW49796   5.076   2.253   6.010 -0.2452  0.0291  0.2350
16040SOL    HW149797   5.104   2.284   6.096 -0.4001 -0.8816  0.6251
16040SOL    HW249798   4.995   2.302   5.992 -0.1296  0.3321  0.5373
16041SOL     OW49799   6.352   2.225   0.226 -0.3096 -0.9732  0.0157
16041SOL    HW149800   6.390   2.312   0.225  2.8826 -2.2464  2.2411
16041SOL    HW249801   6.257   2.240   0.227  0.1527  2.3948 -0.6958
16042SOL     OW49802   0.298   3.227   6.299 -0.0158  0.3992  0.0796
16042SOL    HW149803   0.320   3.242   6.207 -0.2406  0.9087  0.1059
16042SOL    HW249804   0.307   3.313   6.339  0.9568  0.0054  0.7177
16043SOL     OW49805   6.168   6.231   8.957  0.0616  0.1019 -0.0626
16043SOL    HW149806   6.160   6.172   9.032  1.4843 -0.7552 -0.5652
16043SOL    HW249807   6.169   6.172   8.881 -0.0212  0.8792 -0.6652
16044SOL     OW49808   6.942   4.800   8.657 -0.2237  0.4067 -0.5363
16044SOL    HW149809   6.869   4.837   8.705 -0.3953 -1.8458  1.0237
16044SOL    HW249810   6.948   4.709   8.688  0.5971 -0.6754 -3.6881
16045SOL     OW49811   4.703   6.344   7.329 -0.2619 -0.4772 -0.4452
16045SOL    HW149812   4.661   6.264   7.295  0.5176 -0.7308 -0.8306
16045SOL    HW249813   4.765   6.369   7.260 -0.4237  0.3982 -0.2731
16046SOL     OW49814   7.625   1.219   9.174 -0.2695  0.4192 -0.2857
16046SOL    HW149815   7.591   1.187   9.258  0.2612  0.3821 -0.0874
16046SOL    HW249816   7.658   1.306   9.192  1.0917 -0.1132 -0.1541
16047SOL     OW49817   8.746   8.954   5.319  0.0356  0.3771 -0.4857
16047SOL    HW149818   8.734   8.909   5.236 -0.3181  1.9601 -1.3026
16047SOL    HW249819   8.811   8.901   5.366  0.1197 -0.6000 -1.6881
16048SOL     OW49820   3.267   4.892   8.501 -0.2532 -0.0719  0.5813
16048SOL    HW149821   3.208   4.902   8.576 -1.6604 -1.6753 -0.2806
16048SOL    HW249822   3.210   4.864   8.429  1.5946 -1.8710 -0.2270
16049SOL     OW49823   6.983   6.453   8.689 -0.0414  0.0975  0.4940
16049SOL    HW149824   7.038   6.470   8.613 -3.1709 -0.1410 -1.9400
16049SOL    HW249825   6.978   6.358   8.695  0.1722  0.1145  1.0134
16050SOL     OW49826   6.188   6.068   8.726  0.2082 -0.3183 -0.0263
16050SOL    HW149827   6.166   6.116   8.646  0.3730 -1.5733 -0.8409
16050SOL    HW249828   6.117   6.006   8.738  0.6036 -0.7039  0.3474
16051SOL     OW49829   0.517   4.821   5.245  0.3392  0.5946 -0.2098
16051SOL    HW149830   0.495   4.734   5.210 -2.1570  0.4471  1.6313
16051SOL    HW249831   0.469   4.882   5.189 -0.4858  0.5879  0.4837
16052SOL     OW49832   5.433   1.083   3.590  0.6150  0.3071  0.0245
16052SOL    HW149833   5.443   0.993   3.558  2.1320  0.4098  0.1752
16052SOL    HW249834   5.444   1.076   3.685  0.2318  0.5769  0.0889
16053SOL     OW49835   3.742   3.136   8.298  0.5721  0.2247 -0.1484
16053SOL    HW149836   3.747   3.223   8.337  1.1318 -0.0366  0.3807
16053SOL    HW249837   3.685   3.086   8.357  0.3351  0.1960 -0.3950
16054SOL     OW49838   3.429   5.629   3.086  0.0835  0.2406  0.3342
16054SOL    HW149839   3.489   5.689   3.042  0.4120  0.5067  1.1244
16054SOL    HW249840   3.481   5.590   3.156 -0.0143 -1.2864 -0.4307
16055SOL     OW49841   0.238   7.290   6.256  0.2179 -0.2059 -0.2051
16055SOL    HW149842   0.312   7.347   6.236 -0.6883  1.3716  0.8721
16055SOL    HW249843   0.275   7.224   6.316  0.6560  0.8220  0.6718
16056SOL     OW49844   6.145   2.999   6.755  0.1129 -0.1790  0.2449
16056SOL    HW149845   6.226   2.959   6.724 -0.8870 -1.0753 -1.2687
16056SOL    HW249846   6.171   3.047   6.834  2.1301 -0.3314 -0.2979
16057SOL     OW49847   8.979   7.634   4.338 -0.8716  0.0391 -0.2214
16057SOL    HW149848   8.892   7.620   4.375 -1.4076  1.2031 -0.9934
16057SOL    HW249849   9.007   7.547   4.309  0.0529 -1.1338  3.8457
16058SOL     OW49850   1.860   1.819   8.355  0.4601  0.6567 -0.5610
16058SOL    HW149851   1.820   1.859   8.278 -1.2069  1.3977  0.6494
16058SOL    HW249852   1.830   1.728   8.351 -1.9130  1.3371  0.6388
16059SOL     OW49853   5.590   0.704   4.459 -0.4787 -0.1315 -0.0193
16059SOL    HW149854   5.568   0.785   4.412  0.9494  0.5606  0.4754
16059SOL    HW249855   5.515   0.689   4.516 -1.1721  0.3342 -0.8019
16060SOL     OW49856   3.638   6.514   3.755  0.6925 -0.0311 -0.3379
16060SOL    HW149857   3.582   6.587   3.728  0.9126  0.5888  0.8670
16060SOL    HW249858   3.703   6.507   3.685  0.0929  0.3086 -0.9313
16061SOL     OW49859   4.559   9.133   8.911 -0.0514 -0.5124 -0.5792
16061SOL    HW149860   4.488   9.152   8.850  0.0726  0.1583 -0.5137
16061SOL    HW249861   4.635   9.177   8.874  0.2325 -0.8591 -0.4137
16062SOL     OW49862   4.148   2.201   3.734  0.3419  0.2169 -0.1190
16062SOL    HW149863   4.208   2.127   3.741  0.8790  0.7226  0.6391
16062SOL    HW249864   4.086   2.188   3.806 -0.3045 -0.1591 -0.7357
16063SOL     OW49865   0.193   2.378   5.961  0.2319 -0.3570  0.8759
16063SOL    HW149866   0.280   2.349   5.932  0.5714  0.5338  0.9905
16063SOL    HW249867   0.132   2.326   5.909  0.8285 -1.3388  1.1369
16064SOL     OW49868   6.161   1.204   4.039  0.0086  0.4989  0.3436
16064SOL    HW149869   6.215   1.131   4.010 -1.6115 -0.6350  0.1048
16064SOL    HW249870   6.111   1.228   3.961  0.4992  1.8431  0.4386
16065SOL     OW49871   8.617   0.535   7.399 -0.2861  0.7351  0.0415
16065SOL    HW149872   8.687   0.476   7.426 -0.0219  1.1471  0.2587
16065SOL    HW249873   8.621   0.535   7.303 -0.1681  0.5401  0.0477
16066SOL     OW49874   4.824   2.385   5.977  0.1397 -0.5861 -0.1051
16066SOL    HW149875   4.832   2.424   6.065  0.4540 -0.5905 -0.1310
16066SOL    HW249876   4.764   2.444   5.931  1.2201  0.3099 -0.3930
16067SOL     OW49877   3.202   0.602   4.437  0.0386 -0.0678  0.1255
16067SOL    HW149878   3.187   0.540   4.365  0.0039 -0.1203  0.1778
16067SOL    HW249879   3.295   0.623   4.432  0.2197 -0.7492  0.6107
16068SOL     OW49880   7.603   4.123   5.545  0.1356 -0.3725  0.1176
16068SOL    HW149881   7.650   4.159   5.620 -0.3318 -1.1951  0.8084
16068SOL    HW249882   7.516   4.163   5.549  0.4123  0.3270 -0.5513
16069SOL     OW49883   8.275   1.281   0.593 -0.2015 -0.1526 -0.6169
16069SOL    HW149884   8.205   1.335   0.557 -0.4584 -0.3881 -0.4729
16069SOL    HW249885   8.251   1.191   0.569  0.7001 -0.1249 -1.6507
16070SOL     OW49886   6.746   3.070   1.071  0.0298 -0.5449  0.6138
16070SOL    HW149887   6.675   3.115   1.118 -2.4162 -0.0632 -3.2847
16070SOL    HW249888   6.704   2.992   1.034  1.6598 -0.5806 -1.2529
16071SOL     OW49889   6.096   3.081   7.234  0.0402  0.2643  0.6506
16071SOL    HW149890   6.025   3.031   7.276 -0.6391  0.0489 -0.7011
16071SOL    HW249891   6.168   3.078   7.297  0.1671 -2.7929  0.4651
16072SOL     OW49892   1.820   1.524   2.698  0.3643 -0.9349 -0.2129
16072SOL    HW149893   1.875   1.461   2.746 -0.5587 -1.0071  0.7676
16072SOL    HW249894   1.882   1.585   2.658  1.1995 -1.5755  0.0914
16073SOL     OW49895   2.793   2.800   1.425 -0.2295  0.0453 -0.4344
16073SOL    HW149896   2.837   2.863   1.483  1.3625 -0.4916 -1.0205
16073SOL    HW249897   2.750   2.739   1.485  1.3578 -0.4719  0.2128
16074SOL     OW49898   3.272   0.090   0.402  0.0955 -0.1971 -0.0504
16074SOL    HW149899   3.301   0.085   0.311  0.1744 -1.2343  0.0311
16074SOL    HW249900   3.240   0.180   0.412  2.7081  0.7832 -0.3064
16075SOL     OW49901   2.214   6.523   5.410 -0.2498 -0.0965  0.4698
16075SOL    HW149902   2.213   6.597   5.472 -2.0686 -0.3255  0.7227
16075SOL    HW249903   2.250   6.450   5.461  0.7374  0.3709  0.4694
16076SOL     OW49904   5.186   0.812   5.192  0.2432  0.0490  0.2310
16076SOL    HW149905   5.153   0.779   5.109  0.9668 -0.0448 -0.0186
16076SOL    HW249906   5.203   0.905   5.176 -1.0311  0.3781  0.7044
16077SOL     OW49907   9.019   8.439   9.278  0.7105 -0.0830 -0.0131
16077SOL    HW149908   9.055   8.487   9.203  0.8381  3.4299  2.1724
16077SOL    HW249909   9.092   8.435   9.341  0.2723 -1.9674  0.3938
16078SOL     OW49910   7.224   0.338   1.499 -0.5190 -0.1287  0.1925
16078SOL    HW149911   7.170   0.315   1.574 -0.8255 -0.0664 -0.0066
16078SOL    HW249912   7.310   0.359   1.536 -0.2440 -1.5259  0.3786
16079SOL     OW49913   3.743   7.874   0.420 -0.3905 -0.0440  0.4078
16079SOL    HW149914   3.763   7.838   0.507  0.3733 -0.1156  0.2042
16079SOL    HW249915   3.795   7.954   0.415  0.2517 -0.5012 -0.3293
16080SOL     OW49916   8.519   1.523   7.443  0.3499  0.5099  0.1317
16080SOL    HW149917   8.551   1.504   7.531  0.8019  3.3351  0.6056
16080SOL    HW249918   8.582   1.480   7.385  1.4482  0.7030  1.1615
16081SOL     OW49919   0.170   4.850   2.768  0.2938  0.4426  0.3977
16081SOL    HW149920   0.203   4.870   2.855 -1.3794  2.1151  0.6832
16081SOL    HW249921   0.169   4.935   2.723 -0.8554 -0.0539 -0.5336
16082SOL     OW49922   0.598   6.649   5.009  0.1067 -0.4100 -0.0013
16082SOL    HW149923   0.648   6.575   5.042 -1.3227 -1.4541 -0.1444
16082SOL    HW249924   0.508   6.632   5.037 -0.6047  0.1934 -1.8825
16083SOL     OW49925   4.246   4.973   4.200 -0.0298  0.2975 -0.5616
16083SOL    HW149926   4.310   5.039   4.229  1.2128  0.0253 -2.5550
16083SOL    HW249927   4.198   5.016   4.129 -0.6027 -0.2565 -0.5080
16084SOL     OW49928   4.901   6.638   6.621 -0.3109  0.2817 -0.0534
16084SOL    HW149929   4.938   6.577   6.686  0.8853  1.4850  0.4203
16084SOL    HW249930   4.929   6.602   6.537 -1.3242 -0.9314  0.1001
16085SOL     OW49931   3.276   7.939   5.724 -0.4507 -0.3930  0.9410
16085SOL    HW149932   3.229   8.013   5.763 -0.4731 -0.1402  0.4461
16085SOL    HW249933   3.343   7.916   5.788  0.7260  1.2268  0.3411
16086SOL     OW49934   4.774   7.729   7.298  0.5702  0.0036  0.4479
16086SOL    HW149935   4.728   7.809   7.324 -0.1087 -0.1395 -0.2937
16086SOL    HW249936   4.775   7.732   7.202 -0.2611 -1.3314  0.3879
16087SOL     OW49937   7.288   2.572   7.931 -0.4590  0.9548  0.1848
16087SOL    HW149938   7.261   2.492   7.976  1.2111  1.5193  2.2556
16087SOL    HW249939   7.340   2.541   7.857 -0.4811  0.1087  0.5141
16088SOL     OW49940   3.904   7.380   3.002  0.6575  0.2757  0.3636
16088SOL    HW149941   3.989   7.401   3.039  0.7472  0.0039  0.3099
16088SOL    HW249942   3.923   7.319   2.931  0.3568 -0.2788  0.7618
16089SOL     OW49943   5.477   1.329   7.933  0.1275  0.0582 -0.3258
16089SOL    HW149944   5.392   1.314   7.892 -0.2229  1.3172 -0.0879
16089SOL    HW249945   5.456   1.345   8.025  0.4906  1.6069 -0.4984
16090SOL     OW49946   1.496   0.044   3.868 -0.3674  0.0850 -0.4166
16090SOL    HW149947   1.450  -0.038   3.850 -0.4045  0.4077 -1.8957
16090SOL    HW249948   1.586   0.018   3.884 -0.6416 -0.3607  0.4354
16091SOL     OW49949   3.723   3.907   4.239 -0.5158 -0.5144  0.5365
16091SOL    HW149950   3.805   3.876   4.203 -1.0146  1.0792 -2.1182
16091SOL    HW249951   3.749   3.971   4.306  0.4092 -2.6752  2.2915
16092SOL     OW49952   1.895   0.251   4.755 -0.6476  0.0376  0.2364
16092SOL    HW149953   1.811   0.264   4.710 -0.8578  1.6988  1.0739
16092SOL    HW249954   1.953   0.317   4.716 -0.6341  1.0179  1.8832
16093SOL     OW49955   1.400   4.283   8.845  0.3372  0.7400  0.1564
16093SOL    HW149956   1.386   4.242   8.760  1.2817 -0.1531  0.4207
16093SOL    HW249957   1.361   4.370   8.837 -0.7150  0.1933 -0.7692
16094SOL     OW49958   1.849   1.722   6.419 -0.2856  0.0141 -0.1911
16094SOL    HW149959   1.777   1.659   6.427 -0.9993  0.8514  0.0049
16094SOL    HW249960   1.807   1.808   6.429  0.3606  0.6302 -2.5564
16095SOL     OW49961   2.045   0.442   7.631  0.1281  0.1448 -0.4362
16095SOL    HW149962   1.995   0.415   7.708  0.5851  0.8434  0.1098
16095SOL    HW249963   2.114   0.498   7.665 -0.4006  1.4753 -1.4869
16096SOL     OW49964   7.507   7.926   2.222  0.1774 -0.4620  0.4094
16096SOL    HW149965   7.470   7.971   2.298  0.3820 -0.3060  0.4156
16096SOL    HW249966   7.513   7.834   2.249  0.4176 -0.3780  0.6429
16097SOL     OW49967   5.708   2.486   4.564 -0.2476  0.4908  0.3200
16097SOL    HW149968   5.767   2.414   4.582 -1.3751 -0.5318 -0.0437
16097SOL    HW249969   5.765   2.562   4.552  0.9565 -0.4120  0.3499
16098SOL     OW49970   2.460   2.379   1.050  0.2752 -0.1836  0.7249
16098SOL    HW149971   2.542   2.357   1.007 -0.2434 -1.1196  0.1905
16098SOL    HW249972   2.414   2.295   1.058 -0.6615  0.3440  0.9466
16099SOL     OW49973   2.152   5.357   4.034 -0.1758  0.1689  0.4940
16099SOL    HW149974   2.203   5.367   4.115 -0.0388 -1.0175  0.5518
16099SOL    HW249975   2.207   5.398   3.967 -0.0872  0.7540  0.9193
16100SOL     OW49976   2.547   5.059   8.756 -0.0741  0.0747  0.3072
16100SOL    HW149977   2.467   5.013   8.734 -0.6314  0.5715  1.2574
16100SOL    HW249978   2.544   5.068   8.851  0.4564  1.2899  0.2206
16101SOL     OW49979   1.843   2.471   7.127 -0.3106 -0.0250  0.1262
16101SOL    HW149980   1.787   2.533   7.173  1.2662  0.2305  1.7382
16101SOL    HW249981   1.793   2.389   7.125 -1.1992  0.5104  0.5485
16102SOL     OW49982   8.810   8.886   8.545 -0.2498 -0.3952  0.5394
16102SOL    HW149983   8.838   8.960   8.600 -0.6889  0.5790 -0.5323
16102SOL    HW249984   8.770   8.824   8.607 -1.1399  0.8814  1.2811
16103SOL     OW49985   1.884   4.895   4.853 -0.1993 -0.2731  0.1472
16103SOL    HW149986   1.971   4.862   4.832 -0.6066  0.1238 -2.2424
16103SOL    HW249987   1.825   4.824   4.827 -0.6670 -0.0874  0.6988
16104SOL     OW49988   8.466   4.931   9.016  0.4954  0.3032 -0.0962
16104SOL    HW149989   8.510   4.847   9.004  0.1656  0.2469 -0.9276
16104SOL    HW249990   8.494   4.984   8.941  0.2512  0.7368  0.1178
16105SOL     OW49991   3.553   8.608   9.121 -0.0684 -0.0921 -0.0221
16105SOL    HW149992   3.627   8.643   9.170 -1.6833  2.6559  0.6128
16105SOL    HW249993   3.571   8.515   9.112  1.9696 -0.0368  2.7860
16106SOL     OW49994   1.189   7.494   0.066 -0.1838  0.7114 -0.0931
16106SOL    HW149995   1.093   7.498   0.060 -0.2023  0.6806  0.1666
16106SOL    HW249996   1.212   7.560   0.130  0.0512  1.3865 -0.8657
16107SOL     OW49997   5.222   2.443   4.107  0.1222 -0.0341 -0.2800
16107SOL    HW149998   5.177   2.406   4.183 -1.0313 -0.1784 -1.0179
16107SOL    HW249999   5.164   2.425   4.034  0.3320  1.7810 -0.9145
16108SOL     OW50000   3.186   8.436   3.966 -0.1451  0.0061  0.5486
16108SOL    HW150001   3.205   8.344   3.950 -2.0773 -0.4411  0.7179
16108SOL    HW250002   3.205   8.449   4.059 -1.7743 -0.7407  1.0092
16109SOL     OW50003   8.703   8.530   2.853  0.1101  0.1307  0.3669
16109SOL    HW150004   8.679   8.439   2.870  0.3433  0.0316  0.1736
16109SOL    HW250005   8.619   8.577   2.854 -0.1443 -0.2807 -0.7182
16110SOL     OW50006   0.638   5.895   6.360 -0.1646 -0.1732  0.3481
16110SOL    HW150007   0.585   5.826   6.400 -0.2556  0.3165  1.0712
16110SOL    HW250008   0.725   5.884   6.399  0.0607 -0.4590 -0.2272
16111SOL     OW50009   4.885   8.134   5.506  0.5329 -0.3605  0.7104
16111SOL    HW150010   4.889   8.114   5.599  4.7566  0.5788  0.7899
16111SOL    HW250011   4.859   8.226   5.502  0.0118 -0.4951  0.9154
16112SOL     OW50012   7.275   0.906   1.611  0.2719  0.1856 -0.2875
16112SOL    HW150013   7.267   0.874   1.521  1.0863  0.4040 -0.4422
16112SOL    HW250014   7.282   1.001   1.603  0.2393  0.2148  0.0133
16113SOL     OW50015   4.153   8.553   8.467 -0.5194 -0.0070 -0.2061
16113SOL    HW150016   4.073   8.591   8.503  0.8072  0.7482  2.0445
16113SOL    HW250017   4.144   8.459   8.483 -1.4224 -0.0498 -0.9327
16114SOL     OW50018   5.730   3.975   1.094 -0.7132  0.1791  0.0273
16114SOL    HW150019   5.797   3.993   1.161 -0.0921  0.0832 -0.5590
16114SOL    HW250020   5.743   4.042   1.028  0.3802 -1.2425 -1.2482
16115SOL     OW50021   8.030   2.369   2.746 -0.2757 -0.3593  0.5756
16115SOL    HW150022   7.964   2.425   2.706  0.2358  0.9738  1.5727
16115SOL    HW250023   8.107   2.379   2.690 -1.1972 -2.7684 -1.2263
16116SOL     OW50024   5.529   3.032   6.864  0.2910 -0.4301 -0.1620
16116SOL    HW150025   5.449   3.076   6.892  1.3277  1.7004 -0.5166
16116SOL    HW250026   5.555   3.075   6.783  0.7459 -2.4248 -1.1246
16117SOL     OW50027   2.111   4.017   5.035  0.1862  0.3627 -0.0119
16117SOL    HW150028   2.105   4.072   5.113 -1.2980  2.3141 -1.4491
16117SOL    HW250029   2.023   3.980   5.025  0.9327 -1.5933  0.4194
16118SOL     OW50030   2.473   6.551   5.961 -0.1956  0.4100 -0.5535
16118SOL    HW150031   2.558   6.532   5.923 -0.1835 -0.9959  0.1455
16118SOL    HW250032   2.411   6.539   5.889 -0.1931 -2.3938 -0.1371
16119SOL     OW50033   6.958   2.809   5.353 -0.5588 -0.1125  0.4172
16119SOL    HW150034   7.054   2.804   5.356 -0.4906  1.1936  0.7949
16119SOL    HW250035   6.940   2.888   5.302 -1.4420 -0.2820  0.4572
16120SOL     OW50036   0.608   4.937   9.105  0.0568  0.3110 -0.2039
16120SOL    HW150037   0.588   4.850   9.140 -0.8710  0.4228 -0.4288
16120SOL    HW250038   0.573   4.997   9.172  1.6464  0.5094  0.4618
16121SOL     OW50039   0.955   7.008   8.535 -0.0116 -0.3172  0.1735
16121SOL    HW150040   1.030   6.986   8.591  0.9118 -0.6041 -1.1643
16121SOL    HW250041   0.886   6.948   8.565  0.2669 -0.0195  1.4450
16122SOL     OW50042   5.744   2.921   8.038 -0.1757 -0.1250 -0.3825
16122SOL    HW150043   5.714   2.951   7.953 -1.2297 -1.6030 -0.5586
16122SOL    HW250044   5.832   2.957   8.047  0.0141 -0.1157 -2.1854
16123SOL     OW50045   2.699   3.193   2.338  0.1452 -0.0610  0.1268
16123SOL    HW150046   2.672   3.213   2.248  0.9648  0.7142  0.0416
16123SOL    HW250047   2.741   3.273   2.369  0.2156 -0.4519  1.0702
16124SOL     OW50048   6.267   5.888   4.277 -0.2645 -0.7622 -0.5339
16124SOL    HW150049   6.279   5.937   4.357 -0.6683 -2.5971  0.6934
16124SOL    HW250050   6.351   5.893   4.232  0.1432 -0.2163  0.2792
16125SOL     OW50051   0.788   1.236   4.071  0.1434 -0.4451  0.0343
16125SOL    HW150052   0.746   1.281   4.144  2.2265  1.0666  0.3665
16125SOL    HW250053   0.757   1.282   3.993 -0.7758 -0.9855  0.0714
16126SOL     OW50054   7.214   2.442   2.072 -0.2652  0.6062  0.3230
16126SOL    HW150055   7.296   2.414   2.031  0.0610 -1.0995  2.0435
16126SOL    HW250056   7.193   2.525   2.030  1.7434  0.5006 -0.9610
16127SOL     OW50057   3.142   8.119   7.520  0.5721 -0.5186 -0.2308
16127SOL    HW150058   3.071   8.173   7.555 -0.7396 -1.9770 -0.6001
16127SOL    HW250059   3.132   8.124   7.425  1.3294 -0.2593 -0.2998
16128SOL     OW50060   3.727   4.133   2.776 -0.4488 -0.2472  0.2019
16128SOL    HW150061   3.667   4.200   2.742 -0.6909 -0.4375  0.2501
16128SOL    HW250062   3.788   4.181   2.831  0.0765  0.0972 -0.6741
16129SOL     OW50063   5.619   6.905   5.683 -0.0806 -0.3738  0.2863
16129SOL    HW150064   5.648   6.987   5.644  0.9868 -1.2672 -0.8447
16129SOL    HW250065   5.660   6.903   5.769  1.6472 -0.7088 -0.5262
16130SOL     OW50066   1.432   4.408   6.483 -0.5085 -0.2635 -0.0917
16130SOL    HW150067   1.461   4.317   6.495 -1.3218 -0.5885 -0.5482
16130SOL    HW250068   1.483   4.457   6.547 -0.5960 -1.1530  0.6879
16131SOL     OW50069   1.940   3.128   1.069 -0.3766 -0.1702 -0.8054
16131SOL    HW150070   1.848   3.144   1.087 -0.3568  0.4905 -1.2528
16131SOL    HW250071   1.981   3.214   1.077  0.3930 -0.6552  0.5289
16132SOL     OW50072   2.488   3.144   5.109  0.8678  0.5355 -0.0704
16132SOL    HW150073   2.539   3.162   5.030 -0.5678 -1.6054 -1.5480
16132SOL    HW250074   2.470   3.050   5.105 -0.4388  0.6542  2.0812
16133SOL     OW50075   5.859   7.113   1.665 -0.2446  0.1019 -0.1375
16133SOL    HW150076   5.953   7.129   1.670 -0.2643  0.2274 -0.1810
16133SOL    HW250077   5.829   7.123   1.755  0.0482 -1.5548  0.1707
16134SOL     OW50078   0.434   6.653   4.772 -0.2182  0.2902  0.4687
16134SOL    HW150079   0.455   6.647   4.866 -0.1692 -0.2296  0.4303
16134SOL    HW250080   0.436   6.746   4.753  0.4108  0.3614  0.8441
16135SOL     OW50081   8.590   3.728   3.784  0.4021  0.0511  0.3797
16135SOL    HW150082   8.675   3.684   3.785  0.3119 -0.1194  1.8810
16135SOL    HW250083   8.536   3.673   3.727  1.5415  0.6685 -1.3351
16136SOL     OW50084   4.791   4.258   2.538  0.0428  0.3266 -0.5251
16136SOL    HW150085   4.864   4.199   2.522  0.1259  0.2230  0.2553
16136SOL    HW250086   4.791   4.317   2.462  0.7839  0.1728 -0.6460
16137SOL     OW50087   2.715   2.548   3.596 -0.7373 -0.1907  0.0117
16137SOL    HW150088   2.637   2.575   3.645 -0.3300  0.7536  0.1381
16137SOL    HW250089   2.724   2.613   3.527 -0.0650 -0.3053 -0.0088
16138SOL     OW50090   6.027   6.558   3.435  0.0856  0.6092  0.1009
16138SOL    HW150091   6.120   6.580   3.437 -0.1525  1.6983 -0.8703
16138SOL    HW250092   5.989   6.616   3.369 -1.2296 -0.0488  0.2579
16139SOL     OW50093   6.882   8.083   4.530  0.9345 -0.2393 -0.2923
16139SOL    HW150094   6.866   8.085   4.624  0.2891 -1.5830 -0.3588
16139SOL    HW250095   6.937   8.005   4.516 -0.1523 -0.8652 -1.1843
16140SOL     OW50096   1.661   7.860   6.826  0.0597  0.6018  0.7647
16140SOL    HW150097   1.686   7.944   6.787  0.5135 -0.1679 -0.6340
16140SOL    HW250098   1.712   7.795   6.777 -1.3058 -0.6069  0.9160
16141SOL     OW50099   3.688   8.478   0.178  0.1035 -0.1647 -0.1185
16141SOL    HW150100   3.736   8.560   0.190  0.4811 -0.4736  0.5355
16141SOL    HW250101   3.613   8.502   0.123  0.2011  0.6228  0.0795
16142SOL     OW50102   6.086   4.792   8.806 -0.2327 -0.6025  0.3772
16142SOL    HW150103   6.001   4.764   8.771 -0.4452  1.7900 -1.0762
16142SOL    HW250104   6.151   4.751   8.749 -0.5230  0.9603 -1.1124
16143SOL     OW50105   0.262   8.930   3.552 -0.1149 -0.1028  0.3610
16143SOL    HW150106   0.323   8.970   3.614  0.6280  0.6291 -0.8181
16143SOL    HW250107   0.180   8.921   3.600  0.6420 -0.1597  1.6502
16144SOL     OW50108   3.037   2.871   4.023  0.5337  0.3656 -0.0629
16144SOL    HW150109   2.977   2.803   3.991 -0.8364  0.9503  1.2209
16144SOL    HW250110   2.982   2.948   4.037  1.6439  1.0210  0.8094
16145SOL     OW50111   6.958   0.012   5.718  0.0315  0.8555 -0.1046
16145SOL    HW150112   6.884   0.032   5.775  2.2326  2.6598  2.2082
16145SOL    HW250113   6.923   0.024   5.629 -2.3134  2.1757  0.9542
16146SOL     OW50114   7.490   7.217   0.682 -0.2848  0.3984  0.0102
16146SOL    HW150115   7.551   7.249   0.615 -0.6986 -0.8608 -1.0010
16146SOL    HW250116   7.511   7.124   0.691 -0.1073  0.5957  1.7926
16147SOL     OW50117   1.130   8.072   5.160  0.2182 -0.3884  0.2973
16147SOL    HW150118   1.089   8.016   5.094 -1.3310  0.0542  0.8549
16147SOL    HW250119   1.194   8.016   5.203  1.5110 -0.5701 -1.8260
16148SOL     OW50120   3.535   4.118   6.238  0.3550 -0.1375 -0.0480
16148SOL    HW150121   3.618   4.074   6.219  1.0723  2.2255 -2.6631
16148SOL    HW250122   3.482   4.051   6.281  2.3866 -2.6887 -1.3797
16149SOL     OW50123   8.876   0.272   0.322 -0.1625 -0.1427  0.3471
16149SOL    HW150124   8.829   0.223   0.389 -2.5778  0.5652 -0.7811
16149SOL    HW250125   8.831   0.251   0.240  1.7034  0.3017 -0.8403
16150SOL     OW50126   3.566   2.065   0.851 -0.5044  0.2685  0.1603
16150SOL    HW150127   3.528   2.054   0.764  1.4927  1.1598 -0.8575
16150SOL    HW250128   3.566   2.160   0.866  1.2433  0.2950  0.1346
16151SOL     OW50129   7.449   2.285   8.433 -0.5192  0.1676  0.0613
16151SOL    HW150130   7.441   2.194   8.405 -0.4858 -0.2747  1.4495
16151SOL    HW250131   7.540   2.294   8.460  0.0675  1.2482 -2.2025
16152SOL     OW50132   2.394   1.809   0.278 -0.4193  0.8220 -0.1836
16152SOL    HW150133   2.307   1.849   0.272 -0.7465 -0.0145 -1.1613
16152SOL    HW250134   2.441   1.842   0.202 -0.3933  0.0596 -0.5034
16153SOL     OW50135   8.011   1.626   0.167  0.5327 -0.4098 -0.1685
16153SOL    HW150136   7.936   1.567   0.163 -0.7777  1.0491  1.8043
16153SOL    HW250137   8.069   1.585   0.231  0.6649 -0.7112 -0.4820
16154SOL     OW50138   8.063   7.585   3.542 -0.3178  0.3081 -0.1444
16154SOL    HW150139   8.011   7.504   3.542  0.1796 -0.0104  0.8314
16154SOL    HW250140   8.146   7.560   3.582 -0.2164  1.3483  0.3000
16155SOL     OW50141   0.649   6.864   4.186 -0.0977  0.4179  0.3865
16155SOL    HW150142   0.586   6.813   4.134  0.7866 -1.6163  1.2812
16155SOL    HW250143   0.594   6.918   4.242 -1.0815 -1.0644  0.8952
16156SOL     OW50144   5.484   6.692   3.327 -0.0665  0.2337  0.0966
16156SOL    HW150145   5.421   6.658   3.390 -0.3730  0.9681  0.1958
16156SOL    HW250146   5.551   6.736   3.380 -0.2219  0.6836 -0.0780
16157SOL     OW50147   6.920   6.865   7.218 -0.4852  0.1634 -0.0310
16157SOL    HW150148   6.902   6.793   7.158 -0.8543  0.0243  0.2417
16157SOL    HW250149   6.847   6.862   7.281 -0.6408  0.9390 -0.1709
16158SOL     OW50150   4.886   0.608   8.771  0.1032  0.2033  0.8256
16158SOL    HW150151   4.934   0.649   8.843 -0.3219  0.6661  0.8485
16158SOL    HW250152   4.941   0.620   8.694 -1.1317  3.0519  0.3157
16159SOL     OW50153   8.894   0.130   5.437 -0.2056  0.6168  0.3278
16159SOL    HW150154   8.854   0.043   5.435 -2.5355  1.5778  2.1463
16159SOL    HW250155   8.855   0.176   5.363 -1.4843  1.0951  1.2629
16160SOL     OW50156   7.210   5.588   5.244 -0.5496  0.1550  0.2027
16160SOL    HW150157   7.162   5.524   5.190  0.2572  0.7075 -1.1908
16160SOL    HW250158   7.189   5.564   5.334 -3.3063  0.2533 -0.3658
16161SOL     OW50159   2.869   7.896   4.159  0.2097 -0.4884 -0.4584
16161SOL    HW150160   2.869   7.986   4.191 -0.4344 -0.8314  0.5484
16161SOL    HW250161   2.836   7.901   4.070  1.6000  0.4386 -0.9390
16162SOL     OW50162   2.723   2.278   0.924 -0.3636 -0.2377 -0.0052
16162SOL    HW150163   2.715   2.265   0.829  0.4819 -2.2582  0.1758
16162SOL    HW250164   2.752   2.368   0.933  0.5737 -0.3409 -1.7465
16163SOL     OW50165   7.395   7.045   2.590 -0.1116  0.2576  0.1896
16163SOL    HW150166   7.399   7.124   2.643 -0.7328 -0.1731  0.8930
16163SOL    HW250167   7.461   6.987   2.629 -2.6701 -1.2414  2.4916
16164SOL     OW50168   4.289   7.429   8.951 -0.3642 -0.2550  0.0230
16164SOL    HW150169   4.363   7.429   9.011  0.2113 -0.1577 -0.6751
16164SOL    HW250170   4.214   7.450   9.005  0.2226  0.3099  0.6220
16165SOL     OW50171   4.249   5.545   0.792 -0.3851  0.1929  0.2160
16165SOL    HW150172   4.226   5.628   0.750 -1.3698 -0.6573 -0.9732
16165SOL    HW250173   4.219   5.478   0.731  0.2622 -1.0495  1.2279
16166SOL     OW50174   7.145   2.623   6.057 -0.0615 -0.0957 -0.3608
16166SOL    HW150175   7.177   2.663   5.976 -1.3821  0.3419 -0.6844
16166SOL    HW250176   7.222   2.615   6.112  0.6252  0.8081 -1.1728
16167SOL     OW50177   6.829   1.936   5.212 -0.5971 -0.9398  0.0878
16167SOL    HW150178   6.742   1.939   5.172 -1.5421  0.1338  2.1618
16167SOL    HW250179   6.889   1.950   5.139 -2.1418 -1.8709 -1.4043
16168SOL     OW50180   3.805   8.311   8.464  0.2585 -0.2088 -0.1887
16168SOL    HW150181   3.775   8.222   8.482  2.0934 -1.0529 -1.1728
16168SOL    HW250182   3.899   8.302   8.447  0.3992  1.8600 -0.6768
16169SOL     OW50183   5.735   1.932   8.271 -0.0492 -0.4830 -0.4843
16169SOL    HW150184   5.691   2.013   8.296 -1.8407 -1.7741  0.7530
16169SOL    HW250185   5.663   1.873   8.247  1.1446 -2.0340 -0.2809
16170SOL     OW50186   2.332   6.324   6.734  0.5186  0.1519  0.1630
16170SOL    HW150187   2.328   6.336   6.829  0.8785  1.2059  0.0490
16170SOL    HW250188   2.240   6.331   6.706  0.1185 -2.2926  0.6518
16171SOL     OW50189   1.096   4.024   6.055  0.1499 -0.3203 -0.2580
16171SOL    HW150190   1.136   3.975   5.983 -1.0748  0.3451 -1.4143
16171SOL    HW250191   1.030   3.964   6.090  1.4163 -1.0230  0.9801
16172SOL     OW50192   5.346   8.293   6.234  0.2071 -0.0051 -0.0897
16172SOL    HW150193   5.392   8.211   6.216  0.0576 -0.6794  2.3959
16172SOL    HW250194   5.253   8.268   6.238  0.0734  0.4586 -0.3264
16173SOL     OW50195   1.727   8.313   8.387 -0.3360 -0.1118 -0.0317
16173SOL    HW150196   1.756   8.395   8.348  0.9505 -0.7258 -0.3940
16173SOL    HW250197   1.632   8.315   8.379 -0.3380  1.4270  0.1454
16174SOL     OW50198   5.953   6.190   3.050  0.2298 -0.4828  0.3152
16174SOL    HW150199   5.952   6.114   2.991  2.5110 -0.1625 -0.1877
16174SOL    HW250200   6.046   6.205   3.068 -0.2612  1.4524  1.3884
16175SOL     OW50201   4.077   0.908   5.835  0.0008 -0.3795 -0.2027
16175SOL    HW150202   4.124   0.856   5.771  0.4337 -0.0615 -0.1431
16175SOL    HW250203   4.064   0.849   5.909 -0.0203 -0.5804 -0.3670
16176SOL     OW50204   5.762   5.116   4.508  0.3147  0.1266 -0.1212
16176SOL    HW150205   5.735   5.038   4.460 -0.0124 -0.0488  0.3426
16176SOL    HW250206   5.681   5.151   4.544  0.4769  0.6062 -0.2192
16177SOL     OW50207   0.281   1.466   1.184  0.0640 -0.1272  0.2266
16177SOL    HW150208   0.215   1.481   1.116  1.0674  2.0477 -0.2950
16177SOL    HW250209   0.266   1.375   1.212 -1.4024 -0.5246 -1.7533
16178SOL     OW50210   2.717   6.444   8.145 -0.1746 -0.1709  0.1561
16178SOL    HW150211   2.639   6.389   8.140 -0.3248 -0.0420  0.9733
16178SOL    HW250212   2.721   6.488   8.060 -0.4230 -0.9426 -0.2572
16179SOL     OW50213   6.262   4.876   9.206 -0.1502  0.3596 -0.2821
16179SOL    HW150214   6.251   4.783   9.223 -1.0629  0.2649 -1.3577
16179SOL    HW250215   6.231   4.919   9.285  0.8701 -0.2610  0.4717
16180SOL     OW50216   8.845   5.499   7.938  0.0731  0.2692 -0.0989
16180SOL    HW150217   8.879   5.441   8.006  1.2138  2.0573  0.8706
16180SOL    HW250218   8.858   5.450   7.857 -0.3177 -1.4355  0.8474
16181SOL     OW50219   8.919   9.190   2.527 -0.1032  0.7664 -0.0385
16181SOL    HW150220   8.907   9.206   2.433 -0.2805 -2.9381 -0.7195
16181SOL    HW250221   8.916   9.277   2.567 -1.6826  2.2788 -3.2761
16182SOL     OW50222   0.897   5.513   5.956 -0.2198  0.0161 -0.2031
16182SOL    HW150223   0.948   5.584   5.995 -1.1710  0.0272  1.0639
16182SOL    HW250224   0.933   5.433   5.995  0.3533 -0.1646 -1.0681
16183SOL     OW50225   4.510   7.086   0.876  0.4334  0.1128 -0.1697
16183SOL    HW150226   4.518   7.100   0.971  0.0179 -0.1918 -0.0910
16183SOL    HW250227   4.527   6.993   0.864  0.1826  0.0922 -0.3630
16184SOL     OW50228   3.469   6.410   6.101 -0.2381  0.2852 -0.2058
16184SOL    HW150229   3.417   6.353   6.045 -0.3862  0.2226 -0.0025
16184SOL    HW250230   3.522   6.461   6.040  0.4104 -0.5693 -0.3502
16185SOL     OW50231   7.442   0.975   5.658  0.1303  0.7757 -0.0330
16185SOL    HW150232   7.388   1.050   5.636  0.5651  1.1032  0.0223
16185SOL    HW250233   7.524   0.988   5.609 -0.1526 -0.1293 -0.7553
16186SOL     OW50234   6.379   6.690   0.665 -0.0963 -0.1372 -0.4604
16186SOL    HW150235   6.319   6.712   0.594 -0.0500 -2.2472 -1.1619
16186SOL    HW250236   6.460   6.665   0.622  0.3221 -0.2673  0.3897
16187SOL     OW50237   5.579   4.689   2.049  0.5398 -0.2297  0.1117
16187SOL    HW150238   5.611   4.708   2.137 -0.2429 -1.9155  0.7856
16187SOL    HW250239   5.651   4.712   1.991  0.9751  1.1126  1.1790
16188SOL     OW50240   2.460   3.683   0.177 -0.3425 -0.4658 -0.5029
16188SOL    HW150241   2.366   3.682   0.197 -0.3212  1.3408 -0.2744
16188SOL    HW250242   2.465   3.644   0.089 -1.3522 -0.2064 -0.6873
16189SOL     OW50243   1.204   3.561   2.165 -0.3518  0.8175 -0.3793
16189SOL    HW150244   1.255   3.605   2.233  0.2855  0.0360 -0.3462
16189SOL    HW250245   1.268   3.508   2.117 -1.1226 -0.1449 -0.3649
16190SOL     OW50246   2.733   6.411   6.278 -0.1493  0.3229  0.1155
16190SOL    HW150247   2.674   6.487   6.277  2.3438  2.2909 -0.3051
16190SOL    HW250248   2.731   6.378   6.188  0.2045  1.0121 -0.1417
16191SOL     OW50249   1.373   5.936   8.679 -0.0707 -0.0043 -0.6842
16191SOL    HW150250   1.318   5.969   8.750 -1.7141  2.5232 -3.0233
16191SOL    HW250251   1.446   5.998   8.674 -0.3962  0.3113 -1.7072
16192SOL     OW50252   7.242   0.185   8.321  0.4965 -0.1661  0.1760
16192SOL    HW150253   7.321   0.167   8.268  0.2642 -0.4535 -0.0748
16192SOL    HW250254   7.169   0.162   8.263  0.2649 -2.2833  1.2806
16193SOL     OW50255   4.229   4.764   2.106 -0.2980  0.1408  0.1108
16193SOL    HW150256   4.140   4.732   2.119 -0.4968  0.6996  0.1194
16193SOL    HW250257   4.263   4.712   2.033 -0.3942 -0.5516  0.5515
16194SOL     OW50258   6.996   1.471   7.897  0.1567  0.9410 -0.6002
16194SOL    HW150259   7.065   1.507   7.952 -0.0087  0.9832 -0.4173
16194SOL    HW250260   6.929   1.443   7.959  0.4313 -0.0015 -0.7203
16195SOL     OW50261   7.976   8.949   0.064 -0.4030  0.1187  0.3462
16195SOL    HW150262   7.916   8.901   0.007  0.4613  0.3883 -0.8259
16195SOL    HW250263   8.051   8.970   0.007 -1.3977  4.1417  0.3766
16196SOL     OW50264   5.504   2.894   0.289  0.2976 -0.7571 -0.2761
16196SOL    HW150265   5.510   2.884   0.194 -1.6262  1.0621 -0.6363
16196SOL    HW250266   5.446   2.823   0.317 -1.7384  0.5882 -0.9281
16197SOL     OW50267   2.236   5.645   0.072  0.9218  0.3346 -0.2986
16197SOL    HW150268   2.183   5.618   0.147 -1.9861  1.9381 -1.6883
16197SOL    HW250269   2.285   5.720   0.103  0.6200  0.2622  0.3585
16198SOL     OW50270   1.837   9.024   8.899 -0.3960  0.5914  0.2670
16198SOL    HW150271   1.867   9.112   8.880 -0.3673  1.0050  2.1770
16198SOL    HW250272   1.742   9.031   8.903 -0.3741  0.6166  0.7863
16199SOL     OW50273   0.939   1.325   1.702 -0.3235 -0.0906  0.4546
16199SOL    HW150274   0.882   1.397   1.675  0.5613  0.2803 -0.4532
16199SOL    HW250275   0.880   1.262   1.744 -1.3894  0.3016 -0.4312
16200SOL     OW50276   0.470   1.555   5.801 -0.4498 -0.0100  0.4154
16200SOL    HW150277   0.461   1.527   5.892  0.4845  0.4387  0.6487
16200SOL    HW250278   0.522   1.486   5.760  0.1844  0.3920  0.5260
16201SOL     OW50279   1.190   0.668   0.546 -0.0691  0.0958 -0.1203
16201SOL    HW150280   1.227   0.705   0.625 -0.5906  0.4068 -0.0235
16201SOL    HW250281   1.128   0.602   0.577  2.2436 -2.2558 -0.2906
16202SOL     OW50282   0.743   1.504   7.745 -0.0856 -0.9028 -0.3885
16202SOL    HW150283   0.836   1.499   7.725  0.3648  0.0682  1.3337
16202SOL    HW250284   0.699   1.497   7.661  1.6336  1.1825 -1.5039
16203SOL     OW50285   2.202   1.559   7.449  0.6148 -0.5089  0.6053
16203SOL    HW150286   2.245   1.588   7.369  0.8209 -1.0221  0.5305
16203SOL    HW250287   2.211   1.632   7.510  1.3571 -0.5182  0.5046
16204SOL     OW50288   1.198   3.286   5.362 -0.6769  0.3413  0.1362
16204SOL    HW150289   1.104   3.284   5.379 -0.6101 -2.7517  0.3366
16204SOL    HW250290   1.238   3.277   5.448 -0.1996  0.5568 -0.0619
16205SOL     OW50291   8.375   2.144   4.275 -0.3225 -0.4981 -0.7408
16205SOL    HW150292   8.446   2.208   4.286  0.0872 -1.2741  1.4752
16205SOL    HW250293   8.409   2.065   4.317 -1.7367 -1.4736 -1.4251
16206SOL     OW50294   0.426   0.261   6.020  0.0722  0.6929  0.3730
16206SOL    HW150295   0.433   0.326   5.951  0.1149 -0.4227 -0.6816
16206SOL    HW250296   0.332   0.247   6.031  0.1142 -1.0725 -1.3182
16207SOL     OW50297   5.772   4.837   1.279  0.2225 -0.0594  0.2238
16207SOL    HW150298   5.722   4.886   1.345  1.8000 -0.7511  1.9754
16207SOL    HW250299   5.709   4.775   1.242 -0.9755  1.1239  0.2325
16208SOL     OW50300   1.065   3.691   7.369  0.4802  0.2613  0.2327
16208SOL    HW150301   1.140   3.647   7.328  0.0024  0.3016 -0.6943
16208SOL    HW250302   1.080   3.681   7.463  0.2821 -2.0484  0.0442
16209SOL     OW50303   0.237   9.067   6.857  0.0622 -0.4149 -0.3116
16209SOL    HW150304   0.325   9.104   6.870 -0.5493  1.3196 -1.1080
16209SOL    HW250305   0.197   9.070   6.944  0.0834  0.6547 -0.3304
16210SOL     OW50306   6.183   8.347   1.468  0.2166  0.6248  0.3532
16210SOL    HW150307   6.240   8.423   1.459  1.2192 -0.2017 -0.4043
16210SOL    HW250308   6.124   8.351   1.393  0.8190  0.1922 -0.1395
16211SOL     OW50309   3.483   0.462   2.843  0.2927  0.1804 -0.0580
16211SOL    HW150310   3.415   0.425   2.786  0.0436 -1.0847  1.0491
16211SOL    HW250311   3.471   0.556   2.836 -1.5728 -0.0306  0.1097
16212SOL     OW50312   3.988   8.420   8.112 -0.6338 -0.8386 -0.2502
16212SOL    HW150313   4.049   8.493   8.117 -0.8033 -0.8075  1.6337
16212SOL    HW250314   3.904   8.456   8.141 -1.2343 -1.2329 -1.4516
16213SOL     OW50315   1.242   1.371   3.096 -0.4667 -0.2987 -0.2673
16213SOL    HW150316   1.184   1.441   3.065 -0.6391  0.0342  0.7678
16213SOL    HW250317   1.281   1.335   3.017  0.3586  1.6090 -0.7478
16214SOL     OW50318   4.725   8.098   3.756  0.4931  0.1284 -0.0293
16214SOL    HW150319   4.670   8.173   3.779 -0.4937 -1.1288  1.9128
16214SOL    HW250320   4.777   8.082   3.834  0.7622 -1.1386 -0.4593
16215SOL     OW50321   1.786   2.930   3.197 -0.3139 -0.3024  0.0899
16215SOL    HW150322   1.813   2.839   3.207 -0.6592 -0.4071  0.0882
16215SOL    HW250323   1.737   2.931   3.115  3.2527  0.7296 -2.0918
16216SOL     OW50324   1.429   0.921   5.123 -0.0028 -0.0542  0.2608
16216SOL    HW150325   1.372   0.866   5.069  0.4509  0.5785 -0.8790
16216SOL    HW250326   1.369   0.970   5.179 -0.5101 -0.3295 -0.0334
16217SOL     OW50327   8.666   3.484   7.269  0.3928 -0.0761 -0.2758
16217SOL    HW150328   8.705   3.463   7.354  0.4763  0.2688 -0.2278
16217SOL    HW250329   8.731   3.540   7.227  0.2433 -0.0515 -0.4700
16218SOL     OW50330   0.632   3.280   8.550  0.1511  0.1845  0.2019
16218SOL    HW150331   0.580   3.241   8.479  0.1420 -0.5920  0.6275
16218SOL    HW250332   0.712   3.228   8.551  0.1405  0.1784  0.7717
16219SOL     OW50333   1.118   7.872   4.981 -0.2642  0.5275 -0.0790
16219SOL    HW150334   1.107   7.779   5.000 -2.6653  0.8607  0.2467
16219SOL    HW250335   1.209   7.880   4.951  0.1063 -1.8257  0.3816
16220SOL     OW50336   7.312   8.664   4.879 -0.3126  0.2676  0.7478
16220SOL    HW150337   7.367   8.636   4.805  1.1929 -2.3503  2.7648
16220SOL    HW250338   7.371   8.717   4.933 -1.0608  1.1834  0.6662
16221SOL     OW50339   5.276   5.132   8.112  0.7195  0.0400 -0.3034
16221SOL    HW150340   5.353   5.181   8.082  0.3062  1.1346  0.4071
16221SOL    HW250341   5.210   5.149   8.045 -0.0200  2.0084  0.9167
16222SOL     OW50342   4.085   1.384   3.024 -0.5187  0.7221  0.2008
16222SOL    HW150343   4.116   1.471   3.001 -2.2475  1.0915 -0.8433
16222SOL    HW250344   4.140   1.357   3.097  1.3381  1.8718 -0.7381
16223SOL     OW50345   7.200   1.983   0.926 -0.5990  0.0044  0.5179
16223SOL    HW150346   7.162   1.941   0.849  0.2258 -0.2777  0.2618
16223SOL    HW250347   7.196   1.916   0.994  1.4273 -0.7632 -0.1004
16224SOL     OW50348   3.237   3.473   7.034 -0.9483 -0.2563 -0.5623
16224SOL    HW150349   3.303   3.406   7.051  0.6752  1.4645  0.0577
16224SOL    HW250350   3.156   3.424   7.020  0.4058 -2.3885 -1.1174
16225SOL     OW50351   2.686   7.018   6.040 -0.0082 -0.1999  0.0423
16225SOL    HW150352   2.602   7.022   6.086 -0.8515 -0.5659 -1.4583
16225SOL    HW250353   2.723   7.106   6.049 -0.9702  0.2208 -0.0757
16226SOL     OW50354   0.101   8.881   7.953 -0.8127  0.2863 -0.5265
16226SOL    HW150355   0.094   8.976   7.945 -1.8897  0.1559 -1.3955
16226SOL    HW250356   0.097   8.864   8.047  0.3377  1.1565 -0.3118
16227SOL     OW50357   1.107   5.879   4.922  0.0144  0.0744  0.7367
16227SOL    HW150358   1.141   5.897   4.835  0.0447  0.4719  0.8328
16227SOL    HW250359   1.149   5.943   4.979 -0.5260  0.2623  0.9329
16228SOL     OW50360   2.837   3.298   7.483 -0.5694 -0.0344 -0.9765
16228SOL    HW150361   2.842   3.323   7.575 -0.8147 -0.7975 -0.7452
16228SOL    HW250362   2.744   3.280   7.468 -0.5427  0.1757 -1.3928
16229SOL     OW50363   5.251   6.649   4.549 -0.0880 -0.4191 -0.0657
16229SOL    HW150364   5.311   6.709   4.504  0.3362 -0.0178  1.0038
16229SOL    HW250365   5.204   6.705   4.611 -1.7598 -0.6974 -1.0701
16230SOL     OW50366   8.806   6.668   0.225  0.5865 -0.1435  0.1147
16230SOL    HW150367   8.750   6.609   0.174  1.7038 -0.1619 -1.1104
16230SOL    HW250368   8.874   6.695   0.163  1.1049  1.0159  1.1856
16231SOL     OW50369   3.982   6.074   4.718 -0.3343  0.4009 -0.3744
16231SOL    HW150370   3.952   6.001   4.774  1.8551 -0.9320 -0.8839
16231SOL    HW250371   4.055   6.037   4.668  0.1458  2.6805 -1.4010
16232SOL     OW50372   4.069   3.964   6.945  0.5390 -0.4278  0.2447
16232SOL    HW150373   4.007   3.927   7.008 -1.7505  1.5761 -0.7262
16232SOL    HW250374   4.055   4.058   6.950 -0.2547 -0.2480 -3.7503
16233SOL     OW50375   4.731   7.263   1.712  0.0460  0.1160 -0.0169
16233SOL    HW150376   4.727   7.212   1.632 -2.1445 -0.9622  0.7194
16233SOL    HW250377   4.730   7.354   1.683 -0.4023 -0.2620 -1.2261
16234SOL     OW50378   2.930   2.922   9.275  0.0070 -0.0172 -0.2875
16234SOL    HW150379   2.940   2.847   9.217 -0.8077 -0.2829 -0.0940
16234SOL    HW250380   2.897   2.992   9.218  0.1072 -0.0061 -0.3315
16235SOL     OW50381   1.948   8.199   6.271  0.5776  0.2983  0.1327
16235SOL    HW150382   1.853   8.191   6.272  0.7129 -1.6304  0.9477
16235SOL    HW250383   1.965   8.288   6.242 -1.4524  0.2532 -1.2807
16236SOL     OW50384   2.730   5.836   1.397 -0.3214 -0.0100 -0.1360
16236SOL    HW150385   2.781   5.821   1.318  0.1049 -1.6555  0.4247
16236SOL    HW250386   2.729   5.931   1.408 -0.1243  0.2116 -1.9375
16237SOL     OW50387   6.128   3.075   5.727  0.1425 -0.3798 -0.1982
16237SOL    HW150388   6.122   2.999   5.784 -1.9073  0.7094  1.1259
16237SOL    HW250389   6.039   3.111   5.726  0.7555  1.1838 -1.9264
16238SOL     OW50390   8.108   0.770   1.091  0.1808  0.0108 -0.1275
16238SOL    HW150391   8.199   0.741   1.090 -0.2192 -1.2557 -0.4051
16238SOL    HW250392   8.072   0.731   1.170 -0.3283 -0.1414 -0.4347
16239SOL     OW50393   3.263   2.599   3.434  0.4372  0.0923 -0.2979
16239SOL    HW150394   3.356   2.605   3.412  0.4734  0.1350 -0.1275
16239SOL    HW250395   3.224   2.555   3.358  0.4918  0.6540 -0.6530
16240SOL     OW50396   4.881   8.491   6.052 -0.2190  0.9997  0.5259
16240SOL    HW150397   4.811   8.529   5.999 -0.8837  0.8472  1.2886
16240SOL    HW250398   4.836   8.446   6.123  0.6552  0.9668  1.0657
16241SOL     OW50399   8.032   3.183   0.641 -0.5367 -0.0698 -0.0049
16241SOL    HW150400   8.123   3.192   0.614 -1.4012  1.3813 -2.5128
16241SOL    HW250401   8.011   3.265   0.684 -0.8789 -0.1426 -0.0336
16242SOL     OW50402   2.316   2.213   0.224  0.5153 -0.6473  0.1420
16242SOL    HW150403   2.249   2.174   0.168  0.0967  1.9750 -1.2723
16242SOL    HW250404   2.375   2.258   0.163  0.0139  2.3556  1.7839
16243SOL     OW50405   8.976   0.086   8.644  0.1438 -0.0312 -1.1668
16243SOL    HW150406   9.021   0.109   8.725  1.8648 -1.7972 -1.5971
16243SOL    HW250407   8.966   0.169   8.598 -1.8796  1.1830  1.3133
16244SOL     OW50408   8.210   5.683   3.381  0.1933  0.1773  0.3371
16244SOL    HW150409   8.268   5.755   3.355 -1.2737  1.1710 -0.2862
16244SOL    HW250410   8.188   5.640   3.298 -1.8825  1.3256  0.2538
16245SOL     OW50411   6.960   2.039   0.004  0.1113 -0.6843  0.2641
16245SOL    HW150412   6.934   2.007  -0.082  0.7469  1.0205 -0.5778
16245SOL    HW250413   6.889   2.098   0.030  0.5300 -0.2102  0.3403
16246SOL     OW50414   5.555   2.597   0.547 -0.2636  0.0366  0.2322
16246SOL    HW150415   5.609   2.660   0.594  1.8060 -1.3190 -0.2547
16246SOL    HW250416   5.616   2.528   0.520 -1.5873  0.1841 -3.4118
16247SOL     OW50417   4.507   5.339   5.463  0.0175  0.3869 -0.1983
16247SOL    HW150418   4.434   5.392   5.493 -1.2997 -1.0515 -0.8401
16247SOL    HW250419   4.577   5.402   5.446 -1.2459  1.8188 -0.1359
16248SOL     OW50420   6.691   1.176   8.769  0.7567 -0.3905 -0.5054
16248SOL    HW150421   6.614   1.177   8.826  0.0989  0.6566 -1.3952
16248SOL    HW250422   6.688   1.091   8.726 -0.7221  0.2120 -1.6246
16249SOL     OW50423   0.676   5.322   9.006  0.3805 -0.2906  0.5061
16249SOL    HW150424   0.728   5.393   9.043 -1.4060  0.4159  1.7016
16249SOL    HW250425   0.672   5.256   9.076 -0.4600 -0.2695  0.4860
16250SOL     OW50426   8.366   2.443   6.929 -0.2681  0.1296 -0.0866
16250SOL    HW150427   8.392   2.432   7.021  0.1057  0.8035 -0.1093
16250SOL    HW250428   8.443   2.481   6.887 -0.5699  0.1726 -0.6015
16251SOL     OW50429   1.380   9.129   8.577 -0.2762  0.1533 -0.1344
16251SOL    HW150430   1.437   9.205   8.584  0.1798 -0.0592 -1.3658
16251SOL    HW250431   1.439   9.055   8.561 -0.6886 -0.5109  1.3184
16252SOL     OW50432   3.783   7.318   6.864  0.3586  0.2703 -0.1768
16252SOL    HW150433   3.795   7.412   6.850  1.3331 -0.2301 -3.1184
16252SOL    HW250434   3.694   7.310   6.897 -0.1410  2.1504 -0.9822
16253SOL     OW50435   2.947   3.946   6.639 -0.7288  0.2344  0.3186
16253SOL    HW150436   3.035   3.908   6.642  0.0369  2.1005  2.1290
16253SOL    HW250437   2.897   3.895   6.703 -0.2537  0.8858  1.2181
16254SOL     OW50438   0.964   7.463   9.106  1.0305  0.3509  0.2193
16254SOL    HW150439   0.876   7.437   9.081  0.8611  0.6193  0.5416
16254SOL    HW250440   0.958   7.486   9.199  0.8240  3.1030 -0.4462
16255SOL     OW50441   2.443   7.062   6.492 -0.0831 -0.1395 -0.3417
16255SOL    HW150442   2.481   7.119   6.425 -0.4746 -0.7883 -1.1269
16255SOL    HW250443   2.497   6.982   6.488 -0.1103 -0.1779  0.1099
16256SOL     OW50444   5.039   4.921   1.875  0.6864 -0.4755 -0.0134
16256SOL    HW150445   4.944   4.928   1.880  0.7880 -0.3822  1.8303
16256SOL    HW250446   5.061   4.853   1.939  1.9522  0.2085  0.2788
16257SOL     OW50447   0.015   6.269   8.107 -0.0230  0.0187  0.0681
16257SOL    HW150448   0.057   6.201   8.054  0.0823  0.4017 -0.3474
16257SOL    HW250449  -0.002   6.227   8.191  1.8294  0.0537  0.4890
16258SOL     OW50450   6.934   4.038   8.715 -0.9205 -0.1898  0.1695
16258SOL    HW150451   6.926   4.093   8.637  0.4532 -3.1098 -2.1523
16258SOL    HW250452   6.961   4.098   8.784 -3.3858  2.6896 -1.2871
16259SOL     OW50453   1.007   5.534   1.303 -0.2548  0.6591  0.4263
16259SOL    HW150454   1.023   5.441   1.288 -0.0655  0.6972  0.3810
16259SOL    HW250455   0.977   5.539   1.394  2.4708  0.8481  1.3810
16260SOL     OW50456   1.200   7.404   1.763  0.0155 -0.3095 -0.7406
16260SOL    HW150457   1.113   7.384   1.796 -0.3123  1.5577 -0.3884
16260SOL    HW250458   1.260   7.353   1.817 -0.7663 -0.2850  0.1418
16261SOL     OW50459   2.336   5.479   5.960 -0.1275 -0.5000  0.6847
16261SOL    HW150460   2.388   5.401   5.940 -0.4306 -0.5842  0.2187
16261SOL    HW250461   2.331   5.481   6.056 -1.0039 -1.6495  0.6746
16262SOL     OW50462   6.144   0.334   2.552  0.0047 -0.4236  0.0357
16262SOL    HW150463   6.227   0.357   2.593 -0.6503  0.4691  0.8911
16262SOL    HW250464   6.148   0.239   2.541  0.5137 -0.5768  1.4717
16263SOL     OW50465   7.330   4.092   7.286  0.2519  0.2837  0.7571
16263SOL    HW150466   7.235   4.096   7.295  0.3265 -1.8347  2.9036
16263SOL    HW250467   7.346   4.112   7.194 -2.5251 -2.5905 -0.4399
16264SOL     OW50468   2.913   7.988   1.048  0.0132  0.3483  0.1244
16264SOL    HW150469   2.855   8.024   0.982  0.2089 -0.4940 -0.5161
16264SOL    HW250470   2.866   7.912   1.083 -0.0295  0.7030  0.8558
16265SOL     OW50471   9.026   0.028   3.583  0.1359 -0.2436 -0.1361
16265SOL    HW150472   9.017  -0.026   3.662 -0.8432 -1.7900 -1.2779
16265SOL    HW250473   8.976  -0.019   3.516 -0.5891  2.0043 -1.2101
16266SOL     OW50474   0.656   1.830   7.255 -0.4355 -0.3847  0.1060
16266SOL    HW150475   0.637   1.921   7.279 -1.2609 -1.2819  3.0264
16266SOL    HW250476   0.741   1.811   7.294 -0.3130 -0.9152 -0.4053
16267SOL     OW50477   6.156   2.017   6.850 -0.5904  0.2769  0.2007
16267SOL    HW150478   6.226   2.010   6.785 -0.8175 -1.0896  0.0963
16267SOL    HW250479   6.106   1.936   6.842 -0.8758  0.2665  1.7821
16268SOL     OW50480   7.476   8.896   3.746 -1.2074  0.0662  0.5157
16268SOL    HW150481   7.472   8.834   3.819  0.0629  1.1961  1.5838
16268SOL    HW250482   7.414   8.964   3.769 -3.0158 -1.0375 -0.9266
16269SOL     OW50483   3.150   9.126   1.936  0.2259  0.3185 -0.1269
16269SOL    HW150484   3.152   9.083   1.850  3.0709  0.4247 -0.1541
16269SOL    HW250485   3.062   9.162   1.943  0.0318  0.5188 -3.1085
16270SOL     OW50486   9.109   2.659   5.852  0.1196  0.3329 -0.2433
16270SOL    HW150487   9.197   2.671   5.817  0.7223  1.1797  1.5206
16270SOL    HW250488   9.054   2.720   5.802  0.0265 -1.9633 -3.0695
16271SOL     OW50489   5.886   8.857   3.453  0.1768  0.0252  0.4295
16271SOL    HW150490   5.884   8.779   3.508 -0.5629  0.2532  0.7329
16271SOL    HW250491   5.865   8.824   3.365  0.1310 -0.1597  0.5092
16272SOL     OW50492   2.849   1.515   8.308 -0.2996  0.0943 -0.1068
16272SOL    HW150493   2.863   1.535   8.401  0.9191  0.5995 -0.3948
16272SOL    HW250494   2.773   1.568   8.284 -0.6058 -0.0158  0.5819
16273SOL     OW50495   1.372   0.575   3.986  0.3563 -0.3481 -0.2078
16273SOL    HW150496   1.427   0.510   4.032  0.0566 -0.5235 -0.0943
16273SOL    HW250497   1.422   0.598   3.908  1.4626  0.9088  0.8601
16274SOL     OW50498   8.779   5.380   2.663 -0.1284  0.1840 -0.1314
16274SOL    HW150499   8.816   5.310   2.610  0.1631 -0.0884  0.4311
16274SOL    HW250500   8.815   5.460   2.626 -0.5011  0.0414 -0.8071
16275SOL     OW50501   5.389   8.771   5.515 -0.2063 -0.0597 -0.1897
16275SOL    HW150502   5.441   8.842   5.554  0.9615 -1.5813  1.1151
16275SOL    HW250503   5.356   8.723   5.591  1.3654 -2.5636 -1.0578
16276SOL     OW50504   8.651   9.160   7.590  0.0659 -0.0661  0.1452
16276SOL    HW150505   8.581   9.162   7.526 -0.4484 -0.8210  0.6711
16276SOL    HW250506   8.729   9.136   7.540 -0.1788  0.1548 -0.3344
16277SOL     OW50507   5.752   2.614   9.015 -0.2399  0.5677 -0.1572
16277SOL    HW150508   5.847   2.602   9.012 -0.2086  0.5225  0.8313
16277SOL    HW250509   5.719   2.533   9.053 -0.7826  0.1067 -1.5942
16278SOL     OW50510   0.406   3.034   8.881 -0.5624  0.1199  0.2155
16278SOL    HW150511   0.469   3.102   8.857 -0.0921 -0.1987  0.5288
16278SOL    HW250512   0.429   2.960   8.824 -2.1986  0.8018 -1.3791
16279SOL     OW50513   4.110   2.804   0.118  0.4296 -0.0906  0.7007
16279SOL    HW150514   4.041   2.738   0.121  0.6596 -0.3392  0.5024
16279SOL    HW250515   4.065   2.886   0.138  0.1963 -0.3468  1.2540
16280SOL     OW50516   4.581   8.049   1.517  0.2992  0.2106  0.3749
16280SOL    HW150517   4.636   8.116   1.479 -0.6385  0.1633 -1.1117
16280SOL    HW250518   4.560   8.081   1.605  0.3553  1.5657 -0.1050
16281SOL     OW50519   1.513   0.751   5.349  0.7115  0.5942  0.2816
16281SOL    HW150520   1.458   0.829   5.359  0.4619  0.3157  1.0801
16281SOL    HW250521   1.485   0.712   5.266  1.9491  2.2337 -0.9619
16282SOL     OW50522   4.164   4.659   3.168  0.3544 -0.8126  0.2606
16282SOL    HW150523   4.256   4.648   3.145  0.1954 -1.0522 -0.2702
16282SOL    HW250524   4.165   4.708   3.250  0.9490 -0.6653  0.1644
16283SOL     OW50525   6.373   6.998   4.551 -0.1125 -0.0955  0.1060
16283SOL    HW150526   6.372   6.903   4.554  0.7989 -0.0888  0.9640
16283SOL    HW250527   6.289   7.025   4.589 -1.1688 -0.5753 -1.8452
16284SOL     OW50528   8.050   0.356   5.075  0.3854 -0.0815 -0.0574
16284SOL    HW150529   8.116   0.374   5.008  1.5772 -1.1825  0.8071
16284SOL    HW250530   8.066   0.266   5.102 -2.9601 -1.1404 -1.4621
16285SOL     OW50531   6.104   7.564   9.059  0.0473  0.1939 -0.1563
16285SOL    HW150532   6.034   7.576   9.123  0.3661  0.9253  0.0635
16285SOL    HW250533   6.182   7.599   9.101  0.3389  0.3137 -0.7883
16286SOL     OW50534   6.309   3.686   8.385 -0.0669  0.2878  0.1824
16286SOL    HW150535   6.274   3.750   8.448  0.1304  0.7670 -0.1963
16286SOL    HW250536   6.355   3.739   8.321 -0.0342 -0.2304 -0.2178
16287SOL     OW50537   3.584   0.974   6.445  0.0247 -0.2548  0.8193
16287SOL    HW150538   3.664   1.025   6.456  0.4331 -1.0573  1.6163
16287SOL    HW250539   3.614   0.888   6.416 -0.7505  0.3680 -1.9894
16288SOL     OW50540   0.960   1.845   4.834  0.4394 -0.9440 -0.4298
16288SOL    HW150541   0.875   1.807   4.856  0.5238 -1.8874 -1.7013
16288SOL    HW250542   1.017   1.819   4.907 -0.4754  0.1713  0.7137
16289SOL     OW50543   5.313   4.730   3.929  0.2919  0.7341  0.1842
16289SOL    HW150544   5.253   4.751   3.858 -0.1858 -0.8500  0.1108
16289SOL    HW250545   5.387   4.688   3.887 -1.0275 -2.3292  0.8260
16290SOL     OW50546   1.962   3.184   2.602 -0.1331 -0.4720  0.4669
16290SOL    HW150547   1.932   3.111   2.548 -0.3840 -0.4054  0.5164
16290SOL    HW250548   1.892   3.249   2.597 -0.3553 -0.6409  1.2109
16291SOL     OW50549   4.260   4.714   4.139  0.0922 -0.1141 -0.0953
16291SOL    HW150550   4.263   4.805   4.168 -1.1207 -0.6449  1.7639
16291SOL    HW250551   4.314   4.667   4.203 -0.4757 -0.9095 -0.1962
16292SOL     OW50552   5.602   1.615   8.296  0.2539 -0.4802 -0.6299
16292SOL    HW150553   5.594   1.566   8.378  1.0411 -1.4879 -1.1331
16292SOL    HW250554   5.512   1.624   8.264  0.0582 -1.1702 -0.2812
16293SOL     OW50555   0.772   0.892   5.835  0.2395 -0.2382 -0.0819
16293SOL    HW150556   0.763   0.931   5.922  1.1706  0.9119 -0.5007
16293SOL    HW250557   0.691   0.841   5.824 -0.4309  0.5624  0.9713
16294SOL     OW50558   8.921   0.993   0.528  0.0967 -0.6226 -0.0294
16294SOL    HW150559   8.894   1.060   0.591 -0.6735  0.2470 -1.2660
16294SOL    HW250560   8.857   0.922   0.540 -0.5216 -0.1227 -0.3909
16295SOL     OW50561   7.474   3.174   6.570 -0.1287 -0.7421 -0.3506
16295SOL    HW150562   7.453   3.249   6.515 -1.6869 -1.4243 -0.7037
16295SOL    HW250563   7.567   3.160   6.557 -0.0506  0.4365 -1.1452
16296SOL     OW50564   6.283   0.097   4.783  0.0650  0.5751  0.3381
16296SOL    HW150565   6.260   0.016   4.737 -0.1957  0.0222  1.4248
16296SOL    HW250566   6.371   0.081   4.816 -0.8302 -0.1760  2.5002
16297SOL     OW50567   3.959   0.575   5.525  0.4335 -0.2981  0.5900
16297SOL    HW150568   3.936   0.638   5.456 -0.2617 -1.6423 -0.4159
16297SOL    HW250569   4.010   0.508   5.480  1.6859 -0.1696  1.7826
16298SOL     OW50570   0.680   9.019   1.528 -0.1675  0.1599  0.2828
16298SOL    HW150571   0.757   8.975   1.494  0.1098  1.4897 -0.8563
16298SOL    HW250572   0.680   8.999   1.622  1.2011 -0.3639  0.1824
16299SOL     OW50573   5.142   2.653   5.537  0.0424 -0.0765 -0.1517
16299SOL    HW150574   5.167   2.588   5.604  0.7953  0.6364  0.2590
16299SOL    HW250575   5.076   2.707   5.580  0.0645 -0.0148 -0.1955
16300SOL     OW50576   2.937   5.539   9.061  0.7230 -0.4474  0.4377
16300SOL    HW150577   3.011   5.478   9.058  0.8222 -0.3055 -0.0287
16300SOL    HW250578   2.865   5.488   9.099  0.8964 -0.7586  0.3447
16301SOL     OW50579   0.678   6.138   2.434  0.3533  0.2663 -0.4170
16301SOL    HW150580   0.624   6.187   2.372  0.4290  1.4051  0.3993
16301SOL    HW250581   0.724   6.074   2.381 -0.3000  0.6093 -1.4005
16302SOL     OW50582   8.314   2.209   2.800 -0.1038  0.1550  0.3683
16302SOL    HW150583   8.249   2.140   2.809 -0.4852  0.5301  0.5179
16302SOL    HW250584   8.387   2.181   2.854  0.1948 -0.6603 -0.4426
16303SOL     OW50585   6.601   4.350   2.220 -0.5704  0.0622  0.0418
16303SOL    HW150586   6.626   4.297   2.144  2.8142  2.4266 -0.5913
16303SOL    HW250587   6.553   4.425   2.184 -2.6539 -0.9017  0.6802
16304SOL     OW50588   8.684   0.469   1.016 -0.2912 -0.3102 -0.4518
16304SOL    HW150589   8.764   0.512   1.045 -0.5064  0.0900 -0.4478
16304SOL    HW250590   8.683   0.385   1.062  0.6920 -0.7972 -1.3151
16305SOL     OW50591   1.944   7.108   1.664  0.2026  0.1095  0.0805
16305SOL    HW150592   1.945   7.188   1.612 -1.3048  0.8538  1.1229
16305SOL    HW250593   1.874   7.055   1.625  1.1123 -0.6453 -0.5276
16306SOL     OW50594   4.476   0.249   5.459  1.0580  0.2271 -0.2779
16306SOL    HW150595   4.446   0.340   5.451  1.5069  0.3453 -0.6238
16306SOL    HW250596   4.547   0.252   5.522  1.1486  0.1323 -0.3753
16307SOL     OW50597   8.858   6.335   1.574  0.1124  0.2698 -0.1866
16307SOL    HW150598   8.794   6.306   1.508 -0.6942  0.7132  0.3842
16307SOL    HW250599   8.938   6.350   1.525  0.2134 -1.7513 -0.6872
16308SOL     OW50600   4.540   8.405   2.946  0.5240  0.0146 -0.7529
16308SOL    HW150601   4.489   8.471   2.900  0.9908  0.9770  0.0862
16308SOL    HW250602   4.518   8.418   3.038 -1.8639 -3.1344 -0.8072
16309SOL     OW50603   3.804   5.169   6.885 -0.3622 -0.1182 -0.3825
16309SOL    HW150604   3.808   5.087   6.836 -1.4613  0.3037 -1.1914
16309SOL    HW250605   3.724   5.161   6.937  1.4344 -1.1036  2.3371
16310SOL     OW50606   3.352   0.298   3.343  0.8419 -0.3823  0.1198
16310SOL    HW150607   3.423   0.354   3.313 -0.6628  1.9984  0.8529
16310SOL    HW250608   3.377   0.274   3.432  1.9676 -1.7599 -0.5379
16311SOL     OW50609   1.955   7.953   9.250  0.1628 -0.0003 -0.0024
16311SOL    HW150610   1.906   7.960   9.168  1.6172  2.2329 -0.7333
16311SOL    HW250611   2.016   7.881   9.235  0.4947  0.4629 -0.9567
16312SOL     OW50612   4.557   3.783   6.792  0.4325 -0.0252  0.1928
16312SOL    HW150613   4.544   3.799   6.698 -0.6470 -1.0064  0.1619
16312SOL    HW250614   4.595   3.864   6.825 -0.8233  0.9792 -0.7652
16313SOL     OW50615   3.012   5.157   2.137 -0.4724 -0.6185  0.4700
16313SOL    HW150616   3.001   5.247   2.167  1.9960 -0.6219  1.4855
16313SOL    HW250617   3.035   5.166   2.044 -0.0099 -0.1614  0.6202
16314SOL     OW50618   3.617   4.339   0.190  0.0083 -0.1294  0.8802
16314SOL    HW150619   3.590   4.306   0.275  1.3537 -1.2866  0.8758
16314SOL    HW250620   3.537   4.340   0.138 -0.6669 -0.1672  1.9128
16315SOL     OW50621   6.631   5.521   0.979  0.0229  0.0264  0.3448
16315SOL    HW150622   6.570   5.581   0.936  0.2619 -0.0712 -0.1341
16315SOL    HW250623   6.708   5.575   0.999  1.3402 -0.6687 -2.4660
16316SOL     OW50624   9.147   5.237   2.917  0.6111 -0.7735  0.2678
16316SOL    HW150625   9.083   5.309   2.918  0.9702 -0.4460 -0.0745
16316SOL    HW250626   9.098   5.162   2.950  0.0772 -0.5027  0.1107
16317SOL     OW50627   6.456   4.654   4.489 -0.2443  0.0738 -0.1727
16317SOL    HW150628   6.471   4.626   4.579  3.4604 -0.5823 -0.9033
16317SOL    HW250629   6.433   4.746   4.495 -0.3924 -0.0616  1.4611
16318SOL     OW50630   8.192   2.402   2.499 -0.7286 -0.3097 -0.2724
16318SOL    HW150631   8.180   2.313   2.532 -0.6895 -0.4978 -0.7596
16318SOL    HW250632   8.242   2.390   2.417  0.7548  0.2773  0.5260
16319SOL     OW50633   8.612   3.649   4.217 -0.5194 -0.3434 -0.6986
16319SOL    HW150634   8.579   3.719   4.161  1.1943  0.7845 -0.3070
16319SOL    HW250635   8.608   3.685   4.306  1.3348 -0.3414 -0.6009
16320SOL     OW50636   2.095   8.242   1.728 -0.8368 -0.4306  0.2993
16320SOL    HW150637   2.069   8.214   1.640 -1.7294 -0.4113  0.5558
16320SOL    HW250638   2.147   8.321   1.713 -1.9732  0.2479 -0.1432
16321SOL     OW50639   2.488   1.945   2.793  0.1361 -0.4053 -0.7398
16321SOL    HW150640   2.516   1.877   2.732 -2.0094 -1.2169 -0.8465
16321SOL    HW250641   2.533   1.924   2.875  0.0091 -1.5797 -0.9630
16322SOL     OW50642   5.398   7.092   4.906 -0.6590  0.5098 -0.2702
16322SOL    HW150643   5.490   7.077   4.930 -0.9631  0.1391  0.7076
16322SOL    HW250644   5.366   7.154   4.972 -0.9077  1.2130 -1.0529
16323SOL     OW50645   7.417   3.743   6.323  0.3397 -0.2690 -0.6533
16323SOL    HW150646   7.348   3.779   6.379  1.6987  1.7521 -0.2110
16323SOL    HW250647   7.463   3.681   6.380  0.5097  0.3342 -0.1270
16324SOL     OW50648   0.980   1.755   1.398 -0.1274  0.0710 -0.2977
16324SOL    HW150649   0.958   1.752   1.491 -0.8349 -1.1525 -0.4932
16324SOL    HW250650   0.998   1.664   1.374  0.2257  0.3949 -1.3139
16325SOL     OW50651   9.257   3.400   5.404  0.4530  0.1367 -0.1126
16325SOL    HW150652   9.313   3.441   5.338 -0.7084  0.7113 -0.7636
16325SOL    HW250653   9.222   3.323   5.361 -0.5284  0.6653 -0.2831
16326SOL     OW50654   6.890   1.664   4.149 -0.4816  0.2780 -0.0161
16326SOL    HW150655   6.913   1.676   4.057  2.2232 -2.8314  0.1691
16326SOL    HW250656   6.906   1.571   4.166 -1.9642  0.5653  3.3341
16327SOL     OW50657   2.698   2.676   2.747  0.8149  0.2899  0.7604
16327SOL    HW150658   2.673   2.715   2.663  1.1029 -1.6575 -0.2818
16327SOL    HW250659   2.639   2.716   2.811  0.2059  1.3812 -0.4628
16328SOL     OW50660   4.470   5.822   8.778  0.1666 -0.0138  0.0320
16328SOL    HW150661   4.393   5.815   8.834  0.2781  1.4714  0.3998
16328SOL    HW250662   4.442   5.880   8.707  0.6855 -0.1493 -0.2869
16329SOL     OW50663   0.472   7.658   6.858 -0.4043 -0.2813  0.1381
16329SOL    HW150664   0.475   7.566   6.885 -1.2827 -0.4956 -0.4692
16329SOL    HW250665   0.477   7.707   6.940  0.7774 -0.8518  0.4150
16330SOL     OW50666   1.586   3.406   4.891 -0.1389  0.2523  0.9043
16330SOL    HW150667   1.571   3.476   4.955 -1.2248  1.4891 -0.6524
16330SOL    HW250668   1.617   3.452   4.813 -0.4369 -1.0467  0.0088
16331SOL     OW50669   6.440   5.507   0.251 -0.6662  0.4074 -0.1902
16331SOL    HW150670   6.496   5.458   0.311  0.3529  0.3333 -1.1976
16331SOL    HW250671   6.352   5.498   0.289  0.2893  2.7075  2.8481
16332SOL     OW50672   6.322   6.291   4.664  0.0984 -0.5862 -0.2846
16332SOL    HW150673   6.365   6.302   4.749 -0.2420 -2.6822  0.1890
16332SOL    HW250674   6.235   6.328   4.676 -0.3754 -1.9918  0.6656
16333SOL     OW50675   0.519   0.784   0.583  0.8035  0.3782  0.0002
16333SOL    HW150676   0.440   0.734   0.566  0.7758  0.6446 -0.6847
16333SOL    HW250677   0.489   0.874   0.593  1.0472  0.5242 -0.5488
16334SOL     OW50678   3.302   1.894   0.992 -0.2793 -0.7058 -0.4560
16334SOL    HW150679   3.242   1.820   0.994  1.4602 -2.1781 -0.6444
16334SOL    HW250680   3.372   1.870   1.053 -0.8865  1.8953  1.3822
16335SOL     OW50681   6.375   0.361   2.680  0.3170 -0.0635  0.1188
16335SOL    HW150682   6.467   0.380   2.665  0.1737  0.2273 -0.4160
16335SOL    HW250683   6.340   0.441   2.719  0.2580 -0.1159  0.1738
16336SOL     OW50684   0.598   6.897   4.527 -0.0818 -0.1691 -0.4484
16336SOL    HW150685   0.566   6.922   4.614 -0.1603 -1.3660 -0.1274
16336SOL    HW250686   0.530   6.840   4.491 -0.0695  0.3497 -1.3145
16337SOL     OW50687   4.816   0.123   3.548  0.2847 -0.4163  0.0584
16337SOL    HW150688   4.756   0.050   3.560  0.3425 -0.0502  2.8187
16337SOL    HW250689   4.760   0.195   3.516 -0.3827 -0.6406  0.7267
16338SOL     OW50690   5.228   3.072   0.026  0.0742  0.6654 -0.2267
16338SOL    HW150691   5.264   2.988   0.055 -0.7118  0.1249 -0.7662
16338SOL    HW250692   5.201   3.055  -0.065 -0.2402  1.4539 -0.2788
16339SOL     OW50693   2.973   7.603   6.597  0.3728  0.4129  0.1583
16339SOL    HW150694   3.002   7.576   6.510 -0.8521  0.5074 -0.2935
16339SOL    HW250695   3.043   7.573   6.656  0.2660 -1.4744 -0.6212
16340SOL     OW50696   3.165   6.080   6.561  0.3383 -0.0138 -0.1249
16340SOL    HW150697   3.073   6.087   6.586  0.2435  0.7925 -0.6706
16340SOL    HW250698   3.167   6.110   6.470  1.0797 -0.3891 -0.2328
16341SOL     OW50699   1.229   8.009   1.100 -0.5205  0.1574 -0.5020
16341SOL    HW150700   1.155   8.003   1.160 -0.5071  0.0932 -0.4914
16341SOL    HW250701   1.258   7.918   1.090  0.5642  0.3516  0.7526
16342SOL     OW50702   2.321   8.412   2.966  0.0349 -0.0452  0.1491
16342SOL    HW150703   2.390   8.386   3.027 -0.2973 -0.1654  0.4702
16342SOL    HW250704   2.327   8.349   2.895  0.0451 -0.2492  0.3325
16343SOL     OW50705   4.547   9.165   6.504 -0.1927 -0.1300 -0.7245
16343SOL    HW150706   4.517   9.223   6.573 -1.5947  0.4313 -1.7834
16343SOL    HW250707   4.610   9.107   6.547 -2.9415 -1.4919  1.5975
16344SOL     OW50708   6.231   6.561   8.018  0.2294 -0.0146 -0.0045
16344SOL    HW150709   6.221   6.643   7.969 -0.3056 -0.8812 -1.3746
16344SOL    HW250710   6.276   6.587   8.098  0.4062  1.5633 -0.5854
16345SOL     OW50711   8.307   8.573   1.676 -0.1974 -0.2698 -0.2841
16345SOL    HW150712   8.213   8.570   1.691 -0.2905 -0.9686 -1.0129
16345SOL    HW250713   8.340   8.631   1.745 -1.3631  1.4336 -1.1263
16346SOL     OW50714   6.329   3.796   5.778  0.5676 -1.0514 -0.7052
16346SOL    HW150715   6.239   3.789   5.748  1.1323  1.2956 -3.0558
16346SOL    HW250716   6.382   3.784   5.699  2.3277 -2.1239  0.5970
16347SOL     OW50717   6.541   4.816   0.888 -0.0051 -0.0845  0.5358
16347SOL    HW150718   6.532   4.885   0.822  0.2993  1.1790  1.7759
16347SOL    HW250719   6.535   4.734   0.839 -1.0042  0.8244 -0.8848
16348SOL     OW50720   3.450   5.121   7.175 -0.1953  0.1685  0.1126
16348SOL    HW150721   3.512   5.191   7.156 -1.1185  0.7674 -0.7675
16348SOL    HW250722   3.370   5.147   7.128 -1.4071 -0.1066  1.9640
16349SOL     OW50723   4.258   8.997   6.706  0.1343  0.7807 -0.5873
16349SOL    HW150724   4.218   8.928   6.758  1.5504  1.0501  0.9075
16349SOL    HW250725   4.216   8.991   6.620 -0.6239 -1.1255 -0.0926
16350SOL     OW50726   8.757   2.026   2.352  0.1573  0.2586 -0.2217
16350SOL    HW150727   8.719   2.114   2.356 -1.7978 -0.5899  0.3974
16350SOL    HW250728   8.687   1.971   2.318  2.0843 -0.7072 -2.8223
16351SOL     OW50729   3.582   6.846   5.721 -0.2474  0.1985  0.1258
16351SOL    HW150730   3.660   6.869   5.670 -0.4067 -1.2086 -0.7643
16351SOL    HW250731   3.518   6.913   5.697  0.6432  1.3345  0.8223
16352SOL     OW50732   6.029   0.794   5.618  0.0067  0.1468  0.0908
16352SOL    HW150733   6.007   0.708   5.582  0.2096  1.4332 -3.3713
16352SOL    HW250734   5.946   0.840   5.625 -0.2799 -0.7407  3.2978
16353SOL     OW50735   0.640   3.712   3.532  0.5980  0.5446  0.2586
16353SOL    HW150736   0.591   3.671   3.603 -0.4999  1.5046  0.0772
16353SOL    HW250737   0.701   3.645   3.503 -2.0739 -1.4752 -0.9607
16354SOL     OW50738   9.241   4.302   6.471  0.2396  0.3166 -0.3257
16354SOL    HW150739   9.169   4.364   6.480  1.0505  1.6789 -2.7677
16354SOL    HW250740   9.241   4.279   6.378  1.8986 -0.9739 -0.0267
16355SOL     OW50741   9.129   1.124   1.109  0.3743 -0.3088 -0.5545
16355SOL    HW150742   9.186   1.095   1.038  0.6582 -1.2445  0.0464
16355SOL    HW250743   9.170   1.203   1.142  0.1985  0.1765 -1.4855
16356SOL     OW50744   4.089   7.164   7.439 -0.1612  0.2420  0.3497
16356SOL    HW150745   4.105   7.160   7.345 -1.5362  1.5986  0.0322
16356SOL    HW250746   4.032   7.089   7.457  0.5002 -0.3029  0.1982
16357SOL     OW50747   5.398   5.548   6.666  0.3992  0.2277  0.0183
16357SOL    HW150748   5.327   5.607   6.640  1.0307  0.1296 -2.0571
16357SOL    HW250749   5.466   5.561   6.599  2.1880  0.0440  1.7394
16358SOL     OW50750   6.626   0.630   0.157  0.9345 -0.4063  0.3548
16358SOL    HW150751   6.690   0.626   0.085  1.4965  1.9584  0.6993
16358SOL    HW250752   6.621   0.723   0.180 -0.9150 -0.8603  1.8930
16359SOL     OW50753   1.727   7.912   7.076  0.6111 -0.1159  0.1788
16359SOL    HW150754   1.701   7.877   6.991  0.7697  2.6863 -1.0782
16359SOL    HW250755   1.645   7.920   7.125  0.3097 -0.2342 -0.3041
16360SOL     OW50756   4.008   6.916   7.811 -0.2208 -0.3677 -0.3032
16360SOL    HW150757   4.013   6.929   7.717 -2.1247 -2.5020 -0.7518
16360SOL    HW250758   3.925   6.871   7.825  1.3597 -2.7348  2.0806
16361SOL     OW50759   1.892   7.325   1.488  0.7152 -0.2465 -0.9987
16361SOL    HW150760   1.854   7.329   1.400  0.7469  1.6413 -0.9418
16361SOL    HW250761   1.986   7.336   1.474  0.3835  4.1112 -0.4739
16362SOL     OW50762   8.079   5.148   1.358  0.0657 -0.4919 -0.1903
16362SOL    HW150763   8.052   5.164   1.267 -0.3189 -1.9428 -0.3414
16362SOL    HW250764   8.174   5.158   1.356 -0.1917  2.2110 -0.1678
16363SOL     OW50765   2.106   8.961   5.995  0.1325 -0.6224  0.1701
16363SOL    HW150766   2.158   8.908   6.055 -0.7793  1.0996  2.5285
16363SOL    HW250767   2.023   8.915   5.987 -0.1385 -0.2911  1.0889
16364SOL     OW50768   1.872   2.481   9.083 -0.4397  0.3377 -0.7037
16364SOL    HW150769   1.919   2.471   9.166 -0.1283 -0.5995 -0.9881
16364SOL    HW250770   1.823   2.563   9.093 -0.6682  0.0650  0.5371
16365SOL     OW50771   7.558   0.273   4.731  0.2369  0.8064  0.2760
16365SOL    HW150772   7.512   0.352   4.701 -1.4336 -0.2362 -0.0269
16365SOL    HW250773   7.505   0.201   4.695  1.6139 -0.4397  0.7301
16366SOL     OW50774   3.381   9.138   7.960 -0.3735 -0.0486 -0.6260
16366SOL    HW150775   3.330   9.159   8.038  1.5360 -3.3448  1.6249
16366SOL    HW250776   3.335   9.064   7.920  1.6675 -2.0123  0.5466
16367SOL     OW50777   3.006   6.788   1.917  0.3006  0.1683 -0.0435
16367SOL    HW150778   3.001   6.880   1.892  0.5699  0.1431 -0.1914
16367SOL    HW250779   2.997   6.739   1.835 -1.9772  0.0033  0.2728
16368SOL     OW50780   6.126   3.156   2.682  0.1543 -0.3877 -0.4834
16368SOL    HW150781   6.203   3.124   2.728 -0.4448  0.3765  1.1052
16368SOL    HW250782   6.122   3.250   2.703 -0.9354 -0.3165 -0.9450
16369SOL     OW50783   0.989   0.822   1.587 -0.0727  0.5320 -0.2664
16369SOL    HW150784   0.921   0.790   1.528  0.3766 -1.0842  0.0593
16369SOL    HW250785   0.940   0.859   1.661 -0.6306 -1.3302  0.3394
16370SOL     OW50786   6.821   4.122   1.608  0.4815 -0.3542 -0.0773
16370SOL    HW150787   6.761   4.100   1.536 -1.4253 -0.9460  1.6619
16370SOL    HW250788   6.848   4.037   1.643  0.2651 -0.0432  0.8402
16371SOL     OW50789   8.871   1.537   5.854  0.0025 -0.0308 -0.1975
16371SOL    HW150790   8.883   1.499   5.766  2.0264 -0.1916  0.1201
16371SOL    HW250791   8.960   1.555   5.884 -0.6328 -0.8203  2.2126
16372SOL     OW50792   5.617   0.936   9.160  0.4521 -0.1742 -0.3100
16372SOL    HW150793   5.579   1.016   9.124  0.7615 -0.3355 -1.0156
16372SOL    HW250794   5.686   0.912   9.097  2.1724  0.4856  1.2669
16373SOL     OW50795   7.524   4.012   8.305 -0.3703 -0.2491  0.4073
16373SOL    HW150796   7.455   3.946   8.312 -0.3891 -0.2737 -0.0212
16373SOL    HW250797   7.541   4.038   8.396 -1.9461  0.7976  0.4032
16374SOL     OW50798   4.315   8.898   1.677 -0.4431 -0.4053 -0.0388
16374SOL    HW150799   4.244   8.853   1.722 -1.4751  0.6748 -0.5907
16374SOL    HW250800   4.351   8.831   1.618  0.2976 -1.5373  1.6501
16375SOL     OW50801   2.652   6.662   7.608 -0.4059 -0.0640  0.5492
16375SOL    HW150802   2.721   6.718   7.573 -0.7741 -0.1986 -0.3955
16375SOL    HW250803   2.618   6.711   7.683 -0.6989  0.9647 -0.2385
16376SOL     OW50804   2.457   6.370   2.231 -1.1843  0.7531  0.5489
16376SOL    HW150805   2.411   6.292   2.262 -1.3581  0.7769  0.3497
16376SOL    HW250806   2.537   6.337   2.191 -1.7334  0.6002 -0.4455
16377SOL     OW50807   1.187   9.020   7.303 -0.5331 -0.0950  0.2454
16377SOL    HW150808   1.278   9.036   7.278  0.1502 -1.7857  1.5783
16377SOL    HW250809   1.168   9.087   7.369  0.2362 -0.6924  1.0805
16378SOL     OW50810   2.938   2.624   5.334 -0.2910  0.1850  0.1549
16378SOL    HW150811   2.907   2.551   5.281  2.6286 -0.9984 -0.0108
16378SOL    HW250812   2.885   2.698   5.306 -0.5280 -0.9638 -2.6148
16379SOL     OW50813   9.134   6.518   6.231 -0.4484  0.0603  0.5081
16379SOL    HW150814   9.213   6.465   6.226 -0.3196  0.2026  1.0255
16379SOL    HW250815   9.063   6.457   6.212 -0.1885  0.0280 -0.4238
16380SOL     OW50816   3.610   6.248   3.052 -0.2882  0.2177  0.3127
16380SOL    HW150817   3.697   6.213   3.072 -0.6338 -0.5871  0.4379
16380SOL    HW250818   3.626   6.333   3.013  0.4991  0.8474  1.9710
16381SOL     OW50819   3.808   2.029   1.599  0.0367 -0.1765  0.3404
16381SOL    HW150820   3.839   2.114   1.631  1.6184 -0.6962  0.2424
16381SOL    HW250821   3.797   1.976   1.678 -0.3226 -0.0915  0.3499
16382SOL     OW50822   5.231   3.801   3.628  0.3912 -0.0158  0.5212
16382SOL    HW150823   5.305   3.862   3.633  0.0097  0.4374  0.6386
16382SOL    HW250824   5.262   3.731   3.571  0.4913  0.7715 -0.4022
16383SOL     OW50825   2.596   3.701   2.731 -0.5847 -0.1512 -0.0134
16383SOL    HW150826   2.650   3.778   2.713  0.6472 -0.8861  0.4575
16383SOL    HW250827   2.515   3.737   2.766  0.1378  0.9292  0.5935
16384SOL     OW50828   0.826   5.671   1.125  0.8421 -0.1764  0.1118
16384SOL    HW150829   0.748   5.696   1.176  0.9733 -0.0700  0.2623
16384SOL    HW250830   0.875   5.614   1.184 -0.5390 -2.5761 -1.0266
16385SOL     OW50831   8.918   6.839   8.154  0.4926 -0.1839 -0.1326
16385SOL    HW150832   8.888   6.837   8.063 -0.8339 -1.5041  0.3035
16385SOL    HW250833   8.955   6.926   8.166 -0.8877  0.6042 -1.4476
16386SOL     OW50834   2.040   1.581   6.593 -0.8294 -0.3094 -0.3756
16386SOL    HW150835   2.078   1.498   6.565  0.5954 -0.0789  0.8092
16386SOL    HW250836   1.987   1.610   6.518 -1.7037 -2.4807 -0.6162
16387SOL     OW50837   8.226   2.233   6.755 -0.5180  0.0613  0.7392
16387SOL    HW150838   8.276   2.159   6.791 -0.3181 -0.3245 -0.3317
16387SOL    HW250839   8.279   2.310   6.776  0.5458 -0.3442 -0.3846
16388SOL     OW50840   4.255   3.227   7.219  0.3688 -0.1085  0.0871
16388SOL    HW150841   4.311   3.304   7.229  0.4639 -0.2180  0.4068
16388SOL    HW250842   4.225   3.207   7.307 -0.3580  0.0837 -0.1150
16389SOL     OW50843   7.368   1.449   6.343  0.1678 -0.5556  0.4006
16389SOL    HW150844   7.448   1.404   6.368  1.0438  0.7438 -0.0096
16389SOL    HW250845   7.311   1.381   6.307  1.7378 -1.2220 -0.8562
16390SOL     OW50846   4.113   8.890   4.771  0.3828  0.1075 -0.0604
16390SOL    HW150847   4.127   8.881   4.676  1.5840  1.2375  0.0004
16390SOL    HW250848   4.099   8.984   4.785 -2.8117 -0.3752  0.5188
16391SOL     OW50849   5.542   2.245   8.800 -0.5561 -0.6780  0.3995
16391SOL    HW150850   5.531   2.261   8.894  1.5663 -0.4891  0.6305
16391SOL    HW250851   5.481   2.173   8.781  0.3263 -1.9956  2.3207
16392SOL     OW50852   5.410   7.482   1.812 -0.1953  0.0668  0.3379
16392SOL    HW150853   5.502   7.506   1.804 -0.0941 -0.6524 -0.7200
16392SOL    HW250854   5.409   7.411   1.876  0.0978 -0.5569 -0.3449
16393SOL     OW50855   5.163   5.741   1.663 -0.1807  0.1931 -0.1173
16393SOL    HW150856   5.076   5.703   1.680 -0.1424  0.2920  0.2865
16393SOL    HW250857   5.152   5.787   1.579 -0.8180  1.1438  0.4754
16394SOL     OW50858   7.204   8.437   5.038  0.0536 -0.2813 -0.0683
16394SOL    HW150859   7.226   8.509   4.979  0.5492 -0.4750 -0.1251
16394SOL    HW250860   7.114   8.413   5.014 -0.0377  0.1850 -0.1835
16395SOL     OW50861   3.042   6.025   7.564 -0.0688 -0.1881  0.2011
16395SOL    HW150862   2.999   6.077   7.632 -0.2330 -3.0520  2.3459
16395SOL    HW250863   3.131   6.061   7.558 -0.5275  1.0652  0.8179
16396SOL     OW50864   4.275   4.363   2.839  0.5630 -0.1623  0.3656
16396SOL    HW150865   4.240   4.276   2.820 -0.8921  0.2278  1.1982
16396SOL    HW250866   4.364   4.361   2.805  0.1135 -1.5604 -0.7589
16397SOL     OW50867   5.852   1.978   0.653 -0.1386 -0.3709  0.5992
16397SOL    HW150868   5.884   2.062   0.686  0.6645 -0.7316  0.7545
16397SOL    HW250869   5.811   1.999   0.569  0.3304  0.1281  0.4949
16398SOL     OW50870   3.105   7.655   7.061  0.3860 -0.2928  0.0466
16398SOL    HW150871   3.065   7.640   6.976 -0.0660  3.5295 -0.5081
16398SOL    HW250872   3.034   7.644   7.124 -0.2847  1.0070 -0.4620
16399SOL     OW50873   7.730   8.104   9.057  0.4316  0.0059  0.6429
16399SOL    HW150874   7.642   8.082   9.025  0.3716 -0.5767  1.1990
16399SOL    HW250875   7.715   8.172   9.122  0.2791 -0.9151  1.5843
16400SOL     OW50876   2.488   1.004   6.224  0.0868  0.3452 -0.2911
16400SOL    HW150877   2.526   1.061   6.290 -0.9438 -0.7182  1.2418
16400SOL    HW250878   2.551   0.932   6.215 -1.9074 -1.9001  2.9224
16401SOL     OW50879   7.428   0.049   1.620 -0.1515 -0.1296  0.0370
16401SOL    HW150880   7.417   0.144   1.608 -0.7409  0.1271  2.3926
16401SOL    HW250881   7.341   0.012   1.604  0.0094 -0.2397 -0.5828
16402SOL     OW50882   7.724   3.145   1.658  0.3105  0.2687 -0.0157
16402SOL    HW150883   7.775   3.073   1.696  2.1534  1.0526 -0.9492
16402SOL    HW250884   7.687   3.109   1.578 -0.1802 -0.1358  0.3850
16403SOL     OW50885   9.181   7.143   3.815  0.4754  0.1247 -0.1031
16403SOL    HW150886   9.204   7.191   3.735 -1.8992  2.1911  0.3868
16403SOL    HW250887   9.220   7.195   3.886 -0.2138  0.1308  0.2773
16404SOL     OW50888   3.064   7.760   0.358  0.1913  0.4811  0.2755
16404SOL    HW150889   3.052   7.797   0.271 -1.0923  0.1326  0.2931
16404SOL    HW250890   2.977   7.760   0.397  0.0918 -2.6970  0.1997
16405SOL     OW50891   0.332   2.433   4.409  0.3483  0.2399 -0.0377
16405SOL    HW150892   0.386   2.399   4.481  2.2689  0.8391 -1.1462
16405SOL    HW250893   0.252   2.381   4.411  1.2405 -1.0966  1.2596
16406SOL     OW50894   4.522   4.865   7.727  0.4730  0.0140  0.3621
16406SOL    HW150895   4.546   4.775   7.709 -0.5294 -0.2520  0.2941
16406SOL    HW250896   4.479   4.895   7.647  0.8091  0.5442  0.3836
16407SOL     OW50897   2.867   1.927   9.189  0.2561 -0.1974 -0.4716
16407SOL    HW150898   2.942   1.871   9.212  1.5254 -0.5058 -4.9708
16407SOL    HW250899   2.893   2.014   9.220  1.6975 -0.6581 -0.3338
16408SOL     OW50900   1.805   6.576   8.098 -0.1390 -0.3159  0.2873
16408SOL    HW150901   1.785   6.547   8.009 -0.3363  1.6208 -0.3292
16408SOL    HW250902   1.720   6.596   8.136  0.0513  0.5533  0.2828
16409SOL     OW50903   3.944   0.574   0.186 -0.0500  0.0744  0.3436
16409SOL    HW150904   3.850   0.590   0.195 -0.4344 -1.0335 -1.4003
16409SOL    HW250905   3.958   0.488   0.226  0.5284  1.0126  2.1633
16410SOL     OW50906   5.193   2.215   4.868 -0.1999  0.1091  0.2763
16410SOL    HW150907   5.126   2.157   4.831  0.3645 -0.7497  0.5602
16410SOL    HW250908   5.157   2.243   4.951 -0.4970  0.1897  0.1205
16411SOL     OW50909   0.124   4.953   4.807  0.2949 -0.1037 -0.2890
16411SOL    HW150910   0.125   4.936   4.713  0.5890 -0.6656 -0.1852
16411SOL    HW250911   0.092   4.872   4.846  2.0163 -0.5538  0.2342
16412SOL     OW50912   9.052   7.472   7.804  0.1723  0.1121 -0.9665
16412SOL    HW150913   9.110   7.548   7.796 -1.9589  2.1262  1.5276
16412SOL    HW250914   8.984   7.486   7.738 -0.4709  0.6518 -0.2050
16413SOL     OW50915   3.426   2.584   1.350 -0.2400  0.0440  0.1790
16413SOL    HW150916   3.367   2.616   1.418 -0.0393  1.5613 -0.3384
16413SOL    HW250917   3.511   2.577   1.394 -0.5882 -1.2386  0.6774
16414SOL     OW50918   2.754   6.434   9.087 -0.8557 -0.1104 -0.4032
16414SOL    HW150919   2.807   6.363   9.124 -0.3652  0.0555 -0.7719
16414SOL    HW250920   2.668   6.395   9.073 -0.6336 -0.5893 -0.4503
16415SOL     OW50921   8.373   9.222   1.452 -0.2296  0.2740 -0.3333
16415SOL    HW150922   8.358   9.143   1.400 -1.5647  1.7069 -2.1604
16415SOL    HW250923   8.439   9.271   1.403 -0.4383  0.9595  0.0716
16416SOL     OW50924   5.168   0.735   6.064 -0.0875 -0.2639 -0.0698
16416SOL    HW150925   5.259   0.707   6.073 -0.3763 -0.7395  1.4639
16416SOL    HW250926   5.170   0.796   5.990  0.8985 -2.7566 -2.2029
16417SOL     OW50927   3.035   9.125   6.042  0.7440  0.2616  0.1219
16417SOL    HW150928   3.044   9.187   6.115 -1.5235  0.1005  0.5553
16417SOL    HW250929   3.062   9.041   6.079 -0.7985  0.1034  0.9105
16418SOL     OW50930   7.606   4.334   4.893 -0.2897 -0.1003 -0.3943
16418SOL    HW150931   7.684   4.286   4.864  0.3168  1.3733 -1.3117
16418SOL    HW250932   7.537   4.306   4.833  0.1630  0.4759 -1.1944
16419SOL     OW50933   3.711   4.768   4.224  0.1512 -0.9657 -0.0410
16419SOL    HW150934   3.626   4.748   4.262  0.9161 -1.1717  1.5838
16419SOL    HW250935   3.763   4.689   4.238  0.6547 -0.7906 -0.9010
16420SOL     OW50936   2.925   6.344   1.784 -0.0862  0.3207 -0.0731
16420SOL    HW150937   2.896   6.255   1.806 -0.9335  0.0663 -2.0251
16420SOL    HW250938   2.862   6.401   1.827  1.1641  0.0335  2.1799
16421SOL     OW50939   6.878   3.556   8.665 -0.2382 -0.1118  0.2703
16421SOL    HW150940   6.913   3.629   8.716  1.7327 -1.0248  0.2557
16421SOL    HW250941   6.843   3.596   8.586 -0.7155  0.9999  1.0412
16422SOL     OW50942   1.080   6.771   3.466  0.1182  0.6670 -0.2612
16422SOL    HW150943   1.040   6.707   3.407  0.3458  0.0457  0.2496
16422SOL    HW250944   1.085   6.726   3.551 -2.4725  2.4003  0.8762
16423SOL     OW50945   0.910   0.222   0.554  0.5126 -0.3389 -0.1349
16423SOL    HW150946   0.937   0.180   0.636 -2.1640  0.8133  1.3907
16423SOL    HW250947   0.924   0.156   0.487  2.3122 -1.4632  1.3158
16424SOL     OW50948   0.596   6.291   1.068  0.4220  0.2780 -0.0856
16424SOL    HW150949   0.636   6.366   1.112  0.9210 -0.4372  0.7071
16424SOL    HW250950   0.667   6.228   1.058 -0.3721 -0.8164  0.9057
16425SOL     OW50951   1.150   3.819   1.190  0.2926  0.3494  0.0681
16425SOL    HW150952   1.163   3.913   1.178  0.2197  0.2216 -1.0730
16425SOL    HW250953   1.202   3.796   1.267 -1.5687  1.7606  1.7934
16426SOL     OW50954   4.228   1.490   8.931 -0.0147  0.1965 -0.5012
16426SOL    HW150955   4.266   1.546   8.862  2.3499 -1.4049 -0.5363
16426SOL    HW250956   4.148   1.536   8.957  1.4427  3.2052 -1.0929
16427SOL     OW50957   5.932   6.388   1.673  0.8870 -0.0130 -0.1513
16427SOL    HW150958   5.989   6.462   1.689  1.4378 -0.4502 -0.0783
16427SOL    HW250959   5.987   6.311   1.689  0.5483 -0.4393 -0.9697
16428SOL     OW50960   4.670   8.219   7.380 -0.0919  0.0846  0.2416
16428SOL    HW150961   4.580   8.229   7.351  0.4438 -1.4654 -2.0715
16428SOL    HW250962   4.664   8.215   7.476 -2.6850 -2.0081  0.0392
16429SOL     OW50963   8.934   5.407   2.921  0.1210  0.1462 -0.6206
16429SOL    HW150964   8.880   5.388   2.843 -0.6845  0.8509 -0.2464
16429SOL    HW250965   8.976   5.490   2.901 -0.4737  0.5746 -0.1037
16430SOL     OW50966   7.045   4.012   9.154 -0.0141 -0.2243 -0.1675
16430SOL    HW150967   7.119   3.952   9.148  0.8767  0.9734 -1.4910
16430SOL    HW250968   7.046   4.043   9.245 -0.9323 -2.7471  0.7302
16431SOL     OW50969   1.420   8.449   4.203 -0.0764  0.4221 -0.0426
16431SOL    HW150970   1.334   8.452   4.246  0.1068 -0.8632  0.4256
16431SOL    HW250971   1.479   8.495   4.262  0.3109 -1.8857  1.4456
16432SOL     OW50972   1.271   4.164   7.013 -0.2552 -0.1390  0.2218
16432SOL    HW150973   1.177   4.152   7.028  0.2098 -3.0340  1.1379
16432SOL    HW250974   1.306   4.189   7.098  0.1826 -1.7200  0.5173
16433SOL     OW50975   5.732   2.450   5.743 -0.7466  0.6455 -0.0556
16433SOL    HW150976   5.657   2.403   5.707 -0.0349 -0.1262 -0.5432
16433SOL    HW250977   5.702   2.540   5.751 -2.1964  0.0861  1.0876
16434SOL     OW50978   8.173   7.479   4.257 -0.5745 -0.3556 -0.4907
16434SOL    HW150979   8.180   7.425   4.179 -2.3844 -1.1608 -0.1331
16434SOL    HW250980   8.145   7.418   4.326  2.7949 -0.0589  1.2522
16435SOL     OW50981   4.729   2.059   8.543 -0.2879  0.5822  0.1974
16435SOL    HW150982   4.667   2.118   8.586 -0.8021  1.2891 -1.4852
16435SOL    HW250983   4.811   2.109   8.539  0.0112  0.1859  1.1150
16436SOL     OW50984   2.121   9.195   5.823 -0.3881  0.0273 -0.3068
16436SOL    HW150985   2.061   9.261   5.858  0.1565  0.4776 -0.2240
16436SOL    HW250986   2.090   9.112   5.861  0.6309  0.6069  1.8202
16437SOL     OW50987   5.326   6.803   7.940 -0.1264 -0.2519 -0.0638
16437SOL    HW150988   5.356   6.716   7.967  1.5913 -0.2103 -1.6895
16437SOL    HW250989   5.332   6.856   8.020  0.1612 -1.2815  0.6128
16438SOL     OW50990   5.086   8.993   1.623 -0.3406  0.3378  0.2318
16438SOL    HW150991   5.159   9.025   1.676 -0.0376 -1.1026  0.6887
16438SOL    HW250992   5.119   8.994   1.533 -0.1539  0.7874  0.3015
16439SOL     OW50993   5.540   7.899   0.760 -0.1616  0.7014 -0.1585
16439SOL    HW150994   5.557   7.906   0.854 -0.8431  0.4943 -0.0195
16439SOL    HW250995   5.488   7.976   0.739 -1.5411 -0.1641 -0.0096
16440SOL     OW50996   6.934   0.055   9.146  0.3713  0.1682 -1.1194
16440SOL    HW150997   6.951   0.092   9.059 -0.7871 -0.1255 -1.4816
16440SOL    HW250998   6.839   0.044   9.149  0.2728  1.2941  0.6412
16441SOL     OW50999   2.934   2.230   7.183 -0.6308  0.1876  0.2962
16441SOL    HW151000   2.930   2.139   7.155 -2.2520  0.4100 -0.2125
16441SOL    HW251001   2.935   2.281   7.102  0.5378  0.6218  0.5724
16442SOL     OW51002   1.223   8.289   8.350 -0.0001  0.0728 -0.3098
16442SOL    HW151003   1.314   8.261   8.342 -0.0473 -0.0223 -0.5235
16442SOL    HW251004   1.188   8.281   8.261 -0.9284 -2.3560  0.2339
16443SOL     OW51005   0.297   7.390   7.949  0.1530 -0.4824 -0.4552
16443SOL    HW151006   0.386   7.403   7.979  0.2572  0.1313 -1.0084
16443SOL    HW251007   0.271   7.304   7.984  0.5893 -0.1965  0.5712
16444SOL     OW51008   4.979   4.459   2.864  0.1626 -0.5932  0.1789
16444SOL    HW151009   4.935   4.392   2.916  0.1571  0.8803  2.0997
16444SOL    HW251010   5.072   4.448   2.885 -0.1307  2.2433  3.2402
16445SOL     OW51011   8.099   2.805   2.982  0.2858 -0.5880  0.4897
16445SOL    HW151012   8.112   2.863   3.056 -1.7000 -0.3899  0.7025
16445SOL    HW251013   8.148   2.726   3.004  0.7457 -0.0327  1.4367
16446SOL     OW51014   5.073   1.341   3.712  0.6368  0.3896 -0.1295
16446SOL    HW151015   5.111   1.288   3.782  1.6518  1.2048 -0.0483
16446SOL    HW251016   5.146   1.357   3.652 -0.0990  0.1571 -1.0859
16447SOL     OW51017   1.663   3.485   6.020 -0.3543  1.1430  0.3856
16447SOL    HW151018   1.640   3.482   6.113  1.3208  2.1612  0.8611
16447SOL    HW251019   1.648   3.576   5.995  0.9463  1.3000  0.1407
16448SOL     OW51020   0.904   9.223   0.458 -0.1042  0.1743  0.1785
16448SOL    HW151021   0.878   9.134   0.435  1.9583 -0.1296 -1.0725
16448SOL    HW251022   0.996   9.229   0.433  0.6550  1.6919  3.0470
16449SOL     OW51023   2.373   7.414   9.083  0.4929 -0.0119 -0.6986
16449SOL    HW151024   2.436   7.451   9.021  1.3462 -0.7238 -0.2613
16449SOL    HW251025   2.399   7.450   9.168  0.5489 -0.6132 -0.4620
16450SOL     OW51026   3.898   8.546   9.196  0.2393  0.0289 -0.4878
16450SOL    HW151027   3.920   8.566   9.287 -3.1309 -0.8683  0.5982
16450SOL    HW251028   3.944   8.613   9.145 -0.1166  2.3068  2.0765
16451SOL     OW51029   5.213   6.528   6.084  0.2550  0.0866  0.3424
16451SOL    HW151030   5.265   6.560   6.158  0.3236  0.6934  0.0360
16451SOL    HW251031   5.223   6.433   6.088  0.3962  0.1212  1.0124
16452SOL     OW51032   4.810   8.328   4.957 -0.0688 -0.4526  0.0778
16452SOL    HW151033   4.871   8.337   4.883 -0.2169  2.4859  0.2630
16452SOL    HW251034   4.725   8.317   4.915  0.2420 -2.0404 -0.1724
16453SOL     OW51035   4.060   3.720   8.254  0.0482 -0.6621  0.2152
16453SOL    HW151036   4.124   3.785   8.281  0.5329 -0.8878 -0.3831
16453SOL    HW251037   3.996   3.770   8.202 -1.1262 -0.1446  2.0904
16454SOL     OW51038   7.711   6.108   4.001 -0.0745 -0.3847  0.1828
16454SOL    HW151039   7.688   6.194   4.034  0.8091  0.5275 -1.4753
16454SOL    HW251040   7.778   6.125   3.935  1.0445 -2.4544  0.7344
16455SOL     OW51041   8.140   4.650   6.175 -0.2699  0.1994 -0.1787
16455SOL    HW151042   8.206   4.581   6.184 -0.1488  0.3617  0.1849
16455SOL    HW251043   8.158   4.689   6.089  0.2481  0.3899  0.0156
16456SOL     OW51044   7.478   6.754   6.869 -0.5442  0.1861  0.0326
16456SOL    HW151045   7.507   6.800   6.791 -1.2471  0.7235  0.0862
16456SOL    HW251046   7.403   6.804   6.900  0.0876  0.3024  1.3820
16457SOL     OW51047   7.576   7.308   2.085 -0.0899  0.1052  0.3548
16457SOL    HW151048   7.657   7.322   2.134  0.6070  1.1303 -1.0453
16457SOL    HW251049   7.605   7.269   2.002 -1.1518 -0.6382  0.3245
16458SOL     OW51050   7.561   2.581   1.191  0.0035  0.0030 -0.3630
16458SOL    HW151051   7.582   2.487   1.196  1.2465  0.3044  0.5297
16458SOL    HW251052   7.535   2.604   1.280 -2.2360  0.0995 -1.0141
16459SOL     OW51053   8.234   8.271   0.948  0.1582  0.2268  0.1409
16459SOL    HW151054   8.288   8.322   1.010 -2.4077  0.7865  2.0076
16459SOL    HW251055   8.176   8.336   0.909 -0.4292 -0.6563 -0.4478
16460SOL     OW51056   5.181   2.279   1.919  0.2150 -0.3250 -0.8723
16460SOL    HW151057   5.151   2.370   1.916  0.3036 -0.2967 -0.9096
16460SOL    HW251058   5.269   2.282   1.881  1.1516 -0.0256  1.2326
16461SOL     OW51059   0.337   6.033   3.515  0.0804 -0.1261 -0.4860
16461SOL    HW151060   0.316   6.076   3.432  1.5748 -0.5605 -1.0987
16461SOL    HW251061   0.253   6.000   3.547 -0.4283 -0.3727 -2.0615
16462SOL     OW51062   2.784   2.737   7.111  0.8388  0.2450 -0.5328
16462SOL    HW151063   2.807   2.657   7.063 -0.5844 -0.5088  0.0100
16462SOL    HW251064   2.738   2.706   7.189 -1.6264  1.6419 -1.3784
16463SOL     OW51065   1.804   2.965   9.132  0.4365  0.0252  0.2730
16463SOL    HW151066   1.782   2.872   9.126  2.3994 -0.3381 -2.4183
16463SOL    HW251067   1.791   2.987   9.224 -2.8464 -2.1721  0.4106
16464SOL     OW51068   7.712   3.298   2.490  0.3416 -0.4396 -0.2961
16464SOL    HW151069   7.660   3.248   2.553  0.1934 -1.9489 -1.5760
16464SOL    HW251070   7.661   3.295   2.409  0.4896  1.5368 -0.4737
16465SOL     OW51071   9.272   4.955   9.167  0.9559  0.1191 -0.4187
16465SOL    HW151072   9.253   4.938   9.259 -0.9162 -0.2401 -0.8644
16465SOL    HW251073   9.290   4.868   9.131  2.0361  0.2971 -0.3281
16466SOL     OW51074   0.607   0.053   8.145 -0.0673  0.2482 -0.2882
16466SOL    HW151075   0.576   0.033   8.233 -0.7337 -0.6922 -0.7290
16466SOL    HW251076   0.695   0.089   8.158  1.6812 -4.0084  0.4775
16467SOL     OW51077   5.285   3.203   6.179  0.3956 -0.1563 -0.2149
16467SOL    HW151078   5.272   3.188   6.086  3.0095 -0.3876 -0.5762
16467SOL    HW251079   5.265   3.119   6.220 -1.9868  0.2848 -0.3996
16468SOL     OW51080   3.089   1.629   6.614  0.0992 -0.5205 -0.1979
16468SOL    HW151081   3.127   1.585   6.538 -0.2940 -0.6298 -0.3318
16468SOL    HW251082   3.003   1.588   6.625  0.6335 -1.3655  1.0431
16469SOL     OW51083   0.986   6.956   5.387 -0.7587  0.1984  0.2489
16469SOL    HW151084   0.958   7.030   5.333  0.9869  0.3655 -0.4573
16469SOL    HW251085   0.977   6.880   5.330  1.6212  0.4433 -0.5233
16470SOL     OW51086   8.514   1.690   2.682 -0.7990 -0.1017 -0.5699
16470SOL    HW151087   8.553   1.684   2.595  2.2598 -0.7526  0.7586
16470SOL    HW251088   8.503   1.783   2.697 -2.4595 -0.0289 -2.0950
16471SOL     OW51089   4.470   7.235   7.533 -0.4595 -0.4223 -0.0061
16471SOL    HW151090   4.530   7.201   7.467 -0.2412  0.5526 -0.3177
16471SOL    HW251091   4.480   7.330   7.528 -0.7808 -0.3215  1.1135
16472SOL     OW51092   1.784   6.406   0.556 -0.1394 -0.0481  0.3763
16472SOL    HW151093   1.718   6.411   0.487 -1.5107  0.8113  1.7281
16472SOL    HW251094   1.739   6.368   0.631  1.4612 -1.4024  0.6930
16473SOL     OW51095   6.999   0.023   4.824  0.0417  0.3008  0.6641
16473SOL    HW151096   7.084   0.065   4.838 -0.3418  1.6092 -0.8909
16473SOL    HW251097   7.019  -0.056   4.773  0.3850  0.2946  0.8091
16474SOL     OW51098   0.129   3.615   1.273  0.6510  0.0016  0.5368
16474SOL    HW151099   0.132   3.690   1.214  2.4185  1.6561  2.6500
16474SOL    HW251100   0.167   3.543   1.223 -1.3294  0.4253 -1.6183
16475SOL     OW51101   6.247   0.657   3.993  0.2100  0.0323  0.2929
16475SOL    HW151102   6.331   0.666   3.949 -0.1365 -1.3574 -0.7121
16475SOL    HW251103   6.258   0.580   4.050  0.5280  1.5773  2.3568
16476SOL     OW51104   6.425   6.286   8.604  0.1246 -0.5792 -0.1110
16476SOL    HW151105   6.438   6.381   8.602 -0.8942 -0.4619 -1.3365
16476SOL    HW251106   6.354   6.273   8.667  0.3596 -0.5407  0.1625
16477SOL     OW51107   8.242   0.637   4.960  0.0985  0.4128 -0.5518
16477SOL    HW151108   8.155   0.647   4.998 -0.0015  1.3463 -1.0043
16477SOL    HW251109   8.239   0.688   4.879  1.2654  0.9967 -0.2399
16478SOL     OW51110   5.058   9.239   4.310 -0.5449  0.2633 -0.4316
16478SOL    HW151111   5.101   9.298   4.248  0.2025  0.3355  0.1486
16478SOL    HW251112   5.130   9.190   4.350 -0.9383  0.8588  1.0367
16479SOL     OW51113   1.235   7.727   1.115  0.0136 -0.4134 -0.2172
16479SOL    HW151114   1.143   7.733   1.089  0.3006 -0.8462 -1.3844
16479SOL    HW251115   1.252   7.633   1.118  0.6735 -0.3226 -0.9786
16480SOL     OW51116   3.823   1.343   2.974  0.1394 -0.2032  0.5697
16480SOL    HW151117   3.786   1.287   3.043  0.9061 -1.8675 -0.3349
16480SOL    HW251118   3.918   1.333   2.984  0.2569 -0.3110 -0.6042
16481SOL     OW51119   3.062   0.756   5.867 -0.1501  0.0361  0.2056
16481SOL    HW151120   3.027   0.689   5.809 -1.9802 -1.1028  2.5057
16481SOL    HW251121   3.022   0.838   5.838  1.2590 -0.0104 -1.9435
16482SOL     OW51122   1.317   6.007   5.081 -0.7474  0.1642 -0.3710
16482SOL    HW151123   1.315   6.010   5.176 -1.5753 -1.2170 -0.3284
16482SOL    HW251124   1.338   5.915   5.060  0.7555  0.7254 -1.5103
16483SOL     OW51125   2.270   2.573   2.292  0.2203  0.2396  0.4723
16483SOL    HW151126   2.247   2.617   2.210 -1.0982 -0.1033  0.6610
16483SOL    HW251127   2.361   2.599   2.307  0.9130 -0.7657 -1.7809
16484SOL     OW51128   1.903   5.395   4.960 -0.2050 -0.1349 -0.7279
16484SOL    HW151129   1.867   5.333   5.024 -1.1812  0.6258 -0.5232
16484SOL    HW251130   1.986   5.356   4.933 -0.1393 -0.8397  0.4424
16485SOL     OW51131   0.985   8.614   6.531  0.7783 -0.1743  0.2888
16485SOL    HW151132   0.960   8.612   6.623  2.9964 -0.0905  0.9134
16485SOL    HW251133   1.076   8.642   6.531  1.2715 -1.6235 -1.8212
16486SOL     OW51134   4.320   6.380   1.549  0.3878 -0.2977  0.2036
16486SOL    HW151135   4.324   6.288   1.524 -1.1513 -0.1331 -0.6885
16486SOL    HW251136   4.385   6.423   1.493  1.6311 -0.9204  1.1210
16487SOL     OW51137   1.692   2.589   8.220  0.0542  0.5230 -0.0753
16487SOL    HW151138   1.632   2.561   8.289  0.4509 -0.4097 -0.1074
16487SOL    HW251139   1.673   2.683   8.209 -2.6979 -0.1092 -1.3485
16488SOL     OW51140   3.280   7.732   1.065  0.1665  0.1118  0.2674
16488SOL    HW151141   3.340   7.784   1.013  0.1248  0.3818  0.4862
16488SOL    HW251142   3.336   7.672   1.115  0.3161  0.9015  1.0687
16489SOL     OW51143   4.770   4.160   4.204  0.2608 -0.4756 -0.2779
16489SOL    HW151144   4.825   4.135   4.278  0.1942 -1.1089 -0.4339
16489SOL    HW251145   4.735   4.077   4.171  1.7846 -0.3990 -2.1945
16490SOL     OW51146   6.282   0.835   8.890  0.2275  0.0992 -0.0431
16490SOL    HW151147   6.308   0.762   8.946  1.9400  0.6918 -0.0356
16490SOL    HW251148   6.280   0.911   8.949  1.5956  0.6447 -0.6747
16491SOL     OW51149   1.646   9.105   0.899 -0.4461 -0.0088  0.3576
16491SOL    HW151150   1.696   9.153   0.833 -1.5917  1.3727  0.4764
16491SOL    HW251151   1.711   9.079   0.964  0.3070  0.6924 -0.1052
16492SOL     OW51152   6.978   5.744   2.174 -0.4330  0.1294 -0.0184
16492SOL    HW151153   6.947   5.729   2.263  1.0828  1.0932  0.6924
16492SOL    HW251154   7.047   5.678   2.162 -0.5954  0.0381 -0.4512
16493SOL     OW51155   5.040   5.566   4.993  0.7198 -0.3469  0.2760
16493SOL    HW151156   4.958   5.516   4.998  0.6002 -0.3756 -1.7720
16493SOL    HW251157   5.099   5.511   4.942  2.4838 -0.8973  2.8029
16494SOL     OW51158   8.262   4.484   0.134 -0.1323 -0.7574  0.0898
16494SOL    HW151159   8.167   4.484   0.119 -0.2005 -0.8906  0.5263
16494SOL    HW251160   8.272   4.515   0.224  0.3030  0.3737 -0.3487
16495SOL     OW51161   1.652   2.734   1.391  0.0028  0.6263 -0.0326
16495SOL    HW151162   1.714   2.676   1.434  0.4680 -1.7154 -3.6548
16495SOL    HW251163   1.706   2.787   1.332 -1.0277  0.9195 -0.7312
16496SOL     OW51164   6.813   5.206   3.314 -0.5504  0.6223  0.1831
16496SOL    HW151165   6.902   5.187   3.343 -1.0953  0.2028  1.6632
16496SOL    HW251166   6.779   5.121   3.284  0.2999  1.2160 -2.5830
16497SOL     OW51167   1.943   4.439   0.696  0.1107 -0.1924 -0.0362
16497SOL    HW151168   1.884   4.482   0.758  0.8752  1.2546 -0.2930
16497SOL    HW251169   1.940   4.495   0.618  1.5182 -0.3219 -0.1986
16498SOL     OW51170   8.843   1.306   3.860  0.0400 -0.3830 -0.1367
16498SOL    HW151171   8.837   1.378   3.796  0.7043 -1.5246 -1.5108
16498SOL    HW251172   8.780   1.241   3.829  1.2343 -1.4738 -0.3375
16499SOL     OW51173   3.417   2.632   4.290  0.1963  0.1352  0.1324
16499SOL    HW151174   3.375   2.635   4.376 -0.3762 -0.5512 -0.1186
16499SOL    HW251175   3.507   2.661   4.306 -0.2819  1.3499  0.7222
16500SOL     OW51176   8.701   0.462   6.647 -0.2461  0.1902 -0.2537
16500SOL    HW151177   8.610   0.484   6.626  0.3461  2.3321 -0.6239
16500SOL    HW251178   8.738   0.434   6.563  0.2399  2.1584 -0.7022
16501SOL     OW51179   6.459   6.757   6.425 -0.3662 -0.1511 -0.4563
16501SOL    HW151180   6.538   6.811   6.423 -0.1583 -0.4055  0.4929
16501SOL    HW251181   6.395   6.807   6.374  0.1209  0.5137 -0.4321
16502SOL     OW51182   7.074   1.498   7.503 -0.3665 -0.6066  0.4317
16502SOL    HW151183   7.102   1.586   7.476 -0.7062 -0.6533 -0.0739
16502SOL    HW251184   7.009   1.513   7.571 -0.1691 -0.4726  0.5919
16503SOL     OW51185   2.522   4.273   9.157  0.1377 -0.4629  0.4919
16503SOL    HW151186   2.503   4.330   9.083 -1.8906 -1.6476  0.0531
16503SOL    HW251187   2.607   4.234   9.137 -0.5829 -1.0651 -1.3932
16504SOL     OW51188   2.991   3.020   7.891 -0.5196  0.1384 -0.2504
16504SOL    HW151189   2.963   2.989   7.977 -1.5816  1.4995 -0.0891
16504SOL    HW251190   2.992   2.942   7.836 -1.2255 -0.4973  0.6378
16505SOL     OW51191   8.497   2.586   0.473 -0.2783 -0.0944  0.3397
16505SOL    HW151192   8.457   2.569   0.388  1.1690  2.6120 -0.9628
16505SOL    HW251193   8.430   2.634   0.522 -0.6169 -0.4262  0.1978
16506SOL     OW51194   8.928   6.025   0.373  0.1317 -0.0054 -0.0515
16506SOL    HW151195   8.959   6.112   0.346  0.4668 -0.5033 -1.2898
16506SOL    HW251196   8.926   6.030   0.469 -2.1764  2.1523 -0.1678
16507SOL     OW51197   0.323   2.666   5.976  0.1907  0.2526  0.0618
16507SOL    HW151198   0.232   2.652   6.001 -0.2754  1.7825 -0.7185
16507SOL    HW251199   0.319   2.692   5.884  1.6220 -2.0707 -0.7013
16508SOL     OW51200   9.048   0.567   4.923  0.5559 -0.0499  0.3564
16508SOL    HW151201   9.053   0.517   4.842 -2.1531 -0.5128  0.4268
16508SOL    HW251202   9.046   0.502   4.993  3.9168  0.3673  0.9162
16509SOL     OW51203   1.918   7.394   3.176  0.6591  0.1134  0.3877
16509SOL    HW151204   1.894   7.331   3.243 -0.4419  0.5851  0.4359
16509SOL    HW251205   1.962   7.342   3.109  1.9073 -0.3341  1.5330
16510SOL     OW51206   6.464   5.651   0.821  0.5306  0.2349 -0.4321
16510SOL    HW151207   6.380   5.607   0.835  1.0033 -1.3074 -2.1084
16510SOL    HW251208   6.443   5.744   0.817 -0.7439  0.0509  1.5888
16511SOL     OW51209   8.284   4.363   3.075 -0.2894  0.0047 -0.4667
16511SOL    HW151210   8.194   4.373   3.043  0.1270  1.7223 -1.1257
16511SOL    HW251211   8.303   4.445   3.120  0.7879 -0.5387  0.0760
16512SOL     OW51212   3.841   6.193   7.624 -0.2319 -0.5920  0.1126
16512SOL    HW151213   3.809   6.271   7.667 -0.3720 -0.8425  0.4650
16512SOL    HW251214   3.902   6.225   7.557 -2.0852 -0.0565 -1.3526
16513SOL     OW51215   1.727   9.136   7.414  0.1589 -0.6555 -0.0630
16513SOL    HW151216   1.698   9.067   7.475  0.4631 -2.1739 -1.5965
16513SOL    HW251217   1.646   9.176   7.383 -0.1076 -1.4690 -0.4448
16514SOL     OW51218   3.087   8.908   5.449  1.2048 -1.2252 -0.1721
16514SOL    HW151219   3.113   8.817   5.434 -0.7264 -2.1260  1.6823
16514SOL    HW251220   2.993   8.909   5.435  1.0415  0.2502  0.9062
16515SOL     OW51221   6.676   6.089   2.139 -0.4042  0.7715  0.1431
16515SOL    HW151222   6.689   6.136   2.221 -0.6519  1.2382 -0.0803
16515SOL    HW251223   6.722   6.007   2.151 -0.4132  0.8491  0.7402
16516SOL     OW51224   1.987   6.451   4.968 -0.3040 -0.1112  0.0791
16516SOL    HW151225   2.023   6.528   4.925 -1.5159  0.5823  0.2837
16516SOL    HW251226   2.016   6.459   5.059  1.3227 -1.0011 -0.3346
16517SOL     OW51227   2.908   1.301   4.010 -0.5725 -0.2048 -0.0329
16517SOL    HW151228   2.893   1.364   4.081  1.2463 -2.1360  2.1557
16517SOL    HW251229   2.823   1.261   3.995 -1.5489  2.0792 -0.8229
16518SOL     OW51230   4.948   7.820   2.642  0.1207  0.4170 -0.6975
16518SOL    HW151231   4.939   7.843   2.735 -0.5599  1.7870 -1.0873
16518SOL    HW251232   5.003   7.889   2.606  2.2568 -1.3300 -0.8745
16519SOL     OW51233   8.645   4.126   5.819  0.1817 -0.5013 -0.4434
16519SOL    HW151234   8.555   4.093   5.817 -0.2179  0.0782  3.3429
16519SOL    HW251235   8.691   4.068   5.880  1.6772  0.7476 -0.3388
16520SOL     OW51236   1.802   7.225   3.377 -0.1161 -0.2966  0.5101
16520SOL    HW151237   1.707   7.229   3.368 -0.0703  0.7710  0.3869
16520SOL    HW251238   1.817   7.155   3.441 -1.0607  0.4618  1.5915
16521SOL     OW51239   3.716   6.495   6.498 -0.1331 -0.1402 -0.7387
16521SOL    HW151240   3.749   6.517   6.584  1.1148 -0.4401 -1.1316
16521SOL    HW251241   3.789   6.513   6.438 -1.2411  0.8514 -1.8367
16522SOL     OW51242   7.721   8.936   8.766 -0.5708 -0.4910 -0.0614
16522SOL    HW151243   7.641   8.964   8.723 -1.7645 -1.2566  1.6189
16522SOL    HW251244   7.707   8.956   8.859  1.2018 -0.5924  0.2509
16523SOL     OW51245   8.783   5.774   7.001 -0.6656  0.1489 -0.5912
16523SOL    HW151246   8.806   5.768   7.094  2.2098 -2.4758 -1.3909
16523SOL    HW251247   8.773   5.868   6.985 -0.4834  0.6804  2.1939
16524SOL     OW51248   3.649   1.189   4.437 -0.1541  0.0432  0.4581
16524SOL    HW151249   3.700   1.245   4.378  0.2539 -0.4425  0.3453
16524SOL    HW251250   3.602   1.250   4.494  0.6483  0.4908  0.6431
16525SOL     OW51251   0.502   3.597   3.756  0.5024  0.2339 -0.1274
16525SOL    HW151252   0.452   3.667   3.797 -0.1694 -0.9330  1.1040
16525SOL    HW251253   0.458   3.516   3.784  1.4929 -0.6961 -1.1879
16526SOL     OW51254   4.404   3.136   2.080  0.0885  0.8778  0.0486
16526SOL    HW151255   4.413   3.088   2.162 -5.0816  1.9533  1.4014
16526SOL    HW251256   4.434   3.224   2.100  1.6810  0.3915 -0.1173
16527SOL     OW51257   0.002   3.668   4.651 -0.2361 -0.1413 -0.7002
16527SOL    HW151258   0.022   3.583   4.611 -0.6188 -0.9677  0.8213
16527SOL    HW251259  -0.079   3.696   4.608 -0.2602 -0.6797 -1.0147
16528SOL     OW51260   2.610   4.124   0.615 -0.1071 -0.3690  0.5048
16528SOL    HW151261   2.574   4.036   0.617 -0.7883 -0.2574 -2.8724
16528SOL    HW251262   2.535   4.181   0.599  0.7833  0.3722 -1.3123
16529SOL     OW51263   1.005   0.922   4.741  0.1655  0.0076  0.0470
16529SOL    HW151264   0.911   0.915   4.760  0.3750  0.0918  1.1387
16529SOL    HW251265   1.009   0.964   4.655 -0.8032 -0.1171 -0.0618
16530SOL     OW51266   6.139   6.688   7.400  0.2650 -0.2289  0.1140
16530SOL    HW151267   6.050   6.722   7.402  0.7215  1.0008  1.4571
16530SOL    HW251268   6.187   6.750   7.345  0.3540 -0.7000 -0.3375
16531SOL     OW51269   5.261   2.075   6.323  0.1002 -0.3779  0.2480
16531SOL    HW151270   5.240   2.168   6.330  0.3519 -0.3755  0.9331
16531SOL    HW251271   5.232   2.051   6.235  0.6609  0.5073 -0.1826
16532SOL     OW51272   8.527   1.087   3.422 -0.0682  0.2237  0.0286
16532SOL    HW151273   8.551   1.124   3.337 -0.3139  0.1307 -0.0839
16532SOL    HW251274   8.536   0.992   3.410  1.4984  0.2830  0.6075
16533SOL     OW51275   8.913   4.467   8.663  0.4568 -0.0835  1.1350
16533SOL    HW151276   8.906   4.531   8.593 -1.3073 -1.0138  0.4260
16533SOL    HW251277   8.982   4.407   8.635  1.1052  0.6663  1.1199
16534SOL     OW51278   4.883   7.532   3.826  0.0381  0.0115  0.0978
16534SOL    HW151279   4.956   7.470   3.834 -0.7518 -0.8337  0.8199
16534SOL    HW251280   4.920   7.616   3.854  0.4411 -0.6390  1.5451
16535SOL     OW51281   2.505   3.847   4.278 -0.3173  0.0900 -0.0534
16535SOL    HW151282   2.509   3.868   4.185 -0.1018 -1.9885 -0.5441
16535SOL    HW251283   2.419   3.807   4.290  0.2460 -1.0485  0.3063
16536SOL     OW51284   0.859   8.261   5.657 -0.7916 -0.2950  0.1828
16536SOL    HW151285   0.910   8.296   5.730  0.4304 -0.5706 -0.5226
16536SOL    HW251286   0.921   8.204   5.611 -2.1261 -1.6646  0.0705
16537SOL     OW51287   6.596   0.899   2.926 -0.7127 -0.1526 -0.2561
16537SOL    HW151288   6.609   0.878   2.833  1.2457  2.4704 -0.6446
16537SOL    HW251289   6.636   0.826   2.973  0.2936 -0.4126 -1.4884
16538SOL     OW51290   0.849   8.417   3.857 -0.1442 -0.2439 -0.1289
16538SOL    HW151291   0.936   8.443   3.886 -0.7120 -0.4267  1.7886
16538SOL    HW251292   0.806   8.499   3.832  0.5753 -0.1580 -1.1333
16539SOL     OW51293   5.187   4.432   1.954  0.2770 -0.4976  0.3682
16539SOL    HW151294   5.249   4.470   2.015 -0.6505  0.8992  0.4544
16539SOL    HW251295   5.172   4.500   1.888 -1.0300 -0.8807  0.2550
16540SOL     OW51296   7.125   8.751   0.871 -0.0942 -0.2310  0.1141
16540SOL    HW151297   7.212   8.743   0.910  0.8017  1.3687 -1.4855
16540SOL    HW251298   7.113   8.670   0.823  0.8779 -0.1136 -0.3416
16541SOL     OW51299   8.629   0.202   2.612 -0.0596  0.5851  0.4453
16541SOL    HW151300   8.644   0.146   2.535 -1.6205 -0.6999  1.0316
16541SOL    HW251301   8.603   0.286   2.575 -0.1576  0.1763 -0.4457
16542SOL     OW51302   6.982   3.762   8.779 -0.3504  0.0147  0.3599
16542SOL    HW151303   6.969   3.779   8.872  0.8698  3.1368  0.0149
16542SOL    HW251304   6.983   3.849   8.738  0.3630 -1.2237 -2.3997
16543SOL     OW51305   7.880   0.994   6.565 -0.4267  0.0044 -0.0551
16543SOL    HW151306   7.871   0.922   6.628 -0.2483 -0.7639 -0.9007
16543SOL    HW251307   7.816   1.059   6.595 -1.9193 -1.2803 -0.3274
16544SOL     OW51308   3.833   0.890   2.494  0.1155  0.1390 -0.5594
16544SOL    HW151309   3.921   0.910   2.461 -0.0283  0.9086 -0.4780
16544SOL    HW251310   3.781   0.874   2.416 -0.2433  2.0372 -0.7406
16545SOL     OW51311   3.933   1.892   8.940  0.1124 -0.3985  0.2354
16545SOL    HW151312   3.842   1.889   8.971  0.2367 -1.1111  0.5284
16545SOL    HW251313   3.983   1.927   9.013  0.0910 -0.0896  0.1045
16546SOL     OW51314   7.375   4.625   6.380 -0.4593  0.0291 -0.5868
16546SOL    HW151315   7.432   4.690   6.422 -0.9964 -0.4608  0.9433
16546SOL    HW251316   7.422   4.599   6.301  0.6060  0.9490 -0.2742
16547SOL     OW51317   2.934   5.259   8.017 -0.1108  0.3745 -0.0970
16547SOL    HW151318   2.852   5.307   8.024 -1.0523 -0.9402 -1.7509
16547SOL    HW251319   2.998   5.323   7.987 -0.8169  1.1148 -0.0235
16548SOL     OW51320   8.999   1.112   5.962  0.1938  0.0004  0.0670
16548SOL    HW151321   8.953   1.136   5.881 -0.2814  1.0491  0.6351
16548SOL    HW251322   9.002   1.193   6.013  0.2494 -0.7127  1.2200
16549SOL     OW51323   2.559   7.530   7.263 -0.1141 -0.1460  0.0490
16549SOL    HW151324   2.533   7.496   7.177 -0.4872  1.9915 -0.7183
16549SOL    HW251325   2.552   7.625   7.254  1.8132  0.2089  1.8099
16550SOL     OW51326   8.737   5.551   0.650 -0.2055  0.5640 -0.0498
16550SOL    HW151327   8.743   5.480   0.587 -0.9691 -0.0465  0.5532
16550SOL    HW251328   8.816   5.544   0.703  0.3832  1.0100 -0.8560
16551SOL     OW51329   6.672   5.024   3.208 -0.1078  0.1518  0.2960
16551SOL    HW151330   6.581   4.997   3.216  0.4732 -1.4658  1.7334
16551SOL    HW251331   6.712   4.959   3.150  0.8542 -1.0241  2.2344
16552SOL     OW51332   3.387   2.971   2.026 -0.3689 -0.1046 -0.4033
16552SOL    HW151333   3.466   2.921   2.008 -0.4820 -0.4818  0.1252
16552SOL    HW251334   3.399   3.053   1.978  0.4902 -0.0212 -0.0661
16553SOL     OW51335   6.957   7.842   2.139 -0.0546  0.3587 -0.6180
16553SOL    HW151336   6.867   7.861   2.113 -0.3755 -1.0771 -0.5958
16553SOL    HW251337   7.011   7.896   2.081 -0.9242  0.8458 -0.9707
16554SOL     OW51338   2.296   5.307   5.137  0.3631 -0.0234  0.1538
16554SOL    HW151339   2.341   5.382   5.175  0.7211 -0.9022  1.5103
16554SOL    HW251340   2.240   5.274   5.208 -0.4634 -0.5074 -0.7010
16555SOL     OW51341   7.152   2.287   1.760 -0.2786  0.8587 -0.2843
16555SOL    HW151342   7.185   2.305   1.672  0.1119 -1.8247 -0.7326
16555SOL    HW251343   7.060   2.264   1.747 -0.8775  2.7258  0.3265
16556SOL     OW51344   0.888   1.141   3.160  0.8665 -0.0136  0.0725
16556SOL    HW151345   0.883   1.236   3.148  2.4136 -0.0222 -0.6830
16556SOL    HW251346   0.910   1.130   3.253 -0.6377  0.3051  0.4958
16557SOL     OW51347   1.323   4.882   6.268  0.0894 -0.7103 -0.1951
16557SOL    HW151348   1.322   4.974   6.242  1.8899 -1.1224 -1.8817
16557SOL    HW251349   1.268   4.878   6.345 -1.8576  1.4035 -1.4075
16558SOL     OW51350   3.807   3.002   5.181  0.2046 -0.1871  0.3061
16558SOL    HW151351   3.812   2.958   5.097  0.0431  0.9359 -0.2967
16558SOL    HW251352   3.796   2.931   5.245 -1.3216 -0.9315 -0.7582
16559SOL     OW51353   3.028   2.085   3.926 -0.3222 -0.6521  0.2084
16559SOL    HW151354   2.995   2.086   3.836  0.3838 -0.3628 -0.0530
16559SOL    HW251355   3.025   2.177   3.953  1.1637 -0.4740 -0.1620
16560SOL     OW51356   3.895   6.295   3.183 -0.2836  0.2497  0.0734
16560SOL    HW151357   3.895   6.380   3.228 -1.4597 -0.0829  0.7055
16560SOL    HW251358   3.930   6.315   3.096 -1.1623  1.5079 -0.0079
16561SOL     OW51359   6.521   6.384   5.517 -0.5385 -0.1791  0.9306
16561SOL    HW151360   6.560   6.458   5.564  0.7293  0.9822 -1.8226
16561SOL    HW251361   6.579   6.311   5.537  0.5579  0.5301  0.3998
16562SOL     OW51362   0.983   2.746   6.950  0.0681 -0.4332 -0.2724
16562SOL    HW151363   0.935   2.788   7.021  0.4156 -0.5457  0.0269
16562SOL    HW251364   1.012   2.663   6.986  1.6424  0.2139 -0.0266
16563SOL     OW51365   7.879   3.371   2.104 -0.7223 -0.0569  0.1868
16563SOL    HW151366   7.853   3.283   2.130 -1.4193  0.2093  0.3843
16563SOL    HW251367   7.932   3.403   2.178  1.3644 -1.1123 -0.8003
16564SOL     OW51368   6.848   9.107   1.788  0.3360  0.6878  0.3310
16564SOL    HW151369   6.852   9.080   1.696  0.8965  1.1587  0.2149
16564SOL    HW251370   6.775   9.057   1.824 -0.5985  1.3065 -0.6488
16565SOL     OW51371   3.439   2.505   7.245  0.0314 -0.1820 -0.2692
16565SOL    HW151372   3.458   2.595   7.220 -1.0158  1.0190  2.9515
16565SOL    HW251373   3.348   2.491   7.219  0.4041 -0.5616 -1.3906
16566SOL     OW51374   6.940   0.490   2.534 -0.6862 -0.1041  0.0188
16566SOL    HW151375   6.861   0.512   2.483  0.0660 -0.1249 -1.1620
16566SOL    HW251376   6.971   0.575   2.566 -1.6299 -0.1750  1.1586
16567SOL     OW51377   2.505   3.502   2.457  0.3707 -0.0476  0.2675
16567SOL    HW151378   2.516   3.421   2.507 -0.5136  0.4818  1.3436
16567SOL    HW251379   2.532   3.572   2.517 -0.2931  0.5607 -0.1258
16568SOL     OW51380   6.833   8.141   5.661  0.1433 -0.1455  0.2333
16568SOL    HW151381   6.758   8.119   5.605  0.3130 -0.8837  0.2856
16568SOL    HW251382   6.832   8.236   5.666 -1.4862 -0.1985  1.1922
16569SOL     OW51383   9.085   6.028   4.118  0.4621 -0.0633 -0.5420
16569SOL    HW151384   9.048   5.971   4.185  0.9304 -0.7557 -0.8668
16569SOL    HW251385   9.114   6.106   4.166 -1.6685  0.6226 -0.3344
16570SOL     OW51386   3.674   5.729   8.713 -0.6279 -0.3383  0.1777
16570SOL    HW151387   3.613   5.664   8.678 -1.6987  0.1391  1.1196
16570SOL    HW251388   3.636   5.813   8.687  0.2452 -0.0650 -0.2181
16571SOL     OW51389   1.125   7.052   6.648 -1.2138 -0.4251  1.0378
16571SOL    HW151390   1.154   7.118   6.585  2.7898 -1.0621  2.0775
16571SOL    HW251391   1.142   7.091   6.734 -2.4260 -1.3041  1.6940
16572SOL     OW51392   6.276   5.441   1.838  0.2681 -0.3854 -0.2714
16572SOL    HW151393   6.304   5.454   1.748 -2.8330 -0.5176 -1.3172
16572SOL    HW251394   6.275   5.529   1.876 -2.6699  0.2775 -1.7423
16573SOL     OW51395   1.469   8.712   4.806 -0.1725  0.1043 -0.0497
16573SOL    HW151396   1.387   8.667   4.787  0.2605 -0.2466 -1.0945
16573SOL    HW251397   1.530   8.682   4.738  0.8863  0.1889  0.8342
16574SOL     OW51398   4.503   2.593   2.660  0.2992  0.1095  0.3109
16574SOL    HW151399   4.426   2.561   2.707  0.5713 -2.3120 -0.7949
16574SOL    HW251400   4.536   2.664   2.714 -2.4264  0.8783  1.0625
16575SOL     OW51401   5.133   1.093   3.530  0.1686  0.2917 -0.3419
16575SOL    HW151402   5.118   1.059   3.618  2.1543 -0.5525 -0.3055
16575SOL    HW251403   5.224   1.123   3.530 -0.1268  1.2632 -1.7878
16576SOL     OW51404   7.079   8.688   4.687  0.2452 -0.8028  0.6534
16576SOL    HW151405   7.072   8.689   4.592  1.4926  2.0529  0.5266
16576SOL    HW251406   7.142   8.618   4.706  1.1590 -0.3909 -0.7413
16577SOL     OW51407   9.025   1.849   6.874 -0.1627 -0.5077 -0.7981
16577SOL    HW151408   9.017   1.759   6.842  1.2982 -0.2476 -1.9667
16577SOL    HW251409   8.938   1.869   6.909 -0.8001 -2.0282 -1.4270
16578SOL     OW51410   3.643   0.251   2.480  0.6016  0.0791  0.0080
16578SOL    HW151411   3.605   0.245   2.392 -0.2382 -0.9373  0.4294
16578SOL    HW251412   3.723   0.199   2.475 -0.3320 -1.4215  0.2939
16579SOL     OW51413   2.517   5.411   8.866  0.5055  0.6236  0.1321
16579SOL    HW151414   2.427   5.441   8.850 -0.0331 -0.4690  1.0384
16579SOL    HW251415   2.508   5.346   8.935  1.8174 -0.6893 -0.9105
16580SOL     OW51416   0.385   0.299   0.214 -0.1825  0.1366  0.3503
16580SOL    HW151417   0.437   0.360   0.267  1.0583 -0.5130 -0.1171
16580SOL    HW251418   0.448   0.257   0.157 -1.0442 -1.5470  0.6094
16581SOL     OW51419   0.702   1.183   4.723 -0.3513  0.0983  0.3516
16581SOL    HW151420   0.629   1.234   4.687 -0.7704  1.5770  3.1739
16581SOL    HW251421   0.669   1.148   4.805  1.6897 -0.2870  1.0449
16582SOL     OW51422   0.431   1.499   6.061  0.0579 -0.1219 -0.1162
16582SOL    HW151423   0.344   1.460   6.073 -0.0736  0.3481  0.4505
16582SOL    HW251424   0.457   1.528   6.149  0.2843  0.8062 -0.4906
16583SOL     OW51425   0.475   6.710   3.269  0.1542 -0.0859 -0.0710
16583SOL    HW151426   0.495   6.716   3.363 -0.2897  3.6345 -0.1504
16583SOL    HW251427   0.436   6.623   3.258  1.5902 -1.1651  2.9117
16584SOL     OW51428   4.473   0.194   4.497 -0.0807  0.7539  0.1754
16584SOL    HW151429   4.524   0.237   4.428  0.3418 -0.9293 -0.5704
16584SOL    HW251430   4.386   0.184   4.459  0.1176 -0.0570 -0.0572
16585SOL     OW51431   8.502   7.883   3.839  0.4071 -0.1761 -0.4049
16585SOL    HW151432   8.548   7.943   3.781  1.0752 -0.8673 -0.6022
16585SOL    HW251433   8.572   7.834   3.883 -0.0782  0.3994  1.0548
16586SOL     OW51434   1.534   9.058   6.675 -0.0592 -0.2964 -0.0121
16586SOL    HW151435   1.479   9.041   6.751  0.6742 -1.0767  0.3553
16586SOL    HW251436   1.591   8.982   6.670  0.3447  0.0671 -0.9488
16587SOL     OW51437   2.532   4.677   6.915 -0.4671 -0.2630  0.5336
16587SOL    HW151438   2.597   4.622   6.872 -0.5184 -0.4169  0.6505
16587SOL    HW251439   2.577   4.710   6.993 -0.6311 -0.6251  0.7832
16588SOL     OW51440   7.496   3.290   4.850 -0.5846  0.1754 -0.1020
16588SOL    HW151441   7.487   3.215   4.909 -0.0403 -1.6647 -2.3103
16588SOL    HW251442   7.589   3.314   4.856 -0.5241 -0.0277 -0.2003
16589SOL     OW51443   6.940   4.884   0.572 -0.1910 -0.2007  0.4212
16589SOL    HW151444   6.915   4.970   0.537 -0.9558 -0.3630  0.5566
16589SOL    HW251445   6.867   4.827   0.549 -0.3521 -0.4815  1.5881
16590SOL     OW51446   4.467   5.419   1.264  0.2392 -0.3056  0.1905
16590SOL    HW151447   4.430   5.398   1.179  0.9605  0.0422 -0.2159
16590SOL    HW251448   4.392   5.440   1.319 -0.3511 -2.1055  0.0897
16591SOL     OW51449   0.163   4.568   2.454  0.0848 -0.3123 -0.2479
16591SOL    HW151450   0.102   4.631   2.415 -0.1753  1.0965  2.3260
16591SOL    HW251451   0.200   4.521   2.379 -1.1353  1.6123 -2.1138
16592SOL     OW51452   1.680   4.102   4.247 -0.2212 -0.2602  0.0287
16592SOL    HW151453   1.697   4.030   4.187  1.4404 -1.8857  2.3728
16592SOL    HW251454   1.589   4.088   4.275 -0.7700  0.1029 -1.4978
16593SOL     OW51455   6.623   5.574   5.159  0.5153  0.0991 -0.5167
16593SOL    HW151456   6.604   5.510   5.227 -0.3261  0.1937 -0.6449
16593SOL    HW251457   6.537   5.607   5.134  0.9987  1.7842  0.0317
16594SOL     OW51458   4.291   1.936   7.159  0.0264  0.4472 -0.5691
16594SOL    HW151459   4.304   1.842   7.171 -0.6344  0.3105 -0.9041
16594SOL    HW251460   4.199   1.950   7.180  0.1060  1.0093 -0.5894
16595SOL     OW51461   4.510   2.714   2.309 -0.3419  0.0624  0.2262
16595SOL    HW151462   4.453   2.733   2.383 -0.0609  1.1259  0.1841
16595SOL    HW251463   4.587   2.673   2.348 -0.0562  0.9136  0.5669
16596SOL     OW51464   3.893   0.548   6.328 -0.2258  0.8251 -0.5214
16596SOL    HW151465   3.947   0.588   6.396 -0.8630 -0.7685  0.9490
16596SOL    HW251466   3.957   0.511   6.266  0.4105 -0.9981  1.1751
16597SOL     OW51467   1.898   4.638   4.525 -0.0455 -0.3342 -0.4463
16597SOL    HW151468   1.844   4.715   4.505 -0.5261 -0.9270 -1.4427
16597SOL    HW251469   1.923   4.603   4.440 -0.4407 -1.7207 -0.0052
16598SOL     OW51470   8.383   5.382   3.264  0.0590  0.3985 -0.3136
16598SOL    HW151471   8.363   5.460   3.212  0.8706 -0.1452 -1.4681
16598SOL    HW251472   8.476   5.390   3.286  0.5766 -1.0295 -1.8530
16599SOL     OW51473   6.881   5.288   2.199 -0.3926  0.1956  0.1399
16599SOL    HW151474   6.818   5.344   2.153  0.9180  2.8155  1.4120
16599SOL    HW251475   6.912   5.342   2.272  0.1989 -2.5737  2.0200
16600SOL     OW51476   3.225   1.610   3.545 -0.1857 -0.0323 -0.2708
16600SOL    HW151477   3.243   1.697   3.580 -0.5564 -0.6348  1.4539
16600SOL    HW251478   3.167   1.626   3.470 -1.1718  1.1122  0.7262
16601SOL     OW51479   3.650   0.285   3.824  0.0484 -0.0265 -0.3610
16601SOL    HW151480   3.639   0.256   3.733 -1.1586 -0.2803 -0.1481
16601SOL    HW251481   3.711   0.222   3.862 -0.5027 -0.7306 -0.6283
16602SOL     OW51482   2.362   3.089   9.079  0.6312  0.2705  0.3250
16602SOL    HW151483   2.301   3.015   9.083  0.9724 -0.0336 -0.0187
16602SOL    HW251484   2.413   3.083   9.159 -0.3886  1.0512  1.0442
16603SOL     OW51485   2.046   0.804   4.618 -0.5130  0.2807 -0.1584
16603SOL    HW151486   2.133   0.833   4.646 -0.6348  1.8139 -1.2663
16603SOL    HW251487   1.988   0.829   4.690 -0.4953  2.2019 -0.7692
16604SOL     OW51488   5.583   6.331   6.487  0.5943  0.2250  0.4753
16604SOL    HW151489   5.649   6.293   6.428  0.2362 -1.6505  1.2328
16604SOL    HW251490   5.623   6.412   6.518  1.6989  0.1310 -0.6395
16605SOL     OW51491   4.266   4.854   7.548 -0.7056 -0.5532 -0.4599
16605SOL    HW151492   4.324   4.917   7.505 -0.2565 -0.9132 -0.3755
16605SOL    HW251493   4.198   4.836   7.482  0.6924 -2.0982 -1.5226
16606SOL     OW51494   5.388   3.089   3.422  0.5792 -0.3647  0.4162
16606SOL    HW151495   5.378   3.018   3.486  0.0781  2.0993  3.2032
16606SOL    HW251496   5.482   3.107   3.421  0.4078  0.7172  1.8042
16607SOL     OW51497   3.996   3.416   0.729  0.4548  0.1315  0.0351
16607SOL    HW151498   4.088   3.401   0.709  0.6765 -0.4026  1.4457
16607SOL    HW251499   3.969   3.482   0.664  1.1447 -1.5418 -2.0222
16608SOL     OW51500   2.783   2.754   6.684 -0.0612  0.1469 -0.2087
16608SOL    HW151501   2.756   2.828   6.739 -1.8966  0.2326 -1.2015
16608SOL    HW251502   2.726   2.682   6.710  1.6517 -0.9359  0.6791
16609SOL     OW51503   1.255   7.429   8.005 -0.7833 -0.4942 -0.2711
16609SOL    HW151504   1.343   7.464   7.995 -0.3168 -1.7482 -0.6148
16609SOL    HW251505   1.203   7.503   8.036  1.1249 -0.6074  3.4280
16610SOL     OW51506   8.112   1.231   7.960  0.1048 -0.2469 -0.3412
16610SOL    HW151507   8.041   1.167   7.970  1.4786 -1.8627 -0.6451
16610SOL    HW251508   8.161   1.200   7.884  1.4902  0.5113  0.2350
16611SOL     OW51509   5.757   7.880   9.084 -0.1007 -0.1831 -0.9256
16611SOL    HW151510   5.824   7.827   9.128 -0.2047 -0.5208 -1.1689
16611SOL    HW251511   5.723   7.823   9.015 -1.1615 -0.2792 -0.3352
16612SOL     OW51512   1.014   5.862   1.006  0.3283 -0.1644 -0.0981
16612SOL    HW151513   0.939   5.814   1.040 -0.9271  1.3338 -0.7360
16612SOL    HW251514   1.052   5.803   0.940  0.0898 -1.1659  0.6413
16613SOL     OW51515   1.579   1.394   8.427 -0.2782 -0.6076 -0.1689
16613SOL    HW151516   1.540   1.326   8.373 -0.1606 -0.9107  0.1272
16613SOL    HW251517   1.588   1.355   8.514 -0.9382  0.0447  0.2005
16614SOL     OW51518   3.522   6.093   7.944  0.7964 -0.7327  0.2297
16614SOL    HW151519   3.428   6.074   7.947  0.5016  0.7061  0.5830
16614SOL    HW251520   3.558   6.050   8.021  0.5645 -1.9869 -0.3585
16615SOL     OW51521   1.151   0.929   8.246 -0.4681  0.3286 -0.2403
16615SOL    HW151522   1.218   0.954   8.310 -0.5596 -0.4090  0.1603
16615SOL    HW251523   1.134   1.008   8.196  0.4164  0.6294 -0.0803
16616SOL     OW51524   8.369   4.786   0.115 -0.3286 -0.2672 -0.1209
16616SOL    HW151525   8.403   4.780   0.025 -0.0184 -1.1168  0.0521
16616SOL    HW251526   8.404   4.709   0.159 -0.3410  0.2374  0.7851
16617SOL     OW51527   7.759   8.951   1.950 -0.1837 -0.4243 -0.2274
16617SOL    HW151528   7.664   8.943   1.960 -0.2244  0.1377 -0.1545
16617SOL    HW251529   7.795   8.915   2.031 -0.3846  0.6951  0.3596
16618SOL     OW51530   9.147   1.253   8.657  0.2496  0.2869  0.2105
16618SOL    HW151531   9.236   1.234   8.628 -0.4520 -0.3704 -1.5503
16618SOL    HW251532   9.100   1.172   8.643 -1.2635  1.4131 -1.3764
16619SOL     OW51533   0.794   6.619   4.829  0.1451 -0.0876 -0.4336
16619SOL    HW151534   0.718   6.626   4.888 -0.5349  0.9893 -1.4280
16619SOL    HW251535   0.788   6.531   4.793 -2.2392  0.8995 -2.6130
16620SOL     OW51536   0.674   0.291   5.530 -0.1572  0.2118  0.1085
16620SOL    HW151537   0.743   0.273   5.466 -0.9550  0.6120 -0.8695
16620SOL    HW251538   0.721   0.296   5.614  1.1101  1.1208 -0.6259
16621SOL     OW51539   0.996   2.738   8.746  0.6147  0.2881  0.1190
16621SOL    HW151540   0.983   2.715   8.838 -1.4644  1.8680  0.2644
16621SOL    HW251541   0.950   2.669   8.697 -0.2084  0.6639  0.3491
16622SOL     OW51542   8.869   5.493   5.268  0.0331 -0.1409 -0.5431
16622SOL    HW151543   8.888   5.466   5.358  0.5116  1.6062 -0.0965
16622SOL    HW251544   8.829   5.579   5.277 -1.4697 -0.6646 -1.9281
16623SOL     OW51545   6.696   3.051   5.216 -0.1783 -0.2346  0.0568
16623SOL    HW151546   6.651   2.966   5.217 -0.0494 -0.3001  0.4157
16623SOL    HW251547   6.737   3.055   5.129 -0.8339 -0.1920 -0.2545
16624SOL     OW51548   5.637   4.891   8.727 -0.2828 -0.1526  0.7686
16624SOL    HW151549   5.603   4.823   8.669  0.6242  1.6595 -2.0035
16624SOL    HW251550   5.710   4.930   8.678 -1.1673  3.2089  1.9627
16625SOL     OW51551   0.991   6.979   8.259 -0.3350 -0.0063  0.0335
16625SOL    HW151552   0.910   6.931   8.240  1.9199 -3.1741 -2.0684
16625SOL    HW251553   0.988   6.996   8.353 -2.7943 -1.2999  0.2137
16626SOL     OW51554   8.544   5.241   3.991 -0.2124 -0.0823 -0.1584
16626SOL    HW151555   8.515   5.261   4.080 -0.0021  3.5153 -0.8372
16626SOL    HW251556   8.633   5.277   3.986 -0.2581 -0.1761 -1.8399
16627SOL     OW51557   0.399   2.109   4.536  0.7166 -0.1405 -0.0084
16627SOL    HW151558   0.405   2.015   4.553 -0.0319 -0.1768  0.0966
16627SOL    HW251559   0.420   2.118   4.443 -1.6717 -0.7128 -0.6512
16628SOL     OW51560   2.033   4.359   3.512 -0.1820 -0.6850  0.3711
16628SOL    HW151561   2.070   4.302   3.579 -0.2983  0.8580  1.8056
16628SOL    HW251562   1.996   4.432   3.562 -0.2053  0.5287 -1.3926
16629SOL     OW51563   3.088   6.421   0.230 -0.3171  0.6582 -0.5669
16629SOL    HW151564   3.140   6.367   0.171 -0.9107  0.9787 -1.3905
16629SOL    HW251565   3.152   6.477   0.274  0.0943  0.6791 -1.1805
16630SOL     OW51566   1.363   3.127   4.759  0.0731 -0.6950 -0.1471
16630SOL    HW151567   1.417   3.127   4.837 -1.4316 -0.4208  0.9200
16630SOL    HW251568   1.418   3.167   4.691  0.0516  2.6933  1.7365
16631SOL     OW51569   8.673   6.757   8.246 -0.2025  0.1123 -0.0184
16631SOL    HW151570   8.766   6.740   8.230 -0.2140  0.0090  0.0258
16631SOL    HW251571   8.654   6.835   8.193 -0.3723 -0.5526 -0.9562
16632SOL     OW51572   7.388   8.076   0.366 -0.2303  0.2326 -0.0621
16632SOL    HW151573   7.419   8.166   0.366 -3.2473  1.3505 -0.4387
16632SOL    HW251574   7.332   8.070   0.443 -1.1400 -0.9102 -0.7934
16633SOL     OW51575   9.216   0.116   7.169  0.6280  0.4690  0.0438
16633SOL    HW151576   9.130   0.156   7.179 -1.0102 -2.6982 -0.7037
16633SOL    HW251577   9.226   0.102   7.074  1.2184 -0.6631  0.2546
16634SOL     OW51578   0.507   4.263   0.622 -0.7333 -0.3714 -0.1438
16634SOL    HW151579   0.504   4.244   0.528  1.1481 -1.6345  0.0272
16634SOL    HW251580   0.496   4.178   0.664 -2.0179  0.2469  0.8171
16635SOL     OW51581   7.889   4.506   3.859 -0.2621 -0.1674  0.5450
16635SOL    HW151582   7.976   4.466   3.859 -0.5979 -0.9093 -0.6323
16635SOL    HW251583   7.903   4.594   3.894  0.9686 -0.2608  0.2836
16636SOL     OW51584   1.168   4.371   0.017  0.4175  0.5333  0.1924
16636SOL    HW151585   1.089   4.415   0.050 -0.5993  0.1428 -1.6295
16636SOL    HW251586   1.225   4.364   0.093 -2.0943 -0.9048  2.0477
16637SOL     OW51587   2.804   6.688   3.078 -0.2045 -0.2532 -0.1486
16637SOL    HW151588   2.848   6.604   3.095 -0.3764 -0.5889 -1.2908
16637SOL    HW251589   2.753   6.705   3.157  2.7770  0.6788  1.6651
16638SOL     OW51590   7.860   6.670   9.042  0.2758  0.1057 -0.1633
16638SOL    HW151591   7.888   6.656   9.132 -0.4669  0.8283  0.1887
16638SOL    HW251592   7.918   6.739   9.009 -1.9780  2.7130  1.0545
16639SOL     OW51593   1.200   0.767   5.931 -0.1706  0.2964  0.2730
16639SOL    HW151594   1.251   0.690   5.907 -1.5114 -0.4240 -0.2891
16639SOL    HW251595   1.202   0.768   6.027 -1.0128 -1.0432  0.3208
16640SOL     OW51596   1.864   6.670   1.117  0.7525 -0.0580 -0.1394
16640SOL    HW151597   1.824   6.614   1.049 -0.5559 -0.5855  1.0306
16640SOL    HW251598   1.889   6.749   1.070 -0.2122 -0.3750 -1.2422
16641SOL     OW51599   1.847   1.827   1.098  0.1239  0.5953 -0.2376
16641SOL    HW151600   1.914   1.890   1.071  0.6800  0.3760  0.6039
16641SOL    HW251601   1.856   1.755   1.036 -0.8477  1.5450 -1.5195
16642SOL     OW51602   6.555   2.166   0.812 -0.1950  0.1517  0.0125
16642SOL    HW151603   6.533   2.095   0.751  0.8884  0.9787 -1.3429
16642SOL    HW251604   6.621   2.218   0.767 -0.8139  1.9245  1.0814
16643SOL     OW51605   3.329   7.045   3.581  0.2941  0.2845 -0.8591
16643SOL    HW151606   3.296   6.955   3.585  0.0506  0.3166 -1.9437
16643SOL    HW251607   3.312   7.072   3.491  0.5446  1.3541 -0.5837
16644SOL     OW51608   8.566   6.366   7.743  0.5157  0.3498  0.2775
16644SOL    HW151609   8.519   6.401   7.819  0.7205 -1.8398  1.4781
16644SOL    HW251610   8.637   6.428   7.728  1.2468  0.1828  2.7236
16645SOL     OW51611   1.368   8.994   2.272  0.4992  0.1691 -0.1955
16645SOL    HW151612   1.336   9.057   2.208  0.5714  0.7537  0.3392
16645SOL    HW251613   1.315   8.916   2.257  2.1769 -0.5667 -2.6221
16646SOL     OW51614   4.318   6.263   2.044  0.3404  0.9162 -0.2479
16646SOL    HW151615   4.385   6.201   2.016  2.3520  2.8474  0.0918
16646SOL    HW251616   4.257   6.268   1.970  0.3526 -1.1533 -0.4107
16647SOL     OW51617   3.516   0.529   3.360 -0.5121  0.1972  0.1216
16647SOL    HW151618   3.478   0.588   3.426  0.5443  1.3900 -0.3200
16647SOL    HW251619   3.541   0.587   3.288  0.8424 -0.7626 -0.1860
16648SOL     OW51620   4.888   2.291   6.749 -0.0651 -0.0433 -0.1682
16648SOL    HW151621   4.851   2.265   6.664  0.6615  1.7636 -1.0633
16648SOL    HW251622   4.822   2.347   6.788 -0.3705 -0.8226  0.4428
16649SOL     OW51623   0.178   0.474   7.554  0.0096  0.8171  0.0725
16649SOL    HW151624   0.092   0.461   7.513  0.5066  0.8621 -0.9802
16649SOL    HW251625   0.207   0.386   7.578  0.1816  0.6845 -0.6123
16650SOL     OW51626   5.817   1.233   5.188 -0.0085  0.0922 -0.2682
16650SOL    HW151627   5.767   1.235   5.270 -2.0115  1.7186 -1.4698
16650SOL    HW251628   5.814   1.141   5.161 -3.6712  0.3217 -1.0010
16651SOL     OW51629   1.650   7.043   4.330 -0.1671  0.3292  0.3019
16651SOL    HW151630   1.647   7.139   4.326  0.5035  0.3616  0.5413
16651SOL    HW251631   1.656   7.024   4.424 -2.4109 -0.0166  0.4104
16652SOL     OW51632   5.576   5.604   2.890 -0.1959 -0.4652 -0.4596
16652SOL    HW151633   5.616   5.598   2.977 -1.2960  0.8379  0.1388
16652SOL    HW251634   5.512   5.675   2.897 -1.4209 -1.3938 -1.8828
16653SOL     OW51635   3.142   3.846   6.303  0.2130 -0.3581  0.2433
16653SOL    HW151636   3.093   3.795   6.367 -1.0432 -2.1322 -2.0747
16653SOL    HW251637   3.082   3.856   6.229  1.9708  0.8351 -1.0713
16654SOL     OW51638   7.159   1.303   6.688  0.2692 -0.2916 -0.3246
16654SOL    HW151639   7.129   1.360   6.759  0.5105  0.5377 -0.8855
16654SOL    HW251640   7.078   1.274   6.646  0.2018  1.1212 -1.1898
16655SOL     OW51641   8.286   8.451   0.021  0.0723 -0.0746  0.7784
16655SOL    HW151642   8.243   8.377  -0.021 -0.0136  0.6306 -0.3780
16655SOL    HW251643   8.315   8.507  -0.051  2.7793 -0.4298  1.5151
16656SOL     OW51644   3.443   1.378   2.658  0.1115  0.0523 -0.4701
16656SOL    HW151645   3.471   1.454   2.709 -3.3324 -0.7557  2.8520
16656SOL    HW251646   3.494   1.305   2.693  0.0872  0.0637 -0.4102
16657SOL     OW51647   2.357   1.084   5.240 -0.4548  0.0900 -0.2694
16657SOL    HW151648   2.396   1.166   5.208  1.4609 -1.0714 -0.9465
16657SOL    HW251649   2.302   1.054   5.168  0.1887 -0.0862 -0.6979
16658SOL     OW51650   5.282   1.439   3.566 -0.4722 -0.3077  0.9915
16658SOL    HW151651   5.300   1.504   3.498 -0.1883  0.0403  1.3990
16658SOL    HW251652   5.366   1.427   3.610 -0.2510 -1.8026  0.1786
16659SOL     OW51653   2.822   8.939   5.576 -0.5679  0.5480  0.0619
16659SOL    HW151654   2.739   8.904   5.609  0.1906 -3.7001 -2.2363
16659SOL    HW251655   2.883   8.930   5.649 -0.7059 -1.8527 -0.1020
16660SOL     OW51656   0.816   7.213   1.444 -0.1409 -0.3192 -0.0501
16660SOL    HW151657   0.871   7.198   1.521 -0.6893  3.4864  1.2004
16660SOL    HW251658   0.729   7.185   1.471 -0.3764  1.2165  0.8173
16661SOL     OW51659   7.865   6.696   8.054 -0.3418 -0.4450 -0.0161
16661SOL    HW151660   7.925   6.768   8.033  1.1312 -2.0865 -1.7041
16661SOL    HW251661   7.855   6.700   8.149  0.7262  1.2293  0.0440
16662SOL     OW51662   5.731   5.733   3.603  0.7553  0.4063 -0.2549
16662SOL    HW151663   5.686   5.775   3.676  1.3232  1.8641 -0.7175
16662SOL    HW251664   5.771   5.654   3.641  1.2579  1.2829  1.0711
16663SOL     OW51665   3.019   5.434   2.207  0.2966  0.4835 -0.3235
16663SOL    HW151666   3.026   5.520   2.164 -0.1313 -0.1341 -1.6728
16663SOL    HW251667   2.946   5.444   2.268 -0.5838  0.7300 -1.3821
16664SOL     OW51668   6.311   2.691   4.664  0.1380 -0.2505 -0.4881
16664SOL    HW151669   6.222   2.691   4.628  0.6010 -2.3476 -1.7275
16664SOL    HW251670   6.362   2.746   4.605 -0.3550  1.1464  0.3565
16665SOL     OW51671   4.291   2.711   7.301  0.3257  0.1769 -0.2281
16665SOL    HW151672   4.313   2.780   7.364  1.4899 -0.7849  0.4485
16665SOL    HW251673   4.340   2.734   7.222 -0.3761  0.8598 -0.4765
16666SOL     OW51674   8.748   1.972   1.847 -0.2842  0.3591  0.0129
16666SOL    HW151675   8.828   1.940   1.889 -0.8795 -1.1102  0.0725
16666SOL    HW251676   8.779   2.019   1.770  0.5858 -2.1253 -1.2258
16667SOL     OW51677   6.933   5.684   5.732 -0.0451  0.7655 -0.5664
16667SOL    HW151678   6.955   5.593   5.755  0.0593  0.8302 -0.4116
16667SOL    HW251679   6.943   5.733   5.813  2.5424  1.4049 -1.2302
16668SOL     OW51680   6.917   5.921   0.059  0.0074 -0.3541  0.1890
16668SOL    HW151681   6.830   5.881   0.056 -0.2929  0.1869  1.3580
16668SOL    HW251682   6.968   5.863   0.114  0.6138 -1.0894 -1.1401
16669SOL     OW51683   2.681   4.204   6.699 -0.1981  0.1278  0.1799
16669SOL    HW151684   2.741   4.271   6.733  0.3594 -0.4666  0.3762
16669SOL    HW251685   2.622   4.185   6.773  0.2726 -0.3179  0.4417
16670SOL     OW51686   5.689   5.478   0.057 -0.2846  0.6829 -0.6639
16670SOL    HW151687   5.720   5.405   0.110  1.9127  0.4435 -2.2010
16670SOL    HW251688   5.719   5.556   0.104  1.6498  0.4726 -1.4901
16671SOL     OW51689   1.289   2.715   3.915  0.4637  0.1166 -0.0234
16671SOL    HW151690   1.375   2.711   3.874  0.3639  1.0922 -0.3317
16671SOL    HW251691   1.304   2.758   3.999  0.5617 -1.2965  0.6955
16672SOL     OW51692   3.933   4.675   0.542  0.5906 -0.4923  0.2623
16672SOL    HW151693   3.986   4.725   0.480 -0.5390  2.0374  1.2433
16672SOL    HW251694   3.842   4.694   0.517  0.1065  1.0690  2.9635
16673SOL     OW51695   2.763   1.262   8.408 -0.3723 -0.3322  0.2676
16673SOL    HW151696   2.781   1.334   8.347  0.5167  0.5854  1.5887
16673SOL    HW251697   2.791   1.184   8.362  3.2518  0.6560  0.6674
16674SOL     OW51698   4.289   6.692   4.054 -0.4313  0.1175  0.1482
16674SOL    HW151699   4.364   6.652   4.010  0.1763  2.5575 -1.1563
16674SOL    HW251700   4.326   6.735   4.131 -0.4933  1.1356 -0.3756
16675SOL     OW51701   1.827   6.279   5.937 -0.1158  0.4060  0.0678
16675SOL    HW151702   1.816   6.371   5.911  0.4046  0.8534  1.3668
16675SOL    HW251703   1.775   6.271   6.017 -1.9255 -1.0223 -1.2005
16676SOL     OW51704   7.485   6.476   7.211  0.7379  0.2663 -0.4413
16676SOL    HW151705   7.421   6.447   7.277  1.7141  2.9394  1.8069
16676SOL    HW251706   7.565   6.428   7.233  0.6756  0.0812 -0.6138
16677SOL     OW51707   1.033   7.881   1.303  0.0002 -0.5464 -0.2503
16677SOL    HW151708   1.022   7.960   1.356 -0.4202 -1.2669  0.7540
16677SOL    HW251709   1.094   7.826   1.353  0.2017 -0.9133 -0.8831
16678SOL     OW51710   7.478   2.716   4.525 -0.7629  0.5248 -0.8876
16678SOL    HW151711   7.527   2.669   4.592  0.0372 -1.0271 -2.5184
16678SOL    HW251712   7.535   2.716   4.448 -2.0164  1.4857 -1.8511
16679SOL     OW51713   8.674   6.335   4.840  0.2440 -0.0717 -0.2372
16679SOL    HW151714   8.611   6.357   4.771 -0.6542  1.7921  1.1376
16679SOL    HW251715   8.736   6.408   4.840  1.5281 -1.1377 -0.5235
16680SOL     OW51716   7.510   2.930   4.884  0.4982 -0.2091  0.1941
16680SOL    HW151717   7.589   2.890   4.921 -0.1113 -0.3475  1.3732
16680SOL    HW251718   7.438   2.890   4.933 -0.2450  0.7190 -0.1341
16681SOL     OW51719   0.742   2.998   4.567  0.2003 -0.4374  0.2819
16681SOL    HW151720   0.728   2.904   4.555 -0.3196 -0.2142 -0.9903
16681SOL    HW251721   0.669   3.027   4.621  0.9313 -0.9398  1.5601
16682SOL     OW51722   0.772   4.373   2.607  0.2734  0.5102  0.1734
16682SOL    HW151723   0.718   4.302   2.573  2.4671 -0.0930 -2.1371
16682SOL    HW251724   0.715   4.417   2.671 -1.4929 -2.6042  0.8643
16683SOL     OW51725   7.368   2.675   4.206  0.0364  0.2330 -0.0872
16683SOL    HW151726   7.444   2.687   4.263 -0.2260  1.5411  0.0004
16683SOL    HW251727   7.404   2.675   4.118  0.3933 -1.3805  0.0363
16684SOL     OW51728   7.310   3.797   0.178  0.1527 -0.7684  0.3470
16684SOL    HW151729   7.326   3.721   0.122 -0.7140 -1.7022  1.3454
16684SOL    HW251730   7.215   3.799   0.188  0.0794  1.0581 -0.4860
16685SOL     OW51731   2.949   6.125   6.183 -0.6046 -0.1924 -0.4090
16685SOL    HW151732   2.897   6.062   6.234  1.0693 -1.6119 -0.3978
16685SOL    HW251733   3.013   6.071   6.137 -0.5846  1.3144 -2.2066
16686SOL     OW51734   9.274   0.961   8.712 -0.0861  0.3102  0.5605
16686SOL    HW151735   9.179   0.946   8.710 -0.0134 -0.1496  0.6661
16686SOL    HW251736   9.309   0.888   8.764  0.2431  0.9110  1.1966
16687SOL     OW51737   1.776   6.812   3.857  0.3197  0.2564 -0.2519
16687SOL    HW151738   1.833   6.866   3.802  1.5769 -1.0407 -0.2489
16687SOL    HW251739   1.808   6.723   3.843 -2.1691 -0.5793 -0.7826
16688SOL     OW51740   6.535   2.577   6.484 -0.2036  0.0700  0.0450
16688SOL    HW151741   6.507   2.662   6.450  0.5271  1.1968  2.1619
16688SOL    HW251742   6.490   2.513   6.429 -1.6279  1.8205 -0.8878
16689SOL     OW51743   8.432   4.971   2.496  0.0367  0.3227  0.1405
16689SOL    HW151744   8.398   4.962   2.586  0.8106  0.4996  0.4523
16689SOL    HW251745   8.362   4.936   2.441 -0.2998 -0.1158  0.8369
16690SOL     OW51746   4.073   0.765   7.540 -0.2399  0.2014 -0.0817
16690SOL    HW151747   4.132   0.705   7.494 -0.8716 -0.0148 -0.6023
16690SOL    HW251748   4.122   0.790   7.619  0.1022 -0.8372  0.0410
16691SOL     OW51749   8.557   6.249   2.498 -0.0187 -0.6441 -0.0078
16691SOL    HW151750   8.605   6.317   2.546 -1.3191 -0.1798  0.6503
16691SOL    HW251751   8.594   6.252   2.409  0.9699 -0.1052  0.4117
16692SOL     OW51752   0.543   2.302   2.672  0.1875 -0.2977 -0.0241
16692SOL    HW151753   0.530   2.217   2.715  0.4563 -1.2850 -1.8168
16692SOL    HW251754   0.507   2.366   2.733  0.0657 -1.6978  1.4059
16693SOL     OW51755   8.816   3.190   2.034  0.1461 -0.1778 -0.1369
16693SOL    HW151756   8.733   3.224   2.001 -0.5287 -0.7701  0.8944
16693SOL    HW251757   8.855   3.264   2.082  0.0875  0.0255 -0.4036
16694SOL     OW51758   6.107   4.425   5.658  0.4670  0.4201 -0.2035
16694SOL    HW151759   6.043   4.486   5.693  0.5463  1.7133 -2.2850
16694SOL    HW251760   6.186   4.478   5.644  0.9795 -0.4661 -0.7241
16695SOL     OW51761   3.810   5.474   6.059  0.1499 -0.6260 -0.0256
16695SOL    HW151762   3.845   5.386   6.046  1.1722 -0.1244 -0.7232
16695SOL    HW251763   3.878   5.532   6.025 -1.4267  0.3590 -1.5409
16696SOL     OW51764   3.277   4.361   3.660 -0.3613  0.2072  0.3660
16696SOL    HW151765   3.280   4.406   3.576 -1.5339 -2.6694 -1.3025
16696SOL    HW251766   3.365   4.372   3.696  0.2356  1.2669 -1.3484
16697SOL     OW51767   0.297   1.199   8.164  0.1244 -0.4430  0.2396
16697SOL    HW151768   0.302   1.105   8.147  2.4108  0.0797 -2.3438
16697SOL    HW251769   0.385   1.224   8.191 -0.6737  0.8352  1.8023
16698SOL     OW51770   8.657   8.250   5.815 -0.1288 -0.3402  0.2855
16698SOL    HW151771   8.615   8.188   5.756  0.1167  0.1190 -0.3816
16698SOL    HW251772   8.597   8.324   5.820  0.1990 -0.0526  0.0073
16699SOL     OW51773   3.229   8.192   3.865 -0.0079  0.0009 -0.2878
16699SOL    HW151774   3.199   8.114   3.818  0.2802 -0.0438 -0.4021
16699SOL    HW251775   3.315   8.211   3.826 -0.7005  1.2121 -1.2419
16700SOL     OW51776   4.284   5.263   2.735 -0.7799 -0.4841 -0.5315
16700SOL    HW151777   4.233   5.246   2.814 -0.2270 -0.7897 -0.2429
16700SOL    HW251778   4.320   5.351   2.748 -0.6804 -0.5386 -0.4444
16701SOL     OW51779   4.996   3.767   4.828 -0.6495 -0.2054  0.2963
16701SOL    HW151780   5.012   3.698   4.892 -0.0442 -0.5807 -0.2600
16701SOL    HW251781   5.056   3.837   4.853 -0.9484 -0.0488  0.5898
16702SOL     OW51782   6.048   5.911   7.483 -0.1020  0.0963  0.0536
16702SOL    HW151783   6.011   5.991   7.444 -2.1839 -0.2511  1.2484
16702SOL    HW251784   6.084   5.940   7.567 -0.3446 -0.1080  0.2297
16703SOL     OW51785   1.167   0.054   3.375 -0.1638  0.5034  0.5648
16703SOL    HW151786   1.115   0.019   3.303  0.5569  0.4729  0.0490
16703SOL    HW251787   1.250   0.008   3.369  0.9061  2.4604 -0.2983
16704SOL     OW51788   0.189   3.242   8.888 -0.2603 -0.3278  0.8514
16704SOL    HW151789   0.223   3.324   8.853 -1.0453 -0.1018  0.5937
16704SOL    HW251790   0.096   3.261   8.905 -0.2126 -0.8718  1.6926
16705SOL     OW51791   3.996   9.027   2.578  0.7369 -0.1417 -0.0835
16705SOL    HW151792   4.087   8.999   2.568  0.6102 -0.3685 -0.6046
16705SOL    HW251793   4.002   9.118   2.607  1.1741 -0.8066  2.0492
16706SOL     OW51794   2.694   6.660   8.704 -0.0693 -0.5055 -0.1323
16706SOL    HW151795   2.628   6.676   8.637  1.0787 -0.7187 -1.3450
16706SOL    HW251796   2.746   6.587   8.669  0.0057 -1.2134  1.4001
16707SOL     OW51797   2.022   5.415   8.267 -0.4022  0.3209 -0.2532
16707SOL    HW151798   1.931   5.389   8.282 -0.1411 -0.9209 -0.7039
16707SOL    HW251799   2.072   5.368   8.334  0.0858 -0.3474 -1.0749
16708SOL     OW51800   2.447   8.947   0.448 -0.4734  0.3913 -0.2914
16708SOL    HW151801   2.398   8.884   0.501  0.2219  1.3618  1.5299
16708SOL    HW251802   2.539   8.928   0.467 -0.2486  1.6970 -0.0211
16709SOL     OW51803   2.030   5.785   4.551 -0.2862 -0.2934  0.0737
16709SOL    HW151804   1.977   5.732   4.491 -0.4963  0.4233 -0.3742
16709SOL    HW251805   2.074   5.721   4.607 -1.4209 -0.9070  0.2786
16710SOL     OW51806   6.691   4.437   6.088 -0.5129  0.5995  0.4999
16710SOL    HW151807   6.597   4.435   6.070 -0.5804  1.3374  0.7794
16710SOL    HW251808   6.701   4.376   6.162 -0.5464 -0.6619 -0.5111
16711SOL     OW51809   1.307   0.353   3.486  0.3541  0.1943 -0.3423
16711SOL    HW151810   1.241   0.291   3.517  0.4671 -0.1248 -0.7330
16711SOL    HW251811   1.366   0.363   3.560 -0.6543  1.2123  0.3351
16712SOL     OW51812   0.198   7.730   2.388  0.2154 -0.4703  0.2418
16712SOL    HW151813   0.176   7.637   2.401 -0.1364 -0.4020  0.1280
16712SOL    HW251814   0.237   7.757   2.471 -0.7436 -0.4138  0.6774
16713SOL     OW51815   3.331   7.360   2.918  0.1973 -0.0699  0.2033
16713SOL    HW151816   3.346   7.372   3.012  2.6124  0.4905 -0.2177
16713SOL    HW251817   3.322   7.265   2.907  0.1197 -0.1575  0.9767
16714SOL     OW51818   3.566   8.394   4.704  0.4984  0.1345 -0.1984
16714SOL    HW151819   3.483   8.412   4.747  0.2552 -2.2845  0.4500
16714SOL    HW251820   3.632   8.398   4.774  0.3645 -1.8255  0.0877
16715SOL     OW51821   2.120   8.423   1.197  0.0769 -0.6807 -0.4580
16715SOL    HW151822   2.029   8.407   1.222 -0.6175  0.6886 -2.0316
16715SOL    HW251823   2.157   8.471   1.272 -0.9418  0.1705 -0.4924
16716SOL     OW51824   4.794   2.494   3.672  0.3958 -0.5984  0.0416
16716SOL    HW151825   4.869   2.482   3.614  0.3141 -1.2090  0.0568
16716SOL    HW251826   4.820   2.563   3.733  1.1047 -1.1114  0.3184
16717SOL     OW51827   1.205   1.809   5.718  0.2648 -0.1122  0.5999
16717SOL    HW151828   1.212   1.737   5.781 -1.2634 -0.0980  0.7918
16717SOL    HW251829   1.181   1.885   5.771  4.4199  1.1909  0.8066
16718SOL     OW51830   4.813   4.677   1.925 -0.8591 -0.2701 -0.3061
16718SOL    HW151831   4.724   4.704   1.904 -1.3331 -1.5334  0.0338
16718SOL    HW251832   4.823   4.696   2.019  0.2013  2.4627 -0.9073
16719SOL     OW51833   8.255   1.705   2.761  0.5781 -0.2919 -0.4968
16719SOL    HW151834   8.324   1.665   2.708 -0.3767 -2.2782 -0.2911
16719SOL    HW251835   8.240   1.642   2.832 -1.8707 -0.2069 -0.8911
16720SOL     OW51836   2.222   7.392   0.529  0.5709 -0.5441  0.5042
16720SOL    HW151837   2.231   7.476   0.484  0.4409 -0.0525  1.3814
16720SOL    HW251838   2.261   7.328   0.470 -0.8748 -0.1121 -0.9557
16721SOL     OW51839   0.319   0.944   8.089  0.2344  0.1652 -0.3750
16721SOL    HW151840   0.272   0.862   8.103  0.3076  0.3384  0.9446
16721SOL    HW251841   0.399   0.919   8.043  0.2163 -0.4902 -0.0460
16722SOL     OW51842   6.676   1.415   5.822 -0.0686  0.2054 -0.3058
16722SOL    HW151843   6.627   1.379   5.896 -0.3723  1.1584 -0.0368
16722SOL    HW251844   6.767   1.418   5.852 -0.0625 -0.2230 -0.2862
16723SOL     OW51845   3.668   7.223   3.806 -0.4766 -0.1594  0.4242
16723SOL    HW151846   3.754   7.228   3.848 -0.5727 -0.5921  0.6730
16723SOL    HW251847   3.649   7.313   3.778 -0.0128 -0.0378  0.5060
16724SOL     OW51848   6.373   7.381   2.277 -0.0007 -0.6835  0.0001
16724SOL    HW151849   6.380   7.418   2.365 -1.8286  0.1131 -0.1779
16724SOL    HW251850   6.463   7.380   2.245  0.3317  1.9813  0.6839
16725SOL     OW51851   0.079   8.939   9.080  0.4699  0.2895  0.6450
16725SOL    HW151852   0.141   8.896   9.139 -0.1584 -0.1496  1.0022
16725SOL    HW251853   0.008   8.967   9.138  1.0862  2.2126  0.4813
16726SOL     OW51854   1.460   7.935   3.653 -0.1294  0.3540 -0.3032
16726SOL    HW151855   1.438   7.980   3.571  0.7518 -0.4406 -0.9921
16726SOL    HW251856   1.440   7.998   3.721  1.1161  1.8241 -1.2547
16727SOL     OW51857   7.191   2.084   6.917  0.2078  0.0459  0.1764
16727SOL    HW151858   7.197   2.170   6.877  0.6392 -0.3360 -0.5966
16727SOL    HW251859   7.278   2.069   6.956  0.0968  0.0090  0.4152
16728SOL     OW51860   6.830   6.998   6.871  0.6298  0.3975  0.2123
16728SOL    HW151861   6.745   6.967   6.838  0.6368  0.8066 -0.2102
16728SOL    HW251862   6.845   6.949   6.951  0.0505  0.2265  0.2175
16729SOL     OW51863   5.421   3.646   4.465 -0.5065  0.6691 -0.4504
16729SOL    HW151864   5.431   3.552   4.449  1.3543  0.7895 -0.1129
16729SOL    HW251865   5.476   3.688   4.398 -1.0869  1.5051 -0.4135
16730SOL     OW51866   2.946   3.730   0.839 -0.3622 -0.5363 -0.7374
16730SOL    HW151867   2.976   3.795   0.903  0.4974 -2.3441  0.7442
16730SOL    HW251868   2.912   3.782   0.767  1.9536  1.5835 -0.3737
16731SOL     OW51869   1.713   4.033   4.613 -0.1866 -0.3928 -0.5005
16731SOL    HW151870   1.723   4.047   4.519  0.9140 -0.8600 -0.4648
16731SOL    HW251871   1.767   3.956   4.632 -2.4486 -1.8929  0.0856
16732SOL     OW51872   7.446   6.313   5.385 -0.2801  0.2119  0.0747
16732SOL    HW151873   7.451   6.400   5.345 -1.0515 -0.2273 -1.0036
16732SOL    HW251874   7.373   6.270   5.340 -2.0234  0.1388  2.8265
16733SOL     OW51875   6.328   2.264   5.644  0.0408  0.1436  0.4097
16733SOL    HW151876   6.246   2.306   5.618  0.9741  2.0032  0.4309
16733SOL    HW251877   6.382   2.266   5.565  0.1322 -0.9579  0.4328
16734SOL     OW51878   5.379   4.610   5.949 -0.5352  0.2578 -0.0260
16734SOL    HW151879   5.437   4.587   5.877  0.0716 -0.8153  0.7918
16734SOL    HW251880   5.291   4.593   5.916 -0.1712 -2.0584  0.1241
16735SOL     OW51881   2.907   7.080   4.655  0.2092  0.0516 -0.1407
16735SOL    HW151882   2.954   7.158   4.625 -1.1488  0.9046 -0.1202
16735SOL    HW251883   2.857   7.110   4.731 -1.0744 -0.5968 -0.7141
16736SOL     OW51884   2.239   1.864   3.558  0.0983 -0.0432  0.0885
16736SOL    HW151885   2.181   1.844   3.485  2.1316  1.0530 -1.8897
16736SOL    HW251886   2.278   1.780   3.582  0.0226 -0.2787 -0.6104
16737SOL     OW51887   3.406   7.660   3.529 -0.7090  0.0523 -0.1266
16737SOL    HW151888   3.383   7.569   3.513 -1.4881  0.4819 -1.5127
16737SOL    HW251889   3.327   7.710   3.507 -0.2845  1.0655  0.5869
16738SOL     OW51890   7.163   0.613   7.925 -0.2587  0.3259  0.0427
16738SOL    HW151891   7.095   0.580   7.865 -0.4930  0.8519  0.0225
16738SOL    HW251892   7.230   0.649   7.867  0.2741 -0.6267  0.0421
16739SOL     OW51893   3.656   2.431   8.618  0.2676 -0.1691 -0.2232
16739SOL    HW151894   3.578   2.481   8.596 -0.4221 -0.5011  1.3877
16739SOL    HW251895   3.729   2.486   8.590 -0.5157  0.9848 -0.0302
16740SOL     OW51896   7.902   1.771   5.060 -0.3518  0.0014  0.4791
16740SOL    HW151897   7.950   1.688   5.055  0.8635  0.5716  2.2334
16740SOL    HW251898   7.884   1.783   5.154 -0.3428  1.8084  0.2710
16741SOL     OW51899   3.541   3.584   5.770 -1.0012 -0.5594  0.2983
16741SOL    HW151900   3.477   3.647   5.803 -2.2038 -0.7530 -1.5925
16741SOL    HW251901   3.540   3.512   5.834  0.4186  1.2921  2.5090
16742SOL     OW51902   0.065   6.698   8.974 -0.1850 -0.1505 -0.6398
16742SOL    HW151903   0.088   6.788   8.952 -1.5080  0.0027 -1.4400
16742SOL    HW251904   0.058   6.654   8.889  0.4065 -0.9929 -0.2487
16743SOL     OW51905   6.563   2.443   6.908  0.3725 -0.2719  0.5564
16743SOL    HW151906   6.636   2.398   6.951 -0.2320  0.2000  2.1139
16743SOL    HW251907   6.486   2.392   6.934 -0.1282  0.7064  1.0019
16744SOL     OW51908   9.237   7.517   0.335  0.6278  0.7695  0.0344
16744SOL    HW151909   9.204   7.572   0.264  0.8217 -0.1384 -0.7566
16744SOL    HW251910   9.162   7.464   0.361  0.7245  0.6624  0.0944
16745SOL     OW51911   3.450   2.701   3.078  0.6504  0.7292 -0.2929
16745SOL    HW151912   3.513   2.683   3.148  0.1630  0.6405  0.1218
16745SOL    HW251913   3.365   2.697   3.120  0.4056  1.6815 -0.6816
16746SOL     OW51914   4.718   5.307   1.315 -0.1676  0.3739  0.4511
16746SOL    HW151915   4.689   5.216   1.325  1.5468 -0.4340 -1.3768
16746SOL    HW251916   4.641   5.354   1.284 -1.7038  0.0536  3.6469
16747SOL     OW51917   8.993   1.354   3.480 -0.6227  0.2409 -0.2113
16747SOL    HW151918   8.968   1.416   3.548 -1.4225  0.8901 -1.0827
16747SOL    HW251919   8.921   1.290   3.479  0.1690 -0.6805  0.6444
16748SOL     OW51920   6.021   4.835   4.717  0.0714  0.3054  0.1055
16748SOL    HW151921   5.979   4.861   4.799 -1.8591 -1.6319 -0.2389
16748SOL    HW251922   6.025   4.915   4.666 -0.7441  1.0750  1.2227
16749SOL     OW51923   4.708   3.115   4.594 -0.2637 -0.1720  0.0179
16749SOL    HW151924   4.800   3.130   4.616 -0.3951  1.8156 -0.6711
16749SOL    HW251925   4.664   3.108   4.678  0.2429  0.7338  0.3691
16750SOL     OW51926   5.578   3.894   8.944  0.1616 -0.2508 -0.3299
16750SOL    HW151927   5.667   3.894   8.980 -0.0554 -3.2693  0.3701
16750SOL    HW251928   5.525   3.856   9.015 -1.1329 -1.4140 -1.8987
16751SOL     OW51929   4.209   7.478   5.913 -0.2127  0.0697  0.3059
16751SOL    HW151930   4.246   7.536   5.847  0.4723 -2.1840 -1.3782
16751SOL    HW251931   4.115   7.481   5.898 -0.1524  0.5328  0.0352
16752SOL     OW51932   5.589   1.747   0.802  0.5608 -0.2539 -0.0617
16752SOL    HW151933   5.533   1.685   0.848  0.8132  0.6435  1.5058
16752SOL    HW251934   5.541   1.830   0.805 -0.3332 -0.5850 -3.1811
16753SOL     OW51935   8.627   8.246   2.841 -0.4490  0.0652 -0.0990
16753SOL    HW151936   8.569   8.222   2.913 -0.6957 -1.6432 -0.8353
16753SOL    HW251937   8.672   8.164   2.818 -0.3582  0.5785 -1.8524
16754SOL     OW51938   2.989   7.304   1.883 -0.0429  0.3675 -0.3697
16754SOL    HW151939   3.011   7.384   1.930 -1.0101 -0.3645  1.3590
16754SOL    HW251940   2.938   7.334   1.808 -0.0760  1.4066  0.0676
16755SOL     OW51941   1.584   4.628   8.103  0.4949 -0.4870 -0.3361
16755SOL    HW151942   1.501   4.665   8.134  0.9842 -0.1188  0.5286
16755SOL    HW251943   1.571   4.533   8.108  0.6575 -0.4299  1.2155
16756SOL     OW51944   5.943   6.483   2.109  0.2426  0.3670  0.4614
16756SOL    HW151945   6.010   6.501   2.043  0.4497 -0.1400  0.5286
16756SOL    HW251946   5.991   6.483   2.192  0.3799 -1.2579  0.3860
16757SOL     OW51947   0.276   2.664   0.042  0.8484  0.5374 -0.0786
16757SOL    HW151948   0.294   2.719  -0.034  1.7184  1.7909  1.0030
16757SOL    HW251949   0.329   2.702   0.112  0.0455 -0.5774  1.1642
16758SOL     OW51950   2.520   8.129   5.001  0.2293 -0.3173 -1.1822
16758SOL    HW151951   2.443   8.141   4.945  0.0345 -1.5075 -1.1862
16758SOL    HW251952   2.495   8.059   5.061  1.0182 -0.1460 -0.6497
16759SOL     OW51953   5.392   0.230   6.142  0.1801  0.6932  0.3411
16759SOL    HW151954   5.340   0.153   6.118  0.0304  0.9041 -0.0137
16759SOL    HW251955   5.411   0.273   6.059 -1.9681  2.4709  0.7391
16760SOL     OW51956   3.051   6.174   2.226  0.2048 -0.3963 -0.1572
16760SOL    HW151957   3.058   6.097   2.284 -0.7295 -0.5919 -0.2907
16760SOL    HW251958   3.138   6.212   2.227  0.4710 -0.9932  0.5710
16761SOL     OW51959   6.805   2.152   8.355  0.2722  0.1976  0.1689
16761SOL    HW151960   6.861   2.081   8.387 -0.0503  0.3457  1.0569
16761SOL    HW251961   6.716   2.122   8.371  0.0489 -0.2851 -1.7656
16762SOL     OW51962   1.742   0.545   2.980  0.1691 -0.6417  0.2535
16762SOL    HW151963   1.700   0.549   2.894 -1.0701 -0.9559  0.8338
16762SOL    HW251964   1.805   0.617   2.978 -0.2074 -0.3215 -0.7301
16763SOL     OW51965   0.078   4.015   8.526 -0.1825  0.4248 -0.0598
16763SOL    HW151966   0.080   4.108   8.548  0.6887  0.7088 -1.3350
16763SOL    HW251967  -0.015   3.997   8.508 -0.8505  0.3056  3.2242
16764SOL     OW51968   4.787   2.634   6.165  0.3532 -0.1947 -0.1048
16764SOL    HW151969   4.701   2.613   6.130  1.0331 -1.4667 -1.0660
16764SOL    HW251970   4.808   2.720   6.128 -0.8766  0.5353  0.8678
16765SOL     OW51971   4.083   5.221   4.334 -0.0358 -0.4435  0.0752
16765SOL    HW151972   4.143   5.218   4.260  0.5097 -0.6050  0.5228
16765SOL    HW251973   4.052   5.131   4.343  2.1751 -1.0892  1.8932
16766SOL     OW51974   6.692   3.166   5.478 -0.0562  0.7342 -0.7551
16766SOL    HW151975   6.686   3.124   5.393  0.8784 -0.4064 -0.2640
16766SOL    HW251976   6.610   3.142   5.522  0.3802 -0.4194 -0.5550
16767SOL     OW51977   3.970   2.233   8.408 -0.0224  0.7997 -0.2657
16767SOL    HW151978   3.988   2.151   8.453 -0.4403  0.6893 -0.2927
16767SOL    HW251979   4.042   2.244   8.346 -0.2242  0.2092 -0.6074
16768SOL     OW51980   0.967   6.617   8.641  0.0087  0.1073 -0.4747
16768SOL    HW151981   0.931   6.593   8.726 -1.1057  2.3542 -0.2634
16768SOL    HW251982   1.014   6.699   8.658 -0.5536  0.7839 -2.0914
16769SOL     OW51983   6.263   0.265   5.417 -0.4236  0.0388  0.6638
16769SOL    HW151984   6.198   0.278   5.348 -0.4151 -0.9487  0.4639
16769SOL    HW251985   6.347   0.279   5.373 -0.4903  1.1369  0.8805
16770SOL     OW51986   5.093   1.143   7.445 -0.5020  0.3849  0.1294
16770SOL    HW151987   5.025   1.206   7.421 -0.1390  0.2066 -1.3970
16770SOL    HW251988   5.047   1.077   7.497 -1.4419  0.4106 -0.6631
16771SOL     OW51989   5.995   6.943   6.243 -0.5473  0.0612 -0.1251
16771SOL    HW151990   6.078   6.977   6.277 -0.1479  0.8061 -1.8137
16771SOL    HW251991   5.995   6.967   6.150 -2.1958 -0.8261 -0.3737
16772SOL     OW51992   4.858   0.235   2.967 -0.6281  0.2150 -0.5021
16772SOL    HW151993   4.860   0.286   2.886  0.7333  0.5564 -0.2617
16772SOL    HW251994   4.924   0.276   3.023 -2.6413  0.9565  1.3816
16773SOL     OW51995   7.289   0.171   8.580 -0.2369  0.7886  0.3031
16773SOL    HW151996   7.236   0.100   8.615  0.4079  0.8673  1.4768
16773SOL    HW251997   7.262   0.179   8.488  0.6972 -1.9159 -0.2573
16774SOL     OW51998   0.536   8.944   5.242  0.0514  0.3630  0.0316
16774SOL    HW151999   0.608   8.885   5.264 -0.6561 -0.9526 -1.0511
16774SOL    HW252000   0.458   8.897   5.272 -0.2090  3.0856  3.9539
16775SOL     OW52001   4.048   4.050   7.436 -0.5034  0.2686  0.1400
16775SOL    HW152002   4.077   4.036   7.346 -0.4447 -0.3098  0.2491
16775SOL    HW252003   4.076   4.139   7.457 -0.0943  0.2281 -0.2499
16776SOL     OW52004   8.539   4.397   0.058  0.0946  0.7262 -0.0183
16776SOL    HW152005   8.458   4.414   0.107  0.8750  0.1803  1.4776
16776SOL    HW252006   8.512   4.340  -0.014 -1.1069  1.7226 -0.3812
16777SOL     OW52007   4.233   7.542   3.023 -0.3357  0.2733  0.0424
16777SOL    HW152008   4.216   7.512   2.934 -0.0422 -1.4398  0.5600
16777SOL    HW252009   4.156   7.595   3.046 -1.8621 -1.8293 -0.1073
16778SOL     OW52010   8.559   3.284   3.310 -0.0854 -0.3932 -0.2842
16778SOL    HW152011   8.607   3.349   3.259 -1.0248  0.0154 -0.6633
16778SOL    HW252012   8.598   3.200   3.285  0.1762 -0.0983 -0.8763
16779SOL     OW52013   7.413   6.086   1.843 -0.4128  0.1790  0.1367
16779SOL    HW152014   7.505   6.066   1.863 -0.0777  0.4784 -1.0543
16779SOL    HW252015   7.382   6.009   1.794 -0.0719  1.1142 -1.5940
16780SOL     OW52016   0.998   3.873   5.516  0.3237 -0.3426 -0.3892
16780SOL    HW152017   1.062   3.809   5.546  1.7022  1.6540  0.9988
16780SOL    HW252018   0.944   3.891   5.593 -1.7726 -1.8001 -1.4675
16781SOL     OW52019   0.527   5.776   7.946  0.0738 -0.1432  0.9011
16781SOL    HW152020   0.546   5.853   8.000  1.2507  0.4350 -0.3233
16781SOL    HW252021   0.607   5.724   7.950  0.5278  0.3799 -1.0874
16782SOL     OW52022   8.531   4.252   3.571  0.0047  0.1246 -0.1434
16782SOL    HW152023   8.449   4.267   3.523  1.3499  2.8704 -1.7999
16782SOL    HW252024   8.504   4.219   3.656 -2.7831  0.3060 -0.8975
16783SOL     OW52025   4.737   5.832   5.241 -0.0980  0.2718 -0.5646
16783SOL    HW152026   4.822   5.791   5.227  1.1255  2.4865  0.1007
16783SOL    HW252027   4.697   5.836   5.155  1.9528  2.3121 -1.4706
16784SOL     OW52028   2.186   4.060   2.758  0.0541  0.1793 -0.3339
16784SOL    HW152029   2.211   4.136   2.705  0.5975  0.3715  0.1939
16784SOL    HW252030   2.110   4.024   2.713 -0.0526  0.8862 -0.7299
16785SOL     OW52031   2.516   3.255   2.579 -0.2456 -0.0315  0.0942
16785SOL    HW152032   2.529   3.214   2.664  0.9761  0.8256  0.3303
16785SOL    HW252033   2.427   3.231   2.554 -2.1952  3.1353  3.5120
16786SOL     OW52034   0.086   8.647   8.478 -0.6522 -0.0426 -0.4336
16786SOL    HW152035   0.128   8.689   8.402 -1.3154 -2.7263 -2.3296
16786SOL    HW252036  -0.006   8.643   8.455 -1.0296  0.0572  1.0086
16787SOL     OW52037   9.213   5.421   6.531  0.0297  0.2795  0.1989
16787SOL    HW152038   9.172   5.420   6.444 -0.8129  2.0781  0.5503
16787SOL    HW252039   9.141   5.437   6.591  0.8475  0.7136  1.0793
16788SOL     OW52040   4.288   1.853   6.775  0.3445 -0.1452  0.4814
16788SOL    HW152041   4.323   1.914   6.840  1.1128  0.0843 -0.1469
16788SOL    HW252042   4.336   1.872   6.695 -0.8296 -0.2171 -0.2521
16789SOL     OW52043   9.109   5.997   3.762 -0.2517 -0.1021 -0.0154
16789SOL    HW152044   9.151   6.003   3.847 -0.2336 -1.4588  0.0855
16789SOL    HW252045   9.096   6.088   3.734 -0.7575  0.3613  1.6787
16790SOL     OW52046   0.443   2.403   2.929  0.1829 -0.0561  0.0888
16790SOL    HW152047   0.487   2.365   3.005 -0.4804 -1.7411 -0.3442
16790SOL    HW252048   0.356   2.427   2.961  0.2236  0.0869  0.0918
16791SOL     OW52049   2.096   3.303   3.412  0.1444 -0.2765 -0.2487
16791SOL    HW152050   2.000   3.306   3.403  0.1796  1.2196 -0.2315
16791SOL    HW252051   2.129   3.343   3.332  0.7665 -0.5450 -0.1317
16792SOL     OW52052   1.481   7.715   1.524  0.4324 -0.5434  0.3246
16792SOL    HW152053   1.576   7.716   1.517  0.5544 -2.8207  1.4448
16792SOL    HW252054   1.462   7.657   1.598 -1.8759 -1.5417 -1.0007
16793SOL     OW52055   8.879   1.573   0.186  0.2769 -0.2766  0.0972
16793SOL    HW152056   8.960   1.596   0.232 -0.7831 -1.0071  2.3729
16793SOL    HW252057   8.847   1.495   0.230  0.1166 -2.0573 -3.0175
16794SOL     OW52058   4.431   9.171   9.148 -0.0585 -0.4658  0.2847
16794SOL    HW152059   4.467   9.229   9.215  0.3677  0.5689 -0.8167
16794SOL    HW252060   4.494   9.174   9.076 -1.0716 -0.6388 -0.6353
16795SOL     OW52061   5.928   2.188   2.987  0.0475 -0.2312  0.6524
16795SOL    HW152062   5.925   2.261   3.050 -0.9553  0.4345 -0.1607
16795SOL    HW252063   5.949   2.230   2.903 -2.0025 -0.6786 -0.1071
16796SOL     OW52064   0.130   0.869   9.145  0.4865 -0.2717 -0.2731
16796SOL    HW152065   0.062   0.858   9.211  0.0866 -0.7949 -0.7794
16796SOL    HW252066   0.099   0.941   9.090 -0.1544 -1.1804 -1.1242
16797SOL     OW52067   5.120   8.407   1.003 -0.3681  0.3797 -0.0491
16797SOL    HW152068   5.038   8.391   0.956 -1.5735  2.2577  1.3424
16797SOL    HW252069   5.113   8.353   1.082 -0.9838  1.7096  0.8272
16798SOL     OW52070   7.477   5.464   3.147 -0.5180  0.1315  0.4101
16798SOL    HW152071   7.498   5.449   3.239 -0.2907  1.5193  0.5984
16798SOL    HW252072   7.560   5.488   3.107 -0.8067  0.5530  0.0599
16799SOL     OW52073   1.745   7.480   5.304 -0.3545  0.1287 -0.2544
16799SOL    HW152074   1.765   7.563   5.348  0.9190 -0.6236  0.6197
16799SOL    HW252075   1.657   7.492   5.268 -0.0689  1.9488 -0.3626
16800SOL     OW52076   3.774   2.038   7.778  0.3648  0.0554 -0.0879
16800SOL    HW152077   3.717   2.095   7.830 -0.1054  0.4940 -1.0693
16800SOL    HW252078   3.717   2.004   7.709  1.5569  1.4488 -1.8200
16801SOL     OW52079   3.476   8.017   1.313 -0.1019 -0.0543 -0.6233
16801SOL    HW152080   3.462   8.056   1.227  0.0749  1.1540 -0.1056
16801SOL    HW252081   3.569   7.994   1.313 -0.4718 -1.6908 -1.4067
16802SOL     OW52082   3.772   3.804   3.692 -0.6400  0.0350 -0.1009
16802SOL    HW152083   3.706   3.752   3.738 -1.4928 -0.5026 -1.9141
16802SOL    HW252084   3.722   3.856   3.629  0.6090  0.0845 -1.0700
16803SOL     OW52085   7.411   6.201   6.294 -0.1783 -0.1868 -0.3627
16803SOL    HW152086   7.430   6.295   6.297  0.9942 -0.4377  0.5906
16803SOL    HW252087   7.372   6.187   6.208 -0.3055  1.1677 -0.5306
16804SOL     OW52088   6.389   0.003   7.876 -0.0619  0.3200 -0.2663
16804SOL    HW152089   6.355  -0.058   7.942 -0.2264  0.0282 -0.6187
16804SOL    HW252090   6.326   0.075   7.876 -0.2476  0.1585 -0.3443
16805SOL     OW52091   8.299   8.379   5.641 -0.3609 -0.7512 -0.5802
16805SOL    HW152092   8.324   8.288   5.630 -0.7027 -1.1107  1.4923
16805SOL    HW252093   8.220   8.377   5.695 -0.3230  0.7675 -0.4302
16806SOL     OW52094   5.024   4.274   5.662  0.1891 -0.0445 -0.4164
16806SOL    HW152095   4.962   4.334   5.622  0.0520  0.2921  0.2996
16806SOL    HW252096   5.018   4.194   5.609 -0.6699  0.0701 -0.4909
16807SOL     OW52097   7.787   3.486   3.001 -0.3636  0.2348  0.2198
16807SOL    HW152098   7.732   3.546   2.951 -1.6935 -3.0596 -2.4157
16807SOL    HW252099   7.751   3.488   3.090 -2.0190  1.3183 -0.4521
16808SOL     OW52100   1.573   2.681   3.231 -0.4304  0.5379  0.2203
16808SOL    HW152101   1.503   2.709   3.291  0.0502  0.0427  1.0295
16808SOL    HW252102   1.649   2.670   3.288 -0.3631 -1.4503 -0.2250
16809SOL     OW52103   6.761   1.623   0.123 -0.0889  0.1031  0.0738
16809SOL    HW152104   6.766   1.633   0.218 -1.8585  2.1911 -0.0042
16809SOL    HW252105   6.731   1.708   0.091 -0.7949 -0.9583 -2.2407
16810SOL     OW52106   2.091   4.678   6.953 -0.0586  0.3454  0.6185
16810SOL    HW152107   2.155   4.642   6.891  0.1477  0.0179  1.0252
16810SOL    HW252108   2.143   4.708   7.027 -0.2815  1.0084  0.5086
16811SOL     OW52109   4.614   6.808   8.430  0.4276 -0.0932  0.3659
16811SOL    HW152110   4.607   6.889   8.479  0.0017  0.1155 -0.0295
16811SOL    HW252111   4.707   6.801   8.407  0.6189 -0.1774  1.1626
16812SOL     OW52112   1.668   3.245   6.867  0.2355 -0.4058  0.0204
16812SOL    HW152113   1.746   3.197   6.840  0.1831  0.3304 -1.5103
16812SOL    HW252114   1.601   3.177   6.879  0.7562 -0.9152  0.0576
16813SOL     OW52115   0.933   2.200   2.111  0.0760  0.0888  1.1139
16813SOL    HW152116   0.925   2.228   2.019 -1.3514  0.1696  1.2570
16813SOL    HW252117   0.964   2.110   2.106  3.1900  1.1415  0.6133
16814SOL     OW52118   9.220   1.254   9.237 -0.4603 -0.2254 -0.2105
16814SOL    HW152119   9.138   1.304   9.228 -0.0947  0.6800  1.2632
16814SOL    HW252120   9.277   1.289   9.168 -0.8044  0.1898 -0.2839
16815SOL     OW52121   4.407   4.605   0.101  0.6506  0.3315  0.2627
16815SOL    HW152122   4.313   4.588   0.103  0.7092 -0.0866 -0.2639
16815SOL    HW252123   4.427   4.618   0.008  1.1832 -0.0152  0.3269
16816SOL     OW52124   1.303   6.137   6.997 -0.4464 -0.4755  0.0983
16816SOL    HW152125   1.325   6.199   7.067 -0.6728  0.3819 -0.5921
16816SOL    HW252126   1.241   6.184   6.941  1.1302 -0.5157 -1.7052
16817SOL     OW52127   0.974   4.611   2.547 -0.3515 -0.0722 -0.3760
16817SOL    HW152128   0.953   4.546   2.480  0.3762  1.8356 -2.5032
16817SOL    HW252129   0.915   4.684   2.528 -0.5359  0.2776  1.4451
16818SOL     OW52130   4.958   9.115   2.322 -0.1169 -0.1086 -0.0161
16818SOL    HW152131   4.920   9.202   2.326  2.4900  1.0807 -0.1349
16818SOL    HW252132   4.892   9.062   2.277 -2.8912  1.1068  2.4884
16819SOL     OW52133   5.223   2.421   5.672 -0.4153 -0.2693 -0.2261
16819SOL    HW152134   5.250   2.415   5.764  1.3672 -0.5501 -0.7476
16819SOL    HW252135   5.305   2.428   5.624 -1.3865  1.8125 -1.6645
16820SOL     OW52136   1.472   5.757   0.187 -0.2277  0.0746 -0.2341
16820SOL    HW152137   1.487   5.665   0.165  0.3777  0.4098 -1.2528
16820SOL    HW252138   1.398   5.755   0.247 -0.5048 -1.0493 -0.5911
16821SOL     OW52139   5.136   4.909   0.423 -0.1937  0.1769 -0.1643
16821SOL    HW152140   5.192   4.878   0.494  1.6048  0.6829 -1.2991
16821SOL    HW252141   5.104   4.830   0.381  0.3419 -0.1328  0.0047
16822SOL     OW52142   5.320   1.572   3.330 -0.0129  0.3580 -0.3089
16822SOL    HW152143   5.231   1.589   3.299  0.4190  0.8970 -1.2393
16822SOL    HW252144   5.358   1.515   3.264  0.7051  1.0192 -0.4587
16823SOL     OW52145   6.661   1.398   7.063 -0.5270 -0.2425 -0.1685
16823SOL    HW152146   6.567   1.403   7.083 -0.5298  1.1550 -0.5324
16823SOL    HW252147   6.674   1.458   6.990  0.5988 -0.6920 -0.3448
16824SOL     OW52148   5.292   6.246   8.116 -0.1106  0.0001 -0.1961
16824SOL    HW152149   5.284   6.159   8.078 -1.8335 -0.4621  1.1532
16824SOL    HW252150   5.347   6.233   8.193  1.1582  0.4549 -1.0103
16825SOL     OW52151   3.603   1.402   0.245 -0.0002  0.2791 -0.5488
16825SOL    HW152152   3.583   1.458   0.170  2.1072  0.5578 -0.9256
16825SOL    HW252153   3.621   1.463   0.316  2.3748  0.1189 -0.9791
16826SOL     OW52154   3.365   2.051   3.908 -0.9503  0.3736 -0.1415
16826SOL    HW152155   3.417   2.102   3.847 -1.2225  0.8138 -0.0081
16826SOL    HW252156   3.374   2.096   3.992  1.2767 -1.4963  0.6921
16827SOL     OW52157   3.343   1.084   8.898  0.6230 -0.1243 -0.1227
16827SOL    HW152158   3.361   1.107   8.806  1.0960  1.0381  0.2437
16827SOL    HW252159   3.300   1.162   8.933 -0.5087 -0.9607  0.3765
16828SOL     OW52160   3.954   1.244   6.699 -0.3280  0.3305 -0.1470
16828SOL    HW152161   3.921   1.214   6.783 -2.0317  0.6816 -0.6682
16828SOL    HW252162   4.042   1.277   6.717 -0.2046 -0.7552  1.2539
16829SOL     OW52163   0.279   8.929   6.163 -0.6085  0.4360 -0.3831
16829SOL    HW152164   0.253   8.914   6.254 -1.1477  0.4812 -0.5290
16829SOL    HW252165   0.284   8.842   6.124  0.5239  0.3573 -0.0636
16830SOL     OW52166   5.914   6.861   6.574 -0.1991  0.1310 -0.6572
16830SOL    HW152167   5.828   6.898   6.551  0.1454  0.9902 -0.6163
16830SOL    HW252168   5.941   6.814   6.495 -0.9399 -0.5785 -0.4839
16831SOL     OW52169   8.766   3.500   2.841  0.2752  0.0674  0.1362
16831SOL    HW152170   8.761   3.550   2.760  1.0831 -0.8178 -0.4639
16831SOL    HW252171   8.848   3.529   2.882  0.1502  0.0971  0.3692
16832SOL     OW52172   7.889   3.814   0.491  0.0948  1.0112 -0.4106
16832SOL    HW152173   7.946   3.810   0.569  0.5024  0.2319 -0.7419
16832SOL    HW252174   7.803   3.789   0.523  0.6243 -1.0772 -0.5402
16833SOL     OW52175   6.007   2.331   5.134  0.3017 -0.2040 -0.3034
16833SOL    HW152176   6.008   2.260   5.198 -1.2737  0.8963  1.0013
16833SOL    HW252177   6.031   2.409   5.184 -0.1655  0.5404 -1.2218
16834SOL     OW52178   4.273   8.747   5.866 -0.3821  0.2672  0.4309
16834SOL    HW152179   4.195   8.721   5.915 -0.0026  0.8753  1.3601
16834SOL    HW252180   4.331   8.785   5.931  0.5359  0.1831 -0.3289
16835SOL     OW52181   1.713   3.641   7.693 -0.5888  0.1126 -0.0806
16835SOL    HW152182   1.691   3.698   7.766 -0.9835 -1.4936  1.0859
16835SOL    HW252183   1.640   3.578   7.689 -0.7552  0.3890 -2.0802
16836SOL     OW52184   3.209   5.912   7.342 -0.7044  0.4605  0.0355
16836SOL    HW152185   3.121   5.885   7.370 -0.6934  1.4706  1.0731
16836SOL    HW252186   3.221   5.998   7.382  0.6073  0.4949 -0.4314
16837SOL     OW52187   8.070   2.773   8.707 -0.2629 -0.6972  0.1422
16837SOL    HW152188   8.079   2.683   8.675 -1.0595 -0.5469 -0.5553
16837SOL    HW252189   8.137   2.822   8.659  0.3774 -0.9731  0.7505
16838SOL     OW52190   5.377   8.347   0.180  0.0104 -0.0121 -0.5274
16838SOL    HW152191   5.445   8.279   0.187  0.7558  0.8967  1.3168
16838SOL    HW252192   5.362   8.376   0.270 -1.6731  0.9558 -1.0888
16839SOL     OW52193   0.675   3.971   0.530 -0.2257  0.1815 -0.3675
16839SOL    HW152194   0.656   3.879   0.512  2.2387  0.0369 -2.6385
16839SOL    HW252195   0.598   4.018   0.499 -0.0686 -0.8920 -2.4933
16840SOL     OW52196   7.277   2.591   8.894  0.4260  0.5146 -0.7213
16840SOL    HW152197   7.321   2.525   8.840  1.2359  0.2266  0.2809
16840SOL    HW252198   7.184   2.571   8.885  0.7324 -1.7704  0.8371
16841SOL     OW52199   1.559   7.755   5.922 -0.1835 -0.0827 -0.7160
16841SOL    HW152200   1.557   7.664   5.951  0.9516  0.5108  1.2900
16841SOL    HW252201   1.471   7.789   5.940 -0.6694 -0.8118 -1.6535
16842SOL     OW52202   4.584   2.605   0.531  0.2140 -0.2889 -0.0800
16842SOL    HW152203   4.496   2.619   0.494 -0.4782 -1.4782  1.0725
16842SOL    HW252204   4.594   2.674   0.596 -0.5435 -1.1173  0.9403
16843SOL     OW52205   6.667   8.480   9.126 -0.7586 -0.1823 -0.3262
16843SOL    HW152206   6.647   8.553   9.184 -1.1477  0.4069 -1.1927
16843SOL    HW252207   6.716   8.419   9.181 -3.0108 -0.6557  1.2783
16844SOL     OW52208   0.036   8.226   4.756  0.1069 -0.5310 -0.1350
16844SOL    HW152209   0.029   8.216   4.661  0.7328  0.3442 -0.2893
16844SOL    HW252210  -0.053   8.214   4.789  0.0096 -1.5503 -0.7594
16845SOL     OW52211   3.528   0.171   7.262  0.0520  0.7569  0.0240
16845SOL    HW152212   3.578   0.106   7.213 -0.3041  1.7039 -1.6264
16845SOL    HW252213   3.456   0.122   7.301 -1.2942  0.4744 -2.7691
16846SOL     OW52214   0.714   5.129   2.176 -0.0030 -0.3666  0.3188
16846SOL    HW152215   0.694   5.181   2.254  1.9259  0.6593  0.1612
16846SOL    HW252216   0.634   5.131   2.124 -0.5750  0.8023  1.2382
16847SOL     OW52217   1.395   4.952   7.217 -0.7951  0.0512 -0.4111
16847SOL    HW152218   1.372   5.042   7.193 -1.6360  0.3068  1.2693
16847SOL    HW252219   1.453   4.961   7.293 -0.2865 -0.8100 -0.6879
16848SOL     OW52220   5.121   4.607   8.044  0.0960  0.0353 -0.3458
16848SOL    HW152221   5.169   4.690   8.040  1.4534 -0.7908 -1.8292
16848SOL    HW252222   5.067   4.606   7.965  1.6118 -1.3790 -1.3973
16849SOL     OW52223   0.111   8.053   6.720 -0.2566 -1.3673  0.1789
16849SOL    HW152224   0.183   8.019   6.773  1.6043 -0.6727 -1.8137
16849SOL    HW252225   0.143   8.045   6.630 -2.2432  0.0016 -0.6599
16850SOL     OW52226   1.675   9.183   4.982  0.1609 -0.5409 -0.6502
16850SOL    HW152227   1.652   9.273   4.957 -1.8403 -0.8016  0.1840
16850SOL    HW252228   1.744   9.194   5.048 -0.2713  0.3887 -0.3481
16851SOL     OW52229   1.319   1.862   7.823 -0.2985 -0.5742  0.3526
16851SOL    HW152230   1.337   1.780   7.777  2.2635 -0.3735  0.8913
16851SOL    HW252231   1.362   1.929   7.770  0.5249 -0.0283  1.6680
16852SOL     OW52232   2.590   4.802   0.906  0.0278  1.5096 -0.5711
16852SOL    HW152233   2.642   4.866   0.857 -0.9978  2.6594 -0.1859
16852SOL    HW252234   2.646   4.777   0.980  0.3874  2.0701 -0.6506
16853SOL     OW52235   5.237   4.691   0.243  0.1070 -0.1467 -0.6611
16853SOL    HW152236   5.184   4.663   0.168 -2.0711  1.0461  0.3902
16853SOL    HW252237   5.230   4.619   0.305  1.6252 -0.9825 -1.4298
16854SOL     OW52238   6.643   3.324   1.533 -0.5967  0.1323 -0.5670
16854SOL    HW152239   6.708   3.265   1.571 -0.3373 -0.8129 -2.4554
16854SOL    HW252240   6.574   3.328   1.599  1.1457  0.7893  1.2546
16855SOL     OW52241   8.203   8.971   1.823 -0.5579  0.3867  0.7319
16855SOL    HW152242   8.177   8.973   1.915  1.1340  0.3315  1.2412
16855SOL    HW252243   8.184   9.060   1.792 -0.7473  0.5371  1.2599
16856SOL     OW52244   6.871   2.329   1.200 -0.3450 -0.5534  0.2440
16856SOL    HW152245   6.785   2.299   1.231 -0.1933  0.6118  1.8656
16856SOL    HW252246   6.917   2.249   1.177 -1.2110 -1.3193  1.1290
16857SOL     OW52247   8.945   5.943   9.147 -0.4109  0.0734 -0.6870
16857SOL    HW152248   8.935   5.940   9.052  1.7316 -1.1593 -0.8911
16857SOL    HW252249   9.003   6.018   9.163 -1.4487  0.8081 -0.2675
16858SOL     OW52250   2.860   1.169   0.509 -0.2055 -0.7364 -0.2801
16858SOL    HW152251   2.774   1.204   0.534 -0.4283  1.2149 -3.4441
16858SOL    HW252252   2.922   1.235   0.540  0.0498 -1.5724  0.9791
16859SOL     OW52253   1.482   4.583   4.718 -0.1782 -0.2921 -0.0361
16859SOL    HW152254   1.562   4.636   4.719  0.8329 -1.7924 -1.0888
16859SOL    HW252255   1.438   4.608   4.636 -0.1804 -0.3955 -0.0661
16860SOL     OW52256   6.316   4.648   0.188 -0.2569  0.4502 -0.0823
16860SOL    HW152257   6.262   4.683   0.259  0.1770  0.3799  0.2871
16860SOL    HW252258   6.256   4.594   0.137 -0.5781  0.5148  0.2232
16861SOL     OW52259   7.689   4.402   2.511  0.2127 -0.3877 -0.0693
16861SOL    HW152260   7.717   4.313   2.489  0.2958  0.2434 -2.6258
16861SOL    HW252261   7.762   4.458   2.483 -0.5988  0.6519 -0.1427
16862SOL     OW52262   3.260   6.813   1.019  0.1570  0.4668 -0.0720
16862SOL    HW152263   3.187   6.785   1.073  0.1863 -1.7566 -1.1078
16862SOL    HW252264   3.246   6.768   0.935  1.3455  2.0104 -1.1226
16863SOL     OW52265   1.227   2.358   3.278  0.3634 -0.4421  0.3607
16863SOL    HW152266   1.233   2.309   3.196  0.6591 -0.9999  0.7144
16863SOL    HW252267   1.145   2.328   3.318 -0.5149  0.8771 -0.3982
16864SOL     OW52268   2.857   3.777   8.976  0.0340  0.4565 -0.5760
16864SOL    HW152269   2.952   3.784   8.984  0.0064 -0.6151  0.7313
16864SOL    HW252270   2.843   3.714   8.905  0.2877  1.4277 -1.4995
16865SOL     OW52271   2.118   5.481   1.297 -0.6392  0.9876  0.7072
16865SOL    HW152272   2.204   5.519   1.314  0.4478  0.4953 -3.3519
16865SOL    HW252273   2.056   5.552   1.313  0.5050  1.4827  3.1812
16866SOL     OW52274   6.546   4.774   3.353 -0.0332  0.2686 -0.0312
16866SOL    HW152275   6.547   4.803   3.445  0.8110 -0.8464  0.3282
16866SOL    HW252276   6.639   4.764   3.331 -0.2349  0.5797 -1.0315
16867SOL     OW52277   6.271   8.527   4.338 -0.7922  0.2124 -0.4730
16867SOL    HW152278   6.331   8.516   4.265  1.2204  0.6073  1.0674
16867SOL    HW252279   6.203   8.586   4.305  0.7984  1.4234 -1.6216
16868SOL     OW52280   1.999   4.432   5.287 -0.4744 -0.4475 -0.3014
16868SOL    HW152281   1.999   4.336   5.279 -2.5269 -0.5677  0.9057
16868SOL    HW252282   2.029   4.449   5.376 -0.8449  0.0204 -0.2662
16869SOL     OW52283   1.285   3.268   7.418 -0.2972 -0.5932  0.4746
16869SOL    HW152284   1.197   3.230   7.423 -0.8617  0.7298  0.7528
16869SOL    HW252285   1.309   3.285   7.510 -0.4478  0.6005  0.2994
16870SOL     OW52286   0.713   2.158   7.752  0.2782 -0.0934 -0.8893
16870SOL    HW152287   0.803   2.144   7.781  0.6972  1.7903 -1.1624
16870SOL    HW252288   0.673   2.071   7.752  1.3678 -0.6251  1.6637
16871SOL     OW52289   1.025   5.010   1.605  0.0124  0.0979  1.1796
16871SOL    HW152290   1.030   4.914   1.606  0.8161  0.1414  1.7722
16871SOL    HW252291   1.114   5.039   1.623 -0.2586  0.9652  1.1587
16872SOL     OW52292   7.439   2.266   7.446  0.7186  0.4857  0.2149
16872SOL    HW152293   7.441   2.362   7.436 -0.4576  0.4302 -0.6735
16872SOL    HW252294   7.351   2.241   7.418  0.0285 -0.5775  3.2099
16873SOL     OW52295   0.781   0.101   9.115 -0.0298  0.1203  0.3816
16873SOL    HW152296   0.748   0.187   9.087 -0.1854 -0.0821 -0.0705
16873SOL    HW252297   0.825   0.066   9.037  0.7868  0.1616  0.8293
16874SOL     OW52298   2.285   0.237   4.284  0.4574  0.4773 -0.2040
16874SOL    HW152299   2.291   0.325   4.247 -0.3582  0.2766 -0.8198
16874SOL    HW252300   2.355   0.234   4.350  0.6831  1.4778 -0.3914
16875SOL     OW52301   4.519   1.443   6.153 -0.2711  0.3987  0.0392
16875SOL    HW152302   4.471   1.371   6.111 -0.1543  0.2775  0.1120
16875SOL    HW252303   4.540   1.409   6.240  0.4756  0.2222 -0.2045
16876SOL     OW52304   6.449   2.414   0.826  0.2869  0.1711 -0.1715
16876SOL    HW152305   6.473   2.322   0.840  0.1915  0.3445  1.1956
16876SOL    HW252306   6.410   2.442   0.909  1.4433  1.8044 -0.1429
16877SOL     OW52307   0.262   9.056   7.771  0.8398 -0.0461 -0.9055
16877SOL    HW152308   0.285   9.129   7.829  1.5765 -1.0114  0.0419
16877SOL    HW252309   0.248   9.096   7.685  0.6762  1.2773 -0.2594
16878SOL     OW52310   8.422   5.632   6.011  0.2592  0.3377  0.0510
16878SOL    HW152311   8.402   5.653   5.919  0.6405  0.6792  0.0448
16878SOL    HW252312   8.512   5.601   6.009  0.3819  0.6806  0.3672
16879SOL     OW52313   5.860   2.675   1.987  0.2100 -0.0587 -0.1620
16879SOL    HW152314   5.861   2.699   1.895  2.4626 -0.2531 -0.2167
16879SOL    HW252315   5.891   2.585   1.989 -0.7465 -0.3793  0.7083
16880SOL     OW52316   7.952   6.513   0.638 -0.4722  0.3156  0.7125
16880SOL    HW152317   7.932   6.593   0.685  0.0257  2.0976 -2.0072
16880SOL    HW252318   7.913   6.524   0.552  0.2937 -2.0168  0.0064
16881SOL     OW52319   8.361   2.082   8.218  0.1754  0.1321 -0.1449
16881SOL    HW152320   8.342   1.997   8.258  0.4218  0.5458  0.8587
16881SOL    HW252321   8.288   2.138   8.244  0.5200  0.5014  0.0278
16882SOL     OW52322   5.322   4.498   6.221  0.3655  0.0167  1.0695
16882SOL    HW152323   5.345   4.506   6.129 -0.7198  1.2835  0.8859
16882SOL    HW252324   5.383   4.557   6.266  0.9203 -0.6302  1.1723
16883SOL     OW52325   6.772   3.953   6.269  0.1842 -0.1450  0.1958
16883SOL    HW152326   6.823   4.031   6.248  2.2434 -0.9466  1.9561
16883SOL    HW252327   6.682   3.975   6.244  0.7491  2.7326  0.5360
16884SOL     OW52328   8.973   7.854   3.638  0.0307  0.6322  0.0954
16884SOL    HW152329   9.045   7.882   3.695 -0.0993 -1.0037  1.1195
16884SOL    HW252330   8.999   7.882   3.551  2.6543 -1.2014  0.2023
16885SOL     OW52331   6.113   4.758   6.702 -0.2018  0.0294  0.2411
16885SOL    HW152332   6.038   4.735   6.647  0.6936 -0.4419 -0.8053
16885SOL    HW252333   6.151   4.674   6.727 -0.2148  0.2582  1.0459
16886SOL     OW52334   2.032   6.015   8.619  0.4261  0.0662 -0.3849
16886SOL    HW152335   1.971   6.086   8.638 -0.2403 -0.3331 -0.9997
16886SOL    HW252336   2.117   6.058   8.609  0.5459  0.4583  2.0265
16887SOL     OW52337   1.880   5.133   4.553  0.6771 -0.2562 -0.0051
16887SOL    HW152338   1.857   5.087   4.634 -0.1387  0.7569  0.3547
16887SOL    HW252339   1.804   5.189   4.535  0.5443 -1.0171 -1.8700
16888SOL     OW52340   1.626   6.547   8.959 -0.5638 -0.1089  0.4662
16888SOL    HW152341   1.575   6.583   9.032 -0.8621  2.3763 -0.8893
16888SOL    HW252342   1.564   6.544   8.886  0.1059 -1.2126 -0.0659
16889SOL     OW52343   8.711   5.673   1.857  0.1691 -0.0722  0.1167
16889SOL    HW152344   8.723   5.629   1.941 -1.7961  1.5924  1.3122
16889SOL    HW252345   8.774   5.745   1.858 -0.8333  0.8126  0.8073
16890SOL     OW52346   0.279   6.103   8.997  0.3850  0.1168 -0.3434
16890SOL    HW152347   0.232   6.022   9.017  1.1568 -0.1282  0.5336
16890SOL    HW252348   0.319   6.088   8.911  1.3817 -0.8445  0.2693
16891SOL     OW52349   8.058   1.556   1.938  0.1100 -0.0935  0.1945
16891SOL    HW152350   7.967   1.582   1.925  0.1069 -0.2742 -0.1407
16891SOL    HW252351   8.054   1.463   1.960  0.2404 -0.1990 -0.2212
16892SOL     OW52352   6.926   1.306   5.935  0.5507  0.0653 -0.2474
16892SOL    HW152353   6.891   1.217   5.939 -0.2784  0.3464 -0.9698
16892SOL    HW252354   6.896   1.347   6.016 -0.5164  0.1948 -0.6957
16893SOL     OW52355   2.159   8.700   1.558  0.3927 -0.0613 -0.1577
16893SOL    HW152356   2.201   8.649   1.489  0.8827 -1.2368  1.0038
16893SOL    HW252357   2.068   8.672   1.556  0.1208  0.8390 -1.1618
16894SOL     OW52358   7.559   2.353   5.290  0.1335 -0.0478  0.1165
16894SOL    HW152359   7.498   2.380   5.221  3.5233  0.0605 -2.9841
16894SOL    HW252360   7.525   2.269   5.321 -1.3498 -0.1982 -1.8241
16895SOL     OW52361   8.990   0.026   0.642 -0.4588 -0.0131 -0.1239
16895SOL    HW152362   9.045   0.026   0.720 -1.3629 -1.8621  0.5399
16895SOL    HW252363   8.918   0.086   0.664  1.0047  2.0429 -0.8196
16896SOL     OW52364   0.678   1.368   6.951 -0.0232  0.1620 -0.1494
16896SOL    HW152365   0.583   1.362   6.958 -0.0685 -0.2109 -0.9497
16896SOL    HW252366   0.700   1.456   6.981 -0.4921 -0.1820  1.2298
16897SOL     OW52367   0.851   3.916   8.302  0.1704  0.2460 -0.0384
16897SOL    HW152368   0.915   3.872   8.359  1.0004  1.5034  0.0217
16897SOL    HW252369   0.806   3.978   8.359  2.0352  2.5967 -0.9880
16898SOL     OW52370   2.633   0.534   6.667  0.2622  0.0674 -0.4489
16898SOL    HW152371   2.656   0.506   6.578 -2.1024 -0.6508 -0.8730
16898SOL    HW252372   2.604   0.455   6.711 -0.8585  0.8111  0.1949
16899SOL     OW52373   2.547   6.746   0.325  0.1733 -0.3437 -0.5286
16899SOL    HW152374   2.563   6.835   0.294 -2.0799 -0.1837 -1.3103
16899SOL    HW252375   2.614   6.693   0.282  0.4753  0.7142 -1.3790
16900SOL     OW52376   1.160   1.520   1.383 -0.3133 -0.4063 -0.5049
16900SOL    HW152377   1.202   1.468   1.451 -0.1573  0.4575  0.0576
16900SOL    HW252378   1.230   1.571   1.344 -1.2380  3.6177  2.7042
16901SOL     OW52379   6.447   9.169   2.578 -0.0036 -0.6087  0.0830
16901SOL    HW152380   6.415   9.175   2.488  0.2196  2.0019  0.1435
16901SOL    HW252381   6.378   9.209   2.630  0.6564 -0.5169  0.8844
16902SOL     OW52382   5.941   6.268   4.356  0.3150  0.4212 -0.3518
16902SOL    HW152383   5.889   6.316   4.291 -3.6280 -0.7882  1.7322
16902SOL    HW252384   5.927   6.316   4.438 -0.1693 -1.7490  0.8811
16903SOL     OW52385   4.787   2.183   1.579  0.3406 -0.0437  0.3330
16903SOL    HW152386   4.878   2.212   1.588  0.8463 -2.0445  1.9736
16903SOL    HW252387   4.760   2.161   1.669 -1.4931 -0.2696 -0.2566
16904SOL     OW52388   3.360   5.554   7.147  0.2641 -0.5326 -0.3772
16904SOL    HW152389   3.397   5.500   7.078  0.5776 -1.1343  0.2582
16904SOL    HW252390   3.432   5.569   7.208 -0.4423 -1.4454  0.6953
16905SOL     OW52391   7.291   4.849   2.419 -0.1913 -0.4055  0.2643
16905SOL    HW152392   7.284   4.778   2.355  0.0611 -0.4677  0.3079
16905SOL    HW252393   7.204   4.890   2.418 -0.1194 -0.2666 -0.2857
16906SOL     OW52394   4.312   4.462   3.665 -0.9054  0.2045 -0.6651
16906SOL    HW152395   4.403   4.435   3.652 -0.6830  0.2472  0.7332
16906SOL    HW252396   4.317   4.536   3.726 -1.8817  0.1236 -0.4764
16907SOL     OW52397   6.717   1.037   4.092 -0.2515  0.0379 -0.2305
16907SOL    HW152398   6.772   1.009   4.165  1.3054  1.7120 -0.7327
16907SOL    HW252399   6.756   0.998   4.015 -1.7265 -1.4867 -0.2324
16908SOL     OW52400   8.251   0.897   4.312  0.2390 -0.2259 -0.3963
16908SOL    HW152401   8.293   0.979   4.287  1.0499 -0.8387 -1.0806
16908SOL    HW252402   8.312   0.856   4.373 -0.8242  0.3388  1.0765
16909SOL     OW52403   7.183   0.505   4.142 -0.0337 -0.3469 -0.5313
16909SOL    HW152404   7.256   0.529   4.083  0.4420  1.0527  0.5821
16909SOL    HW252405   7.105   0.540   4.098  0.3194  0.6873 -0.3701
16910SOL     OW52406   9.253   7.555   8.910 -0.5113  0.1419  0.2665
16910SOL    HW152407   9.192   7.567   8.838 -0.8295 -0.5847  0.4117
16910SOL    HW252408   9.201   7.516   8.980 -0.7490  2.9876  1.7367
16911SOL     OW52409   6.381   5.620   9.289 -0.1208  0.3793 -0.1862
16911SOL    HW152410   6.354   5.584   9.373 -3.7523 -0.0594 -1.4734
16911SOL    HW252411   6.438   5.554   9.251 -0.0634 -0.2989  1.0691
16912SOL     OW52412   2.984   7.978   2.246  0.1941  0.2976 -0.1942
16912SOL    HW152413   3.054   8.018   2.195  0.1223  2.4549  1.3094
16912SOL    HW252414   2.928   8.052   2.271 -1.4406 -1.1159  0.4253
16913SOL     OW52415   2.210   5.237   3.756 -0.0738  0.2032 -0.3669
16913SOL    HW152416   2.178   5.220   3.667 -1.2830 -0.0249  0.1173
16913SOL    HW252417   2.136   5.278   3.801  0.2548 -0.4968  0.8027
16914SOL     OW52418   4.081   5.916   4.224 -0.4896  0.0928  0.0605
16914SOL    HW152419   4.101   5.828   4.191 -0.8579  0.4604 -1.1920
16914SOL    HW252420   4.157   5.969   4.197  0.1760 -0.0288  1.6391
16915SOL     OW52421   2.568   0.717   7.213  0.3358 -0.1224  0.1263
16915SOL    HW152422   2.577   0.642   7.155 -2.6295  0.1634 -0.7977
16915SOL    HW252423   2.524   0.783   7.160  0.7618  1.4150  1.6461
16916SOL     OW52424   7.868   8.795   4.229 -0.0496 -0.3848 -0.0770
16916SOL    HW152425   7.776   8.768   4.237  0.3980 -1.9792 -0.1380
16916SOL    HW252426   7.916   8.713   4.218  1.4695  0.3888  0.6997
16917SOL     OW52427   8.040   1.875   1.198  0.1283  0.1787  0.2743
16917SOL    HW152428   8.022   1.837   1.284  0.3800  1.2687  0.8207
16917SOL    HW252429   8.089   1.956   1.218  0.0703  0.4998 -0.8838
16918SOL     OW52430   8.468   3.454   9.139  0.1051 -0.3362 -0.1362
16918SOL    HW152431   8.470   3.451   9.043  0.1996 -2.2734 -0.0955
16918SOL    HW252432   8.403   3.388   9.164  1.2366 -0.9946  1.1576
16919SOL     OW52433   8.221   5.941   5.695 -0.3454 -0.0232 -0.6103
16919SOL    HW152434   8.170   5.946   5.776  0.1003  0.2189 -0.3473
16919SOL    HW252435   8.191   5.860   5.653  0.8188 -1.1915  0.7387
16920SOL     OW52436   0.654   1.889   8.824 -0.2314 -0.1338 -0.2526
16920SOL    HW152437   0.611   1.813   8.784 -0.1538 -0.5416  0.4393
16920SOL    HW252438   0.705   1.928   8.752 -0.8315 -0.3178 -0.7893
16921SOL     OW52439   1.031   7.877   0.077  0.2383  0.2492 -0.0414
16921SOL    HW152440   1.040   7.935   0.153 -1.0851  0.1200  0.2255
16921SOL    HW252441   1.099   7.812   0.089 -0.1400  0.0673  1.1975
16922SOL     OW52442   4.808   4.079   6.873 -0.1098  0.2949 -0.5043
16922SOL    HW152443   4.837   4.011   6.935 -0.7721  0.1230 -0.3767
16922SOL    HW252444   4.878   4.144   6.874 -0.0618  0.2401  0.3510
16923SOL     OW52445   8.073   4.636   8.847 -0.4882 -0.2106  0.4922
16923SOL    HW152446   8.127   4.714   8.863  0.6823 -0.9251  0.0038
16923SOL    HW252447   8.046   4.608   8.935 -2.3076  1.6926  0.6037
16924SOL     OW52448   1.521   0.087   8.566  0.4333  0.4634 -0.0426
16924SOL    HW152449   1.502   0.175   8.534  0.7767  0.7199  0.4420
16924SOL    HW252450   1.536   0.098   8.660  0.2731 -0.1449  0.0613
16925SOL     OW52451   8.144   5.624   8.981  0.4284  0.0722  0.5219
16925SOL    HW152452   8.209   5.685   8.947  0.2990 -0.0445  0.0638
16925SOL    HW252453   8.061   5.654   8.943 -0.1189  1.5165  2.7996
16926SOL     OW52454   7.040   1.546   1.117  0.0989 -0.0899 -0.9420
16926SOL    HW152455   7.075   1.515   1.201 -0.6438  2.0862  0.1924
16926SOL    HW252456   6.966   1.487   1.099  0.0693 -0.3680  0.0802
16927SOL     OW52457   7.606   6.644   8.912 -0.0247 -0.0885 -0.2069
16927SOL    HW152458   7.537   6.654   8.978  0.9086  1.8082  0.5121
16927SOL    HW252459   7.685   6.626   8.963  0.8184  1.9528 -0.7359
16928SOL     OW52460   3.828   0.790   2.078 -0.1760  0.4857 -0.3032
16928SOL    HW152461   3.767   0.818   2.146  0.2985  0.3660  0.1778
16928SOL    HW252462   3.874   0.715   2.116  1.1469  1.3494 -0.1785
16929SOL     OW52463   3.766   4.611   8.842  1.1191  0.0935  0.5257
16929SOL    HW152464   3.796   4.568   8.762 -1.1507  0.3627 -0.4941
16929SOL    HW252465   3.773   4.705   8.823 -0.6133  0.1649  0.1541
16930SOL     OW52466   1.592   7.820   0.263  0.1538 -0.4377 -0.0135
16930SOL    HW152467   1.615   7.854   0.350 -1.1234 -0.6389  0.4104
16930SOL    HW252468   1.631   7.733   0.260  0.8555 -0.1262  0.0654
16931SOL     OW52469   9.290   7.968   0.682 -0.2472 -0.2080  0.1214
16931SOL    HW152470   9.376   7.926   0.688 -0.4141 -0.6433 -0.4171
16931SOL    HW252471   9.258   7.971   0.772  1.4438  2.3340  0.6875
16932SOL     OW52472   6.228   3.463   8.672  0.2082 -0.2091 -0.3068
16932SOL    HW152473   6.167   3.396   8.642  0.6146 -0.9973  0.6263
16932SOL    HW252474   6.285   3.480   8.597  1.0828 -2.0110 -0.0580
16933SOL     OW52475   0.284   1.239   7.581 -0.6317  0.7950 -0.5546
16933SOL    HW152476   0.332   1.320   7.569 -0.0335  0.9177  2.2745
16933SOL    HW252477   0.283   1.225   7.676 -1.0005 -2.3238 -0.9522
16934SOL     OW52478   4.981   4.797   3.335  0.8321  0.0766  0.2559
16934SOL    HW152479   5.046   4.732   3.363  1.5134  0.3160 -0.7308
16934SOL    HW252480   5.030   4.879   3.327  0.5295  0.1524 -0.9928
16935SOL     OW52481   4.059   0.462   5.049 -0.0271 -0.0895 -0.0631
16935SOL    HW152482   4.017   0.424   4.972  0.4356 -0.0026 -0.3613
16935SOL    HW252483   4.046   0.556   5.040  0.5321 -0.0350 -0.3400
16936SOL     OW52484   5.143   7.901   6.931 -0.0209 -0.2934 -0.1205
16936SOL    HW152485   5.223   7.931   6.888 -1.3270 -1.1158 -3.2661
16936SOL    HW252486   5.083   7.976   6.926 -0.0848 -0.2930  0.5723
16937SOL     OW52487   8.300   9.283   6.095  0.1591 -0.3549 -0.1944
16937SOL    HW152488   8.225   9.267   6.039  0.3188 -0.4289 -0.3865
16937SOL    HW252489   8.264   9.327   6.172  0.0855  0.6691 -0.8089
16938SOL     OW52490   4.085   4.505   4.122  0.0105  0.4746  0.3878
16938SOL    HW152491   4.078   4.477   4.213 -0.4589 -1.6528 -0.2698
16938SOL    HW252492   4.149   4.576   4.123  0.1634  0.3290  2.3325
16939SOL     OW52493   0.786   6.250   1.484  0.0942  0.5091 -0.2324
16939SOL    HW152494   0.712   6.225   1.429  0.6518 -1.5037 -0.0937
16939SOL    HW252495   0.752   6.246   1.573  0.8330 -2.2318 -0.0352
16940SOL     OW52496   4.270   4.544   8.302 -0.0717  0.1334  0.9742
16940SOL    HW152497   4.186   4.514   8.336  0.4028 -1.0756  1.1341
16940SOL    HW252498   4.321   4.565   8.381 -0.3909  1.3514  0.8622
16941SOL     OW52499   3.728   5.147   3.143  0.3907  0.0594 -0.1931
16941SOL    HW152500   3.792   5.218   3.139  1.6676 -0.9907  1.0097
16941SOL    HW252501   3.749   5.092   3.068  0.6108 -0.0406 -0.0587
16942SOL     OW52502   4.421   0.199   5.821  0.4359  0.4038 -0.0396
16942SOL    HW152503   4.441   0.153   5.903  0.5051 -0.4658 -0.5497
16942SOL    HW252504   4.442   0.291   5.840 -1.7583  0.5989  1.6758
16943SOL     OW52505   8.630   8.292   0.006 -0.1141  0.5426  0.1105
16943SOL    HW152506   8.652   8.382   0.029  0.4370  0.3801  0.2243
16943SOL    HW252507   8.711   8.243   0.022 -0.8276 -0.2269  1.4309
16944SOL     OW52508   8.469   0.096   1.994 -0.1201 -0.1743 -0.1712
16944SOL    HW152509   8.428   0.082   1.908  0.5245 -0.9119 -0.3677
16944SOL    HW252510   8.541   0.157   1.977 -1.6017  1.7734  0.3153
16945SOL     OW52511   2.253   6.804   2.300 -0.4567  0.2913  0.2240
16945SOL    HW152512   2.208   6.847   2.228  0.2339  1.6626  0.5924
16945SOL    HW252513   2.344   6.835   2.293 -0.4147  0.5422  1.7493
16946SOL     OW52514   8.172   7.138   5.407  0.5307 -0.2669 -0.0208
16946SOL    HW152515   8.146   7.150   5.316  1.4140  2.0041 -0.0074
16946SOL    HW252516   8.155   7.045   5.425 -3.8079  0.1990 -1.1422
16947SOL     OW52517   2.196   4.043   0.496 -0.9467 -0.4217 -0.0104
16947SOL    HW152518   2.280   4.084   0.517  0.0642 -1.2992 -2.2598
16947SOL    HW252519   2.137   4.116   0.476 -0.0761  0.0873 -0.7159
16948SOL     OW52520   6.809   6.425   0.809  0.2461 -0.4015  0.2133
16948SOL    HW152521   6.824   6.360   0.877 -0.1842 -1.0675 -0.3260
16948SOL    HW252522   6.751   6.382   0.746  0.0820  0.4444 -0.2283
16949SOL     OW52523   1.251   4.306   3.973 -0.1704 -0.4688  0.4641
16949SOL    HW152524   1.315   4.301   3.903 -0.9995 -1.9301 -0.2281
16949SOL    HW252525   1.197   4.382   3.952 -0.7153 -1.1783 -0.7642
16950SOL     OW52526   4.376   4.182   8.368  0.0160  0.1465  0.3230
16950SOL    HW152527   4.340   4.227   8.445 -3.8334 -1.2734 -0.5298
16950SOL    HW252528   4.341   4.093   8.373  3.1124 -1.2202 -0.8992
16951SOL     OW52529   8.330   1.892   3.439 -0.3383 -0.3878 -0.3281
16951SOL    HW152530   8.287   1.858   3.360  1.5594 -0.9616 -1.1404
16951SOL    HW252531   8.342   1.985   3.421 -1.0759 -0.2604 -0.1718
16952SOL     OW52532   3.865   2.769   2.054  0.5923  0.0867 -0.3085
16952SOL    HW152533   3.866   2.683   2.014  0.6967 -1.5798  3.1171
16952SOL    HW252534   3.931   2.765   2.123 -2.1980  1.5004  2.5908
16953SOL     OW52535   3.029   2.056   6.633 -0.0229  0.1718  0.2336
16953SOL    HW152536   2.968   2.025   6.700 -0.0436 -0.3600 -0.0314
16953SOL    HW252537   2.988   2.031   6.550  0.6130 -0.2886  0.0575
16954SOL     OW52538   4.105   7.187   1.204  0.0136 -0.0832 -0.0427
16954SOL    HW152539   4.188   7.199   1.157 -0.4386 -0.4087 -0.9177
16954SOL    HW252540   4.044   7.246   1.160  0.0482  0.9754  1.3028
16955SOL     OW52541   7.903   5.735   2.881 -0.1507  0.0936 -0.2466
16955SOL    HW152542   7.903   5.639   2.885  0.4811  0.1326  1.0508
16955SOL    HW252543   7.833   5.762   2.940  0.5318  0.4441  0.4259
16956SOL     OW52544   1.516   2.686   2.971  0.1267 -0.2376  0.5245
16956SOL    HW152545   1.540   2.778   2.960  0.9169 -0.4767  0.2375
16956SOL    HW252546   1.574   2.654   3.040  1.6332 -1.1803 -1.1320
16957SOL     OW52547   2.588   1.889   3.052  0.5341 -0.0292 -0.0991
16957SOL    HW152548   2.664   1.917   3.102 -0.2631  0.0682  1.0750
16957SOL    HW252549   2.598   1.794   3.045  0.1644 -0.1619  1.0678
16958SOL     OW52550   5.195   8.079   6.493 -0.1455  0.0289 -0.5828
16958SOL    HW152551   5.173   8.139   6.421 -1.6589  1.3340  0.8997
16958SOL    HW252552   5.112   8.066   6.539  0.5523 -1.7726  0.2130
16959SOL     OW52553   4.584   8.813   2.727  0.9114  0.5485  0.5049
16959SOL    HW152554   4.660   8.760   2.751  0.5760 -0.1699 -0.0283
16959SOL    HW252555   4.614   8.866   2.653  0.3078 -1.1708 -1.0035
16960SOL     OW52556   0.313   4.782   8.311  0.1538 -0.1504  0.4535
16960SOL    HW152557   0.266   4.714   8.263 -0.8842 -0.5696  2.0021
16960SOL    HW252558   0.259   4.797   8.389  0.6617  2.0613  0.3886
16961SOL     OW52559   4.780   1.503   6.101 -0.0199 -0.1952 -0.2391
16961SOL    HW152560   4.807   1.484   6.191 -0.2411 -0.9061 -0.3176
16961SOL    HW252561   4.686   1.517   6.107  0.1714  1.0979 -0.1534
16962SOL     OW52562   3.134   0.497   3.258  0.0907  0.1244 -0.6450
16962SOL    HW152563   3.118   0.503   3.164 -1.8302  0.5509 -0.3154
16962SOL    HW252564   3.229   0.491   3.266  0.5861  3.8299 -2.4633
16963SOL     OW52565   8.646   8.236   6.192 -0.5238 -0.1306  0.7038
16963SOL    HW152566   8.597   8.214   6.272 -0.8512  0.3519  0.6372
16963SOL    HW252567   8.624   8.327   6.174 -0.1276 -0.1147  0.2876
16964SOL     OW52568   6.536   6.318   6.000 -0.4075  0.1426 -0.0098
16964SOL    HW152569   6.537   6.386   5.932 -0.9770 -0.3510 -0.5151
16964SOL    HW252570   6.611   6.339   6.055  1.1559 -0.4968 -1.8329
16965SOL     OW52571   2.740   7.350   5.232 -0.6848  0.1794 -0.8081
16965SOL    HW152572   2.736   7.285   5.162  2.9616 -0.1947 -0.7511
16965SOL    HW252573   2.714   7.302   5.310 -4.0332  0.4086 -1.7201
16966SOL     OW52574   7.484   1.743   6.795 -0.8195  0.6414 -0.0959
16966SOL    HW152575   7.549   1.672   6.798 -1.0973  0.4443  1.6601
16966SOL    HW252576   7.477   1.765   6.702  3.0661  1.8505 -0.2021
16967SOL     OW52577   3.148   7.719   3.975  0.0819  0.4772 -0.2192
16967SOL    HW152578   3.131   7.809   4.000 -2.3637  0.7835 -2.6938
16967SOL    HW252579   3.089   7.667   4.029 -0.5686  0.6204 -0.7795
16968SOL     OW52580   2.451   2.415   8.450  0.1652  0.5592  0.0694
16968SOL    HW152581   2.396   2.462   8.513  1.7641  0.0556  1.8769
16968SOL    HW252582   2.497   2.484   8.403 -0.7313  0.9273 -0.2873
16969SOL     OW52583   3.382   5.703   2.373  0.0770 -0.6488 -0.7439
16969SOL    HW152584   3.323   5.738   2.440 -1.2088 -0.5131 -1.8995
16969SOL    HW252585   3.449   5.770   2.363 -0.9079  0.3168 -1.0875
16970SOL     OW52586   3.909   9.092   4.898 -0.1456  0.0782 -0.3349
16970SOL    HW152587   3.935   9.174   4.857  0.9268 -0.4635 -0.7572
16970SOL    HW252588   3.827   9.069   4.854 -0.1341  0.6110 -0.6455
16971SOL     OW52589   0.738   7.571   1.592  0.0079  0.0022 -0.3053
16971SOL    HW152590   0.646   7.579   1.566  0.2873  2.1880 -0.6835
16971SOL    HW252591   0.737   7.506   1.663 -1.6995 -0.6088 -0.8560
16972SOL     OW52592   2.169   2.002   0.006  0.2834  0.4548 -0.2883
16972SOL    HW152593   2.248   1.966  -0.034  0.5310  1.4270 -0.7075
16972SOL    HW252594   2.118   1.926   0.032  0.3639 -0.2108 -2.0040
16973SOL     OW52595   4.602   1.566   1.234  0.6846 -0.7286  0.2400
16973SOL    HW152596   4.656   1.630   1.186  1.3842 -0.9168  0.7610
16973SOL    HW252597   4.597   1.601   1.323 -0.1336 -0.6746  0.1769
16974SOL     OW52598   0.391   6.857   8.144 -0.3157 -0.4134  0.2558
16974SOL    HW152599   0.373   6.838   8.052 -0.2483  1.1057 -0.0702
16974SOL    HW252600   0.434   6.777   8.176  0.1011 -0.7749 -1.1488
16975SOL     OW52601   5.768   3.137   4.648  0.2328 -0.5008 -0.0319
16975SOL    HW152602   5.701   3.194   4.684  2.3866  1.7701  0.5107
16975SOL    HW252603   5.757   3.144   4.553  0.7225  1.1121  0.0273
16976SOL     OW52604   6.621   1.094   4.711 -0.2721  0.3013 -0.3147
16976SOL    HW152605   6.538   1.110   4.666 -0.4719  0.4997  0.1223
16976SOL    HW252606   6.621   0.999   4.728 -0.3546  0.2822 -0.4234
16977SOL     OW52607   5.919   8.461   3.995  0.2361  0.2187 -0.7613
16977SOL    HW152608   5.834   8.496   4.020  0.4990 -1.8326  3.4112
16977SOL    HW252609   5.918   8.370   4.025  3.7288  0.0112 -1.0081
16978SOL     OW52610   3.456   1.524   7.108  0.3839 -0.5832 -0.0652
16978SOL    HW152611   3.389   1.491   7.168 -0.6407  0.3909 -0.6410
16978SOL    HW252612   3.406   1.555   7.032  1.4528  0.7322 -0.2429
16979SOL     OW52613   3.146   1.956   8.712 -0.0157 -0.2467  0.4399
16979SOL    HW152614   3.085   1.948   8.638 -0.4170 -2.7389  0.9953
16979SOL    HW252615   3.089   1.975   8.787  0.2740  0.9967  0.3660
16980SOL     OW52616   8.037   6.774   4.289  0.7792  0.2269 -0.2908
16980SOL    HW152617   7.986   6.844   4.329  1.0135  0.3431 -0.2020
16980SOL    HW252618   8.098   6.746   4.357 -0.0764 -0.8358  0.0613
16981SOL     OW52619   1.177   8.611   4.336  0.3354  0.1784 -0.8037
16981SOL    HW152620   1.128   8.651   4.408  1.1315 -1.1140  0.4882
16981SOL    HW252621   1.268   8.609   4.367  0.6963 -0.3377 -1.8654
16982SOL     OW52622   7.741   2.114   2.030  0.7751  0.3875 -0.3021
16982SOL    HW152623   7.690   2.126   2.110  0.9642 -0.9176  0.0233
16982SOL    HW252624   7.743   2.201   1.989 -0.8736  0.6543  0.1779
16983SOL     OW52625   1.868   0.091   8.007  0.1022  0.4523  0.0641
16983SOL    HW152626   1.777   0.108   7.984 -0.5680 -0.5643  1.8308
16983SOL    HW252627   1.885   0.003   7.974  0.2141  0.3531  0.3872
16984SOL     OW52628   2.794   7.520   9.128  0.0482 -0.2327 -0.8379
16984SOL    HW152629   2.791   7.528   9.033  1.4038 -1.6906 -1.0285
16984SOL    HW252630   2.880   7.555   9.152 -0.7125  1.1232 -0.0207
16985SOL     OW52631   8.382   1.453   1.868  0.3732  0.1935  0.1422
16985SOL    HW152632   8.329   1.505   1.928 -0.3785 -0.0903 -0.2816
16985SOL    HW252633   8.365   1.362   1.893 -0.8950  0.0223 -1.3057
16986SOL     OW52634   8.921   1.353   2.994  0.5462  0.5352  0.2899
16986SOL    HW152635   9.012   1.329   3.010  0.4703 -0.5747 -0.8524
16986SOL    HW252636   8.925   1.445   2.965  1.2168  0.7207  0.9583
16987SOL     OW52637   8.740   0.773   3.165  0.2030 -0.1657  0.3063
16987SOL    HW152638   8.768   0.685   3.189 -0.3436 -0.0568  1.3896
16987SOL    HW252639   8.650   0.762   3.135 -0.7705  0.3439  2.8665
16988SOL     OW52640   0.604   6.165   1.318  0.2807  0.5487 -0.0810
16988SOL    HW152641   0.578   6.219   1.243 -0.0944 -0.4574 -0.6879
16988SOL    HW252642   0.626   6.080   1.279  2.4114  0.7280  0.6759
16989SOL     OW52643   1.642   8.153   6.327  0.0090  0.6871 -0.1752
16989SOL    HW152644   1.648   8.217   6.399 -0.3580 -1.9053  2.2735
16989SOL    HW252645   1.550   8.125   6.327  0.3339 -0.4245 -0.6573
16990SOL     OW52646   2.673   8.962   8.232 -0.0407 -0.3424  0.3957
16990SOL    HW152647   2.671   8.930   8.323  2.0462  0.1536  0.6417
16990SOL    HW252648   2.691   9.055   8.241  1.9020 -0.6014 -0.5657
16991SOL     OW52649   7.199   6.782   3.974  0.1643  0.3500 -0.2649
16991SOL    HW152650   7.234   6.714   3.917 -0.3621  0.8234 -1.1533
16991SOL    HW252651   7.121   6.743   4.013 -0.1963  0.4837 -0.8543
16992SOL     OW52652   7.601   5.664   6.521  0.2884  0.3093 -0.0604
16992SOL    HW152653   7.600   5.746   6.472  2.5346 -0.7089 -1.8998
16992SOL    HW252654   7.559   5.601   6.463  1.9760 -0.6597 -0.2747
16993SOL     OW52655   5.491   1.901   5.908 -0.3520  0.4146  0.0779
16993SOL    HW152656   5.425   1.854   5.857 -0.6284  2.0738 -1.1345
16993SOL    HW252657   5.525   1.967   5.847  1.4984  0.4220  1.1032
16994SOL     OW52658   3.575   1.461   7.389  0.0723 -0.0445 -0.0955
16994SOL    HW152659   3.657   1.420   7.365 -0.3756 -1.3636  0.5556
16994SOL    HW252660   3.519   1.388   7.417 -1.3450  0.8146 -0.6168
16995SOL     OW52661   2.449   5.515   5.298 -0.3486 -0.0814 -0.2288
16995SOL    HW152662   2.524   5.472   5.339 -0.6730  0.1159  0.5785
16995SOL    HW252663   2.488   5.588   5.249  0.1878 -1.2343 -1.5398
16996SOL     OW52664   7.516   0.400   6.101 -0.4039 -0.3765 -0.1906
16996SOL    HW152665   7.575   0.343   6.052 -0.5989 -0.9877  0.2780
16996SOL    HW252666   7.543   0.489   6.076  1.2015 -0.6255  0.5584
16997SOL     OW52667   4.158   9.290   6.415  0.4513 -0.3394  0.3476
16997SOL    HW152668   4.221   9.220   6.396  1.2328  0.7607 -1.2443
16997SOL    HW252669   4.072   9.250   6.402  0.9001 -0.8935 -0.9929
16998SOL     OW52670   6.714   0.210   8.711  0.5468  0.0826 -0.5120
16998SOL    HW152671   6.631   0.258   8.715  0.5772  0.1581 -0.7520
16998SOL    HW252672   6.775   0.265   8.759  0.7199  0.5771 -1.2890
16999SOL     OW52673   1.583   1.526   1.898  0.1336 -0.2702  0.2835
16999SOL    HW152674   1.648   1.573   1.846 -1.5523 -0.5349 -2.1580
16999SOL    HW252675   1.538   1.595   1.947  2.5729 -0.1421  2.4680
17000SOL     OW52676   9.011   9.280   2.836 -0.5749  0.0710 -0.7305
17000SOL    HW152677   9.080   9.225   2.799 -2.1043 -0.8050 -2.3874
17000SOL    HW252678   9.054   9.362   2.859  1.5960 -1.4986  1.0347
17001SOL     OW52679   2.180   5.638   9.102  0.5245 -0.2600 -0.6832
17001SOL    HW152680   2.203   5.650   9.194 -0.1789 -1.4939 -0.3444
17001SOL    HW252681   2.206   5.720   9.061 -0.8563  1.0509  0.9564
17002SOL     OW52682   5.022   8.578   3.033  0.6824  0.1270 -0.1269
17002SOL    HW152683   5.063   8.640   2.973 -0.4760  2.5946  1.5706
17002SOL    HW252684   4.973   8.632   3.095  0.8388 -2.3819  2.3297
17003SOL     OW52685   4.729   5.289   5.158 -0.3880  0.5943  0.2722
17003SOL    HW152686   4.795   5.249   5.101 -0.0065  1.4980  0.0769
17003SOL    HW252687   4.778   5.350   5.213 -0.6428 -0.7821  2.0785
17004SOL     OW52688   2.368   2.413   8.906  0.2222 -0.0408  0.3323
17004SOL    HW152689   2.287   2.462   8.897 -0.7546 -1.3241  1.9964
17004SOL    HW252690   2.417   2.460   8.973  0.5692  0.3402 -0.1837
17005SOL     OW52691   2.655   8.605   3.647 -0.0873 -0.0973  0.2604
17005SOL    HW152692   2.669   8.689   3.691 -0.1098  0.5506 -0.9732
17005SOL    HW252693   2.703   8.612   3.565  0.9546 -1.7588  0.6842
17006SOL     OW52694   8.556   7.489   0.003  1.0603 -0.1129 -0.6904
17006SOL    HW152695   8.606   7.563   0.036  2.0085 -0.9039 -0.3246
17006SOL    HW252696   8.473   7.527  -0.027  2.3296  1.3930 -2.4151
17007SOL     OW52697   1.737   5.957   7.809 -0.0082 -0.4578  0.1404
17007SOL    HW152698   1.654   5.957   7.762  0.1621  2.3016 -0.2795
17007SOL    HW252699   1.714   5.936   7.899 -0.9191 -1.4578 -0.3184
17008SOL     OW52700   0.955   0.893   6.878  1.1280  0.0088 -0.1325
17008SOL    HW152701   0.998   0.977   6.864  2.0891 -0.7425 -1.8434
17008SOL    HW252702   0.883   0.912   6.938  1.6067  1.9561 -0.1605
17009SOL     OW52703   6.370   7.329   3.369  0.1552  0.1020 -0.3530
17009SOL    HW152704   6.354   7.270   3.442  0.5317  1.3139  0.7196
17009SOL    HW252705   6.466   7.336   3.364  0.1691 -0.9138 -1.7281
17010SOL     OW52706   9.035   3.762   3.392 -0.8400  0.2418  0.3170
17010SOL    HW152707   9.029   3.751   3.487 -2.0599  0.1362  0.2450
17010SOL    HW252708   9.128   3.754   3.372 -0.6845 -0.7450  1.3893
17011SOL     OW52709   3.353   3.665   0.117  0.1293 -0.5547  0.1611
17011SOL    HW152710   3.376   3.612   0.041 -0.0962 -0.6074  0.1283
17011SOL    HW252711   3.372   3.755   0.090 -1.4828 -0.4105 -0.5482
17012SOL     OW52712   1.003   6.374   5.419  0.2037 -0.1728 -0.2647
17012SOL    HW152713   1.034   6.441   5.357  1.5403 -0.7572 -0.2426
17012SOL    HW252714   1.067   6.376   5.490  0.6543 -1.9883 -0.6164
17013SOL     OW52715   2.680   7.115   8.468  0.0439 -0.0729 -0.8193
17013SOL    HW152716   2.651   7.165   8.544 -0.8012 -1.8556  0.0642
17013SOL    HW252717   2.606   7.118   8.407 -0.7167 -1.6950 -0.0182
17014SOL     OW52718   7.333   3.563   3.310  0.0841  0.1430 -0.0945
17014SOL    HW152719   7.319   3.658   3.319 -0.7411  0.0375 -0.2839
17014SOL    HW252720   7.245   3.525   3.314  0.4588 -0.6704  0.6195
17015SOL     OW52721   3.422   8.895   9.277  0.0947  0.1304  0.0828
17015SOL    HW152722   3.418   8.932   9.189 -1.2334 -0.8656 -0.2862
17015SOL    HW252723   3.347   8.835   9.282 -0.9344  1.5523  2.5194
17016SOL     OW52724   0.244   8.507   4.413 -0.5078 -0.3864  0.0966
17016SOL    HW152725   0.208   8.445   4.477 -0.7557 -0.4194 -0.0752
17016SOL    HW252726   0.338   8.503   4.426 -0.5559 -0.4018  0.4561
17017SOL     OW52727   6.982   5.908   5.565  0.5018  0.3976 -0.0911
17017SOL    HW152728   6.972   5.823   5.608 -3.1270  0.1463 -1.2271
17017SOL    HW252729   7.015   5.889   5.478  1.8808  0.3658  0.4338
17018SOL     OW52730   6.370   5.422   7.109 -0.1714 -0.4931 -0.0964
17018SOL    HW152731   6.425   5.501   7.115  2.1000 -1.7426 -3.0411
17018SOL    HW252732   6.281   5.456   7.109  0.6570  1.8544  1.7439
17019SOL     OW52733   0.735   1.566   9.099 -0.1376 -0.1669  0.3357
17019SOL    HW152734   0.707   1.658   9.098 -1.5554 -0.5910 -2.1822
17019SOL    HW252735   0.818   1.565   9.053 -0.2122 -0.1658  0.1995
17020SOL     OW52736   6.013   1.314   6.843 -0.2407 -0.5511 -0.2398
17020SOL    HW152737   6.017   1.348   6.933  0.4441 -0.9274 -0.1225
17020SOL    HW252738   5.933   1.261   6.841 -1.4173  1.1794 -0.4724
17021SOL     OW52739   8.279   0.493   8.188 -0.0270 -0.4857 -0.4959
17021SOL    HW152740   8.372   0.510   8.174 -0.2928 -0.1284 -1.9390
17021SOL    HW252741   8.277   0.418   8.248  1.1697  0.1749  0.3919
17022SOL     OW52742   8.591   6.024   8.538 -0.0876  0.3502  0.0193
17022SOL    HW152743   8.663   6.018   8.475  1.2023  2.0003  1.2594
17022SOL    HW252744   8.527   6.082   8.496  0.6498  1.2400  0.0940
17023SOL     OW52745   7.746   7.075   1.791  0.4563  0.4848 -0.2027
17023SOL    HW152746   7.785   7.151   1.834 -0.5352  0.0043  1.6238
17023SOL    HW252747   7.668   7.056   1.844  0.5382 -1.6119 -0.8094
17024SOL     OW52748   4.277   1.739   4.571  0.1932  0.5449  0.2107
17024SOL    HW152749   4.336   1.781   4.635  0.3175 -0.6715  0.8997
17024SOL    HW252750   4.310   1.650   4.563 -0.3343  0.4469 -0.9426
17025SOL     OW52751   4.731   7.789   5.431 -0.2696  0.6773  0.1786
17025SOL    HW152752   4.696   7.725   5.369 -0.3907  0.8667  0.0532
17025SOL    HW252753   4.724   7.873   5.386  3.2974  0.3391 -1.1272
17026SOL     OW52754   4.478   7.812   8.921  1.2648 -0.3085  0.3504
17026SOL    HW152755   4.417   7.817   8.995 -0.3897 -0.5994 -0.9455
17026SOL    HW252756   4.545   7.749   8.949  0.0708 -1.2347  1.1872
17027SOL     OW52757   8.933   8.440   4.882  0.2907 -0.3087  0.4631
17027SOL    HW152758   8.945   8.491   4.801  0.2376 -0.3645  0.4199
17027SOL    HW252759   8.987   8.486   4.947  0.6410 -0.4911  0.2995
17028SOL     OW52760   8.834   7.108   3.832 -0.0477 -0.5129 -0.1228
17028SOL    HW152761   8.903   7.101   3.897  0.5831 -0.6219 -0.7978
17028SOL    HW252762   8.839   7.027   3.782 -1.4790 -1.0659  0.6150
17029SOL     OW52763   6.074   5.161   7.927  0.5298  0.0080  0.3095
17029SOL    HW152764   6.163   5.144   7.957  0.5918  0.2011  0.2347
17029SOL    HW252765   6.085   5.220   7.852  0.5465 -2.2372 -1.5302
17030SOL     OW52766   5.857   0.461   7.179 -0.4179 -0.3774 -0.8225
17030SOL    HW152767   5.946   0.480   7.211 -1.4930  0.6787  1.6519
17030SOL    HW252768   5.867   0.456   7.084  2.1179  0.8043 -0.6674
17031SOL     OW52769   7.452   4.732   4.919 -0.1496  0.2524  0.1429
17031SOL    HW152770   7.461   4.669   4.848 -1.6572 -2.7336  2.5230
17031SOL    HW252771   7.529   4.716   4.975 -0.1595  1.0320  0.3907
17032SOL     OW52772   9.187   3.331   9.043 -0.3753 -0.2119 -0.7456
17032SOL    HW152773   9.164   3.352   8.952  0.0682 -1.2781 -1.1236
17032SOL    HW252774   9.249   3.399   9.069  1.7021 -1.4510 -2.2164
17033SOL     OW52775   4.917   6.936   8.588 -0.5164  0.2471 -0.7382
17033SOL    HW152776   4.966   6.920   8.669 -1.5740 -0.2883 -0.1976
17033SOL    HW252777   4.863   7.013   8.609 -1.0233 -0.0835 -0.8213
17034SOL     OW52778   6.369   6.655   1.718  0.0161  0.5734 -0.0502
17034SOL    HW152779   6.379   6.578   1.774  0.2409  1.6013  1.3699
17034SOL    HW252780   6.320   6.624   1.642 -2.0105 -0.4573  1.6163
17035SOL     OW52781   1.499   8.239   8.630 -0.0403 -0.1408  0.3597
17035SOL    HW152782   1.444   8.316   8.642  0.1632  0.0214  0.2474
17035SOL    HW252783   1.511   8.204   8.719  1.8536  1.3247  0.7189
17036SOL     OW52784   1.565   3.665   5.421  0.3701 -0.1612  0.2951
17036SOL    HW152785   1.492   3.714   5.383  2.1070  1.2113 -1.3572
17036SOL    HW252786   1.554   3.576   5.386 -0.9246 -0.1622  0.6687
17037SOL     OW52787   6.898   7.510   3.485 -0.1894  0.0262 -0.2226
17037SOL    HW152788   6.986   7.540   3.461  0.2392  0.2469  1.5874
17037SOL    HW252789   6.844   7.589   3.482 -0.4818 -0.2015 -1.8797
17038SOL     OW52790   4.960   2.948   0.748  0.4048 -0.0987 -0.5360
17038SOL    HW152791   4.902   2.920   0.819  1.2677 -0.0392  0.2073
17038SOL    HW252792   4.901   2.966   0.675 -0.6422  1.1653  0.5808
17039SOL     OW52793   6.218   9.139   2.372  0.0463  0.1369  0.3329
17039SOL    HW152794   6.156   9.162   2.303  1.0376 -0.9496 -0.9323
17039SOL    HW252795   6.286   9.089   2.328  1.4453  0.6591  1.8515
17040SOL     OW52796   8.838   8.320   8.339 -0.1881  0.6460  0.3841
17040SOL    HW152797   8.801   8.363   8.416 -0.7930  0.2354  0.3233
17040SOL    HW252798   8.851   8.229   8.367  0.2210  0.6478  0.2124
17041SOL     OW52799   4.084   2.110   2.045  0.0475  0.1411 -0.8331
17041SOL    HW152800   4.164   2.113   1.994  0.6344 -1.7042 -0.0598
17041SOL    HW252801   4.090   2.028   2.095 -0.4460  1.9390  2.2818
17042SOL     OW52802   7.403   6.624   7.752  0.0256  0.0657  0.0196
17042SOL    HW152803   7.447   6.540   7.761 -0.7440 -0.4399 -0.9555
17042SOL    HW252804   7.422   6.670   7.834  2.2590 -0.1899 -0.3326
17043SOL     OW52805   6.817   1.155   0.451 -0.2634  0.4465 -0.1239
17043SOL    HW152806   6.815   1.228   0.390  1.1796  0.3154 -0.3462
17043SOL    HW252807   6.824   1.196   0.538 -2.9465  0.6504  0.0397
17044SOL     OW52808   2.269   8.532   0.652 -0.4524 -0.5633 -0.7556
17044SOL    HW152809   2.179   8.543   0.681 -0.5572 -0.2379 -1.2004
17044SOL    HW252810   2.291   8.441   0.673 -0.3789 -0.1993  0.7403
17045SOL     OW52811   1.686   3.994   1.666 -0.5539 -0.1804  0.3036
17045SOL    HW152812   1.725   4.039   1.741  0.3750  0.2452 -0.4158
17045SOL    HW252813   1.593   4.017   1.670 -0.6027 -0.6079  1.6285
17046SOL     OW52814   1.570   8.044   4.734 -0.1401  0.3705 -0.1978
17046SOL    HW152815   1.584   8.120   4.791  3.8369  0.1809 -0.7897
17046SOL    HW252816   1.573   8.079   4.645  0.2503 -0.2607 -0.4371
17047SOL     OW52817   5.792   7.491   6.321 -0.0978 -0.4752  0.0107
17047SOL    HW152818   5.711   7.464   6.276 -1.0769 -0.4796  1.7490
17047SOL    HW252819   5.796   7.435   6.399  1.5007 -0.3436  0.0462
17048SOL     OW52820   1.115   6.274   9.111  0.1340 -0.0964  0.2994
17048SOL    HW152821   1.054   6.330   9.159 -0.6240 -0.8208  0.2027
17048SOL    HW252822   1.059   6.216   9.059  0.9379  0.7242 -1.5398
17049SOL     OW52823   2.006   6.176   4.958  0.4387  0.4707 -0.0388
17049SOL    HW152824   2.019   6.171   4.864  2.2335  1.2472  0.1549
17049SOL    HW252825   1.989   6.269   4.975  0.8098  0.4407  0.4930
17050SOL     OW52826   2.582   5.498   6.159 -0.3918 -0.1101  0.0772
17050SOL    HW152827   2.628   5.536   6.234 -0.3199  0.1169 -0.0828
17050SOL    HW252828   2.552   5.413   6.191 -0.2664 -0.0614  0.3304
17051SOL     OW52829   8.512   8.604   0.175  0.2068 -0.2743 -0.3139
17051SOL    HW152830   8.458   8.533   0.139  0.6579 -1.8419  1.9670
17051SOL    HW252831   8.455   8.681   0.173 -1.7483 -1.6262  0.9270
17052SOL     OW52832   0.194   6.524   9.195 -1.1425 -0.4619  0.6826
17052SOL    HW152833   0.183   6.575   9.115  0.5397 -1.3701 -0.1701
17052SOL    HW252834   0.180   6.433   9.168  1.2047 -0.9629  0.9674
17053SOL     OW52835   6.336   1.786   7.727  0.7753 -0.5661  0.6193
17053SOL    HW152836   6.256   1.815   7.684  0.8808 -1.6006 -0.2770
17053SOL    HW252837   6.382   1.868   7.749  0.1520 -0.0070 -0.1444
17054SOL     OW52838   7.358   1.244   3.809  0.4459  0.6785 -0.0107
17054SOL    HW152839   7.429   1.269   3.869 -0.0896 -1.0139  1.4100
17054SOL    HW252840   7.285   1.301   3.832  0.4251  0.4186  0.5893
17055SOL     OW52841   0.631   4.218   8.309 -0.2002 -0.3970  0.3661
17055SOL    HW152842   0.716   4.260   8.296 -0.4735 -0.7174 -2.8593
17055SOL    HW252843   0.649   4.145   8.368  1.7140 -0.2485  0.0020
17056SOL     OW52844   4.752   1.110   0.400 -0.0178  0.3227 -0.3470
17056SOL    HW152845   4.671   1.089   0.353  0.2591  1.7215 -1.4533
17056SOL    HW252846   4.743   1.201   0.425  0.1080 -0.2344  1.8207
17057SOL     OW52847   1.222   7.657   8.923  0.2568  0.2468 -0.1030
17057SOL    HW152848   1.259   7.617   9.001  1.3868  2.1641  0.3819
17057SOL    HW252849   1.146   7.705   8.954 -0.7104 -0.9351 -0.5825
17058SOL     OW52850   6.844   2.383   3.862 -0.3671  0.3677  0.0015
17058SOL    HW152851   6.759   2.390   3.906  0.8447 -1.6554  2.8644
17058SOL    HW252852   6.903   2.436   3.916  1.0812 -1.8465  0.6934
17059SOL     OW52853   6.512   8.575   6.151  0.8799  0.2223 -0.0396
17059SOL    HW152854   6.461   8.655   6.138  0.4020 -0.2496 -1.2123
17059SOL    HW252855   6.475   8.535   6.230 -0.1474  0.2158 -0.5087
17060SOL     OW52856   4.976   2.997   2.410  0.6481  0.5102  0.5732
17060SOL    HW152857   5.030   3.041   2.476 -0.7515  1.6352  0.9993
17060SOL    HW252858   4.887   3.006   2.442  0.1972 -1.4025 -0.0826
17061SOL     OW52859   1.870   6.547   3.896  0.2658  0.0446  0.4047
17061SOL    HW152860   1.789   6.510   3.932  0.7841 -0.1325  1.4117
17061SOL    HW252861   1.919   6.576   3.973  1.6124 -0.7759 -0.1292
17062SOL     OW52862   1.247   2.952   6.149  0.7110 -0.5864 -0.9394
17062SOL    HW152863   1.230   2.932   6.241  0.4961 -2.7157 -1.4205
17062SOL    HW252864   1.211   3.039   6.136 -1.3968 -1.2239  0.4023
17063SOL     OW52865   7.174   6.815   0.648 -0.2092  0.0587  0.2415
17063SOL    HW152866   7.092   6.769   0.662  0.3621 -1.6515 -1.7512
17063SOL    HW252867   7.234   6.778   0.712 -0.0693 -1.1793 -0.5914
17064SOL     OW52868   5.221   0.118   2.131 -0.1163  0.1842  0.1666
17064SOL    HW152869   5.131   0.111   2.100 -0.5588  0.3351  1.4034
17064SOL    HW252870   5.229   0.209   2.161  0.3946  0.1257  0.2169
17065SOL     OW52871   8.463   0.462   4.520  0.1494 -0.0815 -0.3305
17065SOL    HW152872   8.497   0.500   4.601 -2.0358 -0.3269  0.7235
17065SOL    HW252873   8.407   0.390   4.549 -0.5674 -0.2388 -2.0639
17066SOL     OW52874   6.161   1.045   9.048  0.2733  0.2638  0.0540
17066SOL    HW152875   6.117   1.109   8.991 -1.8039  1.1729  2.6063
17066SOL    HW252876   6.205   1.098   9.114 -0.6223 -0.8962  1.6030
17067SOL     OW52877   2.443   2.794   4.459 -0.9753 -0.7259  0.1738
17067SOL    HW152878   2.421   2.786   4.552 -0.6442 -1.0949  0.2278
17067SOL    HW252879   2.484   2.710   4.438  1.5496  0.4012  0.4167
17068SOL     OW52880   8.054   7.995   4.754 -0.9619  0.2334 -0.2285
17068SOL    HW152881   8.004   8.076   4.772 -0.1111  1.0913 -1.6575
17068SOL    HW252882   8.023   7.967   4.668 -1.8195 -1.4156  0.6057
17069SOL     OW52883   5.074   6.018   8.406 -0.1029  0.5500  0.2789
17069SOL    HW152884   5.062   6.097   8.458  0.3163  1.0174 -0.3331
17069SOL    HW252885   4.989   6.004   8.364 -0.7965 -0.4808  1.9762
17070SOL     OW52886   1.740   4.679   4.753  0.7271 -0.4479  0.8939
17070SOL    HW152887   1.807   4.646   4.693  1.0766 -1.7417  1.9786
17070SOL    HW252888   1.710   4.601   4.800 -0.4994  0.3559  1.4461
17071SOL     OW52889   5.103   8.758   0.142 -0.1892 -0.1345 -0.3598
17071SOL    HW152890   5.036   8.734   0.078  0.0349  1.1022 -1.0652
17071SOL    HW252891   5.056   8.809   0.208 -0.0602  0.2499 -0.5606
17072SOL     OW52892   5.020   5.790   1.409 -0.0299 -0.6288 -0.5449
17072SOL    HW152893   4.973   5.732   1.469 -0.0178 -0.2030 -0.1249
17072SOL    HW252894   5.012   5.747   1.323 -1.1221 -0.5937 -0.4672
17073SOL     OW52895   7.062   5.407   6.519 -0.3944  0.4509  0.1547
17073SOL    HW152896   7.107   5.327   6.545  2.0334  1.3851 -0.9947
17073SOL    HW252897   6.972   5.394   6.548  0.2201 -2.1724  1.0718
17074SOL     OW52898   1.459   4.213   7.305  0.0773 -0.1038  0.3743
17074SOL    HW152899   1.371   4.248   7.323  0.2468 -0.5308  2.1532
17074SOL    HW252900   1.502   4.213   7.390  1.1592 -1.6606 -0.1557
17075SOL     OW52901   3.909   5.349   3.029  0.5650  0.4708  0.4079
17075SOL    HW152902   3.940   5.348   3.119  1.7723  1.0570  0.0112
17075SOL    HW252903   3.969   5.408   2.984 -0.5223  0.8313 -0.6045
17076SOL     OW52904   3.327   8.782   1.118 -0.5069 -0.2176  0.1494
17076SOL    HW152905   3.323   8.769   1.213 -0.5803 -1.0854  0.0379
17076SOL    HW252906   3.346   8.695   1.083  1.8879  0.5370 -0.4886
17077SOL     OW52907   6.327   5.900   0.732  0.1171  0.1574 -0.0480
17077SOL    HW152908   6.403   5.948   0.699 -0.2504  0.6756 -0.1473
17077SOL    HW252909   6.274   5.884   0.655  0.3912 -0.6987 -0.0661
17078SOL     OW52910   2.856   8.262   9.041  0.4327 -0.5079  0.2377
17078SOL    HW152911   2.887   8.300   9.124 -1.8587 -2.3103  1.9809
17078SOL    HW252912   2.772   8.305   9.025  0.9003 -0.1078 -1.2277
17079SOL     OW52913   2.509   5.761   0.241  0.1784 -0.6036 -0.4746
17079SOL    HW152914   2.524   5.670   0.265  0.1963 -0.5150 -0.1457
17079SOL    HW252915   2.520   5.763   0.146 -2.7729 -1.5264 -0.8858
17080SOL     OW52916   6.982   5.735   0.729 -0.3005  0.2903 -0.5290
17080SOL    HW152917   6.955   5.823   0.754 -2.0547 -0.1698 -0.7430
17080SOL    HW252918   6.907   5.680   0.749  1.8243 -1.6682  2.4205
17081SOL     OW52919   7.761   0.158   8.136  0.0904 -0.7037 -0.1014
17081SOL    HW152920   7.842   0.108   8.139 -1.1046 -2.7138 -0.6927
17081SOL    HW252921   7.729   0.148   8.046 -1.0310 -0.2742  0.2324
17082SOL     OW52922   0.538   7.185   1.482 -0.8901  0.2774  0.0448
17082SOL    HW152923   0.463   7.188   1.541 -1.2997  0.1895 -0.4762
17082SOL    HW252924   0.512   7.238   1.406 -0.3226  0.4800 -0.0122
17083SOL     OW52925   7.109   8.085   9.141 -0.2407 -0.2698  0.2890
17083SOL    HW152926   7.177   8.134   9.187 -0.6848  0.0863  0.5707
17083SOL    HW252927   7.114   8.115   9.051 -0.8616  0.6987  0.5636
17084SOL     OW52928   3.166   3.628   5.992 -0.3783  0.2190 -0.4923
17084SOL    HW152929   3.115   3.701   6.027  0.8771  0.7499  0.2585
17084SOL    HW252930   3.221   3.667   5.924  0.3804 -0.0038 -0.0069
17085SOL     OW52931   4.900   4.514   8.609 -0.2303 -0.3704  0.0978
17085SOL    HW152932   4.812   4.551   8.617  0.2487  0.6488  0.7121
17085SOL    HW252933   4.957   4.590   8.598  0.3940 -1.1218 -1.9188
17086SOL     OW52934   9.285   0.972   1.622 -0.1212 -0.1777 -0.4458
17086SOL    HW152935   9.365   1.010   1.585 -0.2019 -1.1385 -1.6774
17086SOL    HW252936   9.232   0.951   1.545  0.4540 -3.9177  0.0489
17087SOL     OW52937   0.745   1.092   1.426  0.1565  0.6736  0.4192
17087SOL    HW152938   0.714   1.178   1.396 -0.0775  1.5131  2.9612
17087SOL    HW252939   0.686   1.069   1.498 -0.2330 -1.9927 -0.6988
17088SOL     OW52940   5.743   3.282   6.882 -0.4196  0.1395  0.2164
17088SOL    HW152941   5.697   3.246   6.958 -0.2657 -2.0305 -0.7021
17088SOL    HW252942   5.834   3.258   6.895  0.0349  1.9817  0.5965
17089SOL     OW52943   1.283   8.707   5.089  0.4839  0.4857 -0.5104
17089SOL    HW152944   1.286   8.699   4.993 -1.5130  2.6261 -0.7934
17089SOL    HW252945   1.262   8.619   5.120 -3.3716  0.6746 -2.3378
17090SOL     OW52946   8.213   7.285   6.152  0.4064  0.5129  0.3276
17090SOL    HW152947   8.251   7.338   6.082 -0.7312 -0.6559 -1.2071
17090SOL    HW252948   8.122   7.271   6.126  0.4478 -1.4508  1.1190
17091SOL     OW52949   5.296   5.808   7.039  0.0900 -0.3590 -0.3859
17091SOL    HW152950   5.283   5.836   6.949  0.7409 -0.0647 -0.3858
17091SOL    HW252951   5.212   5.825   7.082  0.1502  0.5768 -0.6466
17092SOL     OW52952   6.708   8.873   3.979 -0.8261 -0.1265  0.0083
17092SOL    HW152953   6.748   8.953   3.945  0.1661  0.5365  2.6201
17092SOL    HW252954   6.687   8.893   4.070 -4.1794 -1.5601 -0.3797
17093SOL     OW52955   7.576   1.879   0.829  0.0298 -0.3802 -0.0958
17093SOL    HW152956   7.543   1.968   0.815 -0.3925 -0.5739 -0.3634
17093SOL    HW252957   7.667   1.882   0.802  0.2614  0.1864  0.7166
17094SOL     OW52958   1.360   3.666   4.725 -0.3539 -0.0508  0.3636
17094SOL    HW152959   1.321   3.580   4.737 -1.2414  0.1195 -1.1397
17094SOL    HW252960   1.327   3.718   4.799 -2.0593 -0.2364 -0.2423
17095SOL     OW52961   8.655   8.549   1.984  0.1609 -0.0700 -0.3803
17095SOL    HW152962   8.571   8.502   1.982  0.9502 -1.6317  1.4265
17095SOL    HW252963   8.699   8.520   1.904 -0.8002  0.3352 -1.0672
17096SOL     OW52964   8.657   4.425   5.202  0.1193 -0.4198  0.4585
17096SOL    HW152965   8.568   4.458   5.198  0.4702  0.3744 -0.8369
17096SOL    HW252966   8.703   4.486   5.260  0.3527  0.4197 -0.6018
17097SOL     OW52967   5.408   9.002   5.342 -0.4062 -0.1721  0.5602
17097SOL    HW152968   5.381   8.921   5.385 -0.1941  0.0491  1.1129
17097SOL    HW252969   5.447   8.972   5.259 -0.4541 -0.6258  0.6975
17098SOL     OW52970   6.138   3.054   1.652  0.9757  0.5375 -0.3980
17098SOL    HW152971   6.082   3.024   1.724  0.5824  0.9056 -0.5520
17098SOL    HW252972   6.198   2.980   1.636  0.5053  0.1224 -0.2640
17099SOL     OW52973   4.535   5.141   1.562  0.4220 -0.1826  0.2137
17099SOL    HW152974   4.587   5.216   1.593 -0.1281  0.5481 -0.6214
17099SOL    HW252975   4.574   5.119   1.477 -1.7897  1.5714 -1.3163
17100SOL     OW52976   8.147   5.725   4.995 -0.3345  0.2697 -0.3646
17100SOL    HW152977   8.199   5.662   5.046 -0.0962  0.1840 -0.7097
17100SOL    HW252978   8.161   5.808   5.039 -0.7638  0.0554  0.1765
17101SOL     OW52979   5.190   5.587   5.255 -0.3274 -0.3941  0.1155
17101SOL    HW152980   5.130   5.558   5.186 -0.7339 -0.4220  0.4785
17101SOL    HW252981   5.271   5.608   5.209 -1.4323  2.1973 -0.7364
17102SOL     OW52982   1.084   8.756   3.965  0.0076  0.8330 -0.1410
17102SOL    HW152983   1.023   8.801   3.907 -0.8909 -0.9153 -0.5783
17102SOL    HW252984   1.035   8.682   3.999  1.2031  0.6356  1.2093
17103SOL     OW52985   6.766   3.731   4.458  0.5078  0.2302  0.1569
17103SOL    HW152986   6.760   3.806   4.398 -0.1484  1.1816  1.4130
17103SOL    HW252987   6.676   3.704   4.472  0.7173 -0.5076  0.0796
17104SOL     OW52988   3.569   2.883   3.680 -0.1363 -0.2282 -0.0880
17104SOL    HW152989   3.473   2.878   3.688 -0.1449  1.1366  1.0073
17104SOL    HW252990   3.598   2.793   3.671 -1.4380 -0.7554  0.8899
17105SOL     OW52991   3.047   6.519   9.135 -0.5772  0.8520 -0.7918
17105SOL    HW152992   2.961   6.479   9.143 -0.4429  0.4707 -1.2052
17105SOL    HW252993   3.058   6.569   9.216 -0.0064 -1.3870  0.5809
17106SOL     OW52994   1.227   4.304   8.265 -0.2777  0.6725 -0.3646
17106SOL    HW152995   1.146   4.277   8.308 -0.2860  0.0366 -0.7611
17106SOL    HW252996   1.264   4.222   8.232  1.1769  0.7793  0.9338
17107SOL     OW52997   0.170   3.369   7.052 -0.6526  0.1306  0.3608
17107SOL    HW152998   0.228   3.390   7.125  0.0791  0.1543 -0.2197
17107SOL    HW252999   0.193   3.432   6.983 -2.1785  0.8979  0.5364
17108SOL     OW53000   2.116   2.262   3.930 -0.0968  0.0381  0.2312
17108SOL    HW153001   2.057   2.263   3.854  1.5264  0.8146 -1.0383
17108SOL    HW253002   2.158   2.176   3.926 -0.6318 -0.2487  0.7419
17109SOL     OW53003   7.888   6.771   0.747 -0.3236 -0.1190  0.0652
17109SOL    HW153004   7.846   6.785   0.662  0.0858  1.0955  0.0650
17109SOL    HW253005   7.964   6.828   0.747 -0.7692  0.5049  1.5750
17110SOL     OW53006   5.958   1.009   4.925 -0.6522  0.0553 -0.2782
17110SOL    HW153007   5.870   1.043   4.914 -1.1163 -1.3853 -1.1566
17110SOL    HW253008   5.987   0.988   4.836 -0.2959 -1.6103  0.2090
17111SOL     OW53009   2.590   2.599   1.166 -0.1052  0.0134 -0.0168
17111SOL    HW153010   2.685   2.586   1.167 -0.0731  0.2883  0.9133
17111SOL    HW253011   2.556   2.526   1.114  0.6908  0.4447 -1.1639
17112SOL     OW53012   7.061   9.099   4.675  0.4514  0.6698  0.2858
17112SOL    HW153013   7.138   9.043   4.680 -0.1640 -0.2526 -0.4985
17112SOL    HW253014   7.026   9.084   4.588 -0.5217  1.2254  0.5776
17113SOL     OW53015   4.136   8.988   1.984 -0.0552  0.5231 -0.3462
17113SOL    HW153016   4.198   9.033   1.926  0.5381  1.1200  0.7515
17113SOL    HW253017   4.188   8.960   2.058 -0.7821 -0.4335 -0.1946
17114SOL     OW53018   1.539   6.012   1.432 -0.1599  0.1949  0.1144
17114SOL    HW153019   1.542   6.002   1.527 -0.5933 -1.4199 -0.0273
17114SOL    HW253020   1.487   5.937   1.401  1.9758 -0.6678 -1.5785
17115SOL     OW53021   6.173   0.793   1.103 -0.4893  0.0949 -0.3710
17115SOL    HW153022   6.084   0.788   1.138 -0.0227 -0.8452  0.7454
17115SOL    HW253023   6.218   0.855   1.159 -0.5106  0.7767 -1.1040
17116SOL     OW53024   0.161   1.990   5.212 -0.5076  0.5871 -0.5601
17116SOL    HW153025   0.176   1.926   5.282  1.9718  0.9035 -0.7732
17116SOL    HW253026   0.120   2.064   5.256 -0.0094  0.3270  0.3629
17117SOL     OW53027   5.041   7.573   8.741  0.5260  0.1879 -0.2978
17117SOL    HW153028   5.113   7.621   8.700 -1.1295  3.0040 -0.0022
17117SOL    HW253029   5.001   7.524   8.669  1.6909 -0.0940 -0.7697
17118SOL     OW53030   0.072   8.077   7.864  0.4439 -0.0780  0.0537
17118SOL    HW153031   0.035   8.126   7.790 -0.3983 -0.2981  0.3264
17118SOL    HW253032   0.167   8.082   7.851  0.3023  0.0080 -0.9635
17119SOL     OW53033   5.496   4.061   4.308  0.0811 -0.0148  0.7588
17119SOL    HW153034   5.544   4.138   4.337  0.1090  0.2019  0.1312
17119SOL    HW253035   5.562   4.004   4.268  0.1615 -0.6196  1.7248
17120SOL     OW53036   7.396   3.581   5.290  0.2454  0.1807  0.2490
17120SOL    HW153037   7.458   3.653   5.297  1.5140 -0.9372  0.8376
17120SOL    HW253038   7.420   3.536   5.209 -0.7288  0.5882 -0.2675
17121SOL     OW53039   5.369   0.930   7.070  0.4982 -0.3386 -0.3358
17121SOL    HW153040   5.461   0.903   7.068  0.5040 -0.3848  0.2771
17121SOL    HW253041   5.320   0.849   7.058  0.5030 -0.7989  2.3983
17122SOL     OW53042   6.034   4.484   8.532 -0.6830 -0.1394 -0.4500
17122SOL    HW153043   6.039   4.579   8.538  1.7575 -0.2725 -0.1259
17122SOL    HW253044   6.106   4.459   8.475  0.5420 -2.0049  1.8426
17123SOL     OW53045   1.785   8.703   6.967  0.4735 -0.1502 -0.2229
17123SOL    HW153046   1.867   8.654   6.967  1.2509  1.1421 -0.1798
17123SOL    HW253047   1.810   8.792   6.943 -0.9998  0.1177 -0.7901
17124SOL     OW53048   8.844   5.755   7.785  0.4231 -0.5535 -0.0077
17124SOL    HW153049   8.829   5.691   7.855  0.6037  0.6242  1.1250
17124SOL    HW253050   8.939   5.758   7.777  0.5502  1.7252  1.9907
17125SOL     OW53051   3.837   0.979   9.152 -0.1100 -0.0196 -0.4523
17125SOL    HW153052   3.878   1.063   9.130  0.0912  0.0570  0.2282
17125SOL    HW253053   3.776   0.963   9.079  0.6730  0.1653 -1.1504
17126SOL     OW53054   3.859   3.646   4.141  0.0671 -0.4828 -0.2901
17126SOL    HW153055   3.778   3.623   4.186 -0.8519  2.3863 -0.3989
17126SOL    HW253056   3.926   3.640   4.209 -0.4279 -1.5941  0.1138
17127SOL     OW53057   6.308   8.612   1.462  0.0167 -0.0774  0.2023
17127SOL    HW153058   6.289   8.647   1.375  0.6347 -0.0154  0.0898
17127SOL    HW253059   6.280   8.682   1.522  0.1030  0.1017  0.0336
17128SOL     OW53060   5.239   4.823   0.792  0.5131 -0.0330 -0.1563
17128SOL    HW153061   5.208   4.816   0.883  0.2576 -0.7819 -0.2958
17128SOL    HW253062   5.193   4.753   0.746  0.8622  0.1645 -0.8060
17129SOL     OW53063   7.442   7.228   1.812  0.0405  0.0081 -0.3621
17129SOL    HW153064   7.361   7.256   1.855  0.1501 -2.9005  1.9232
17129SOL    HW253065   7.412   7.189   1.730 -0.9934 -1.5309  0.7010
17130SOL     OW53066   3.934   1.896   3.633  0.0102 -0.4476  0.0798
17130SOL    HW153067   3.938   1.951   3.711 -1.2007 -0.3125  0.0527
17130SOL    HW253068   3.896   1.814   3.664 -1.1005 -0.1586 -0.4861
17131SOL     OW53069   2.744   3.040   6.372 -0.0285  0.1560  0.0141
17131SOL    HW153070   2.744   3.081   6.459 -0.1687  0.9006 -0.3355
17131SOL    HW253071   2.829   2.995   6.367  0.3487  0.8518  0.1805
17132SOL     OW53072   5.212   0.423   4.336  0.9165 -0.0171 -0.1644
17132SOL    HW153073   5.174   0.424   4.249  2.6834 -1.7090 -0.9936
17132SOL    HW253074   5.304   0.446   4.322  1.2764 -0.5648  1.2195
17133SOL     OW53075   2.412   4.572   1.015 -0.0706  0.5603 -0.2807
17133SOL    HW153076   2.466   4.555   1.092  0.4746 -2.3860 -1.2697
17133SOL    HW253077   2.330   4.526   1.032 -0.6586  1.4186 -0.6999
17134SOL     OW53078   7.802   0.461   3.171 -0.1832 -0.9688 -0.0510
17134SOL    HW153079   7.839   0.376   3.195 -1.4923 -2.0930 -1.8579
17134SOL    HW253080   7.781   0.502   3.255  0.6935 -2.3261  0.8552
17135SOL     OW53081   1.246   7.451   8.712 -0.6930  0.1034 -0.5440
17135SOL    HW153082   1.168   7.476   8.662 -0.1414  1.0993 -0.9036
17135SOL    HW253083   1.243   7.507   8.790 -1.5768 -1.4727  0.5854
17136SOL     OW53084   7.589   4.975   3.794  0.4822  0.2971 -0.4032
17136SOL    HW153085   7.606   4.994   3.702 -0.0352  1.0964 -0.3408
17136SOL    HW253086   7.546   5.054   3.827  0.8728  0.1047  0.5814
17137SOL     OW53087   9.004   1.604   2.864 -0.3022 -0.0854  0.3070
17137SOL    HW153088   9.077   1.618   2.804  1.2609 -0.2232  2.1336
17137SOL    HW253089   8.986   1.690   2.900 -0.5833 -0.1708  0.3676
17138SOL     OW53090   4.100   3.750   6.330 -0.4562 -0.0895 -0.1062
17138SOL    HW153091   4.118   3.798   6.249 -1.5220  0.5799  0.0566
17138SOL    HW253092   4.182   3.757   6.379 -0.3904  1.0261 -0.3513
17139SOL     OW53093   2.155   0.206   2.160  0.5180 -0.5082  0.1221
17139SOL    HW153094   2.184   0.293   2.135 -0.4125 -0.2082  0.0599
17139SOL    HW253095   2.083   0.222   2.221 -2.0350 -1.1868 -2.5737
17140SOL     OW53096   5.314   3.806   0.769 -0.1924 -0.3341 -0.0221
17140SOL    HW153097   5.235   3.776   0.816  0.8728  0.3973  2.3306
17140SOL    HW253098   5.371   3.838   0.838  1.0589  1.7119 -1.9674
17141SOL     OW53099   1.360   3.186   2.200 -0.7169 -0.1764  0.0266
17141SOL    HW153100   1.454   3.172   2.208 -0.6136  0.6675  0.3538
17141SOL    HW253101   1.322   3.136   2.273 -0.5665 -0.9009 -0.3846
17142SOL     OW53102   5.193   0.405   8.290 -0.0485  0.6519 -0.3420
17142SOL    HW153103   5.133   0.393   8.217 -0.0027  2.2639 -0.6560
17142SOL    HW253104   5.215   0.498   8.289  1.5732  0.3069  0.4589
17143SOL     OW53105   8.620   8.145   4.821 -0.2811  0.1075 -0.1788
17143SOL    HW153106   8.675   8.175   4.893 -1.3229  0.1209  0.6154
17143SOL    HW253107   8.682   8.109   4.757  0.5458 -1.2501  1.3548
17144SOL     OW53108   4.749   1.278   5.154 -0.2762  0.1501 -0.3870
17144SOL    HW153109   4.796   1.284   5.237  0.1913 -0.0764 -0.6370
17144SOL    HW253110   4.788   1.203   5.109  0.6075  1.2655 -1.5299
17145SOL     OW53111   4.012   1.020   3.862  0.0787 -0.5561 -0.1928
17145SOL    HW153112   4.108   1.014   3.857  0.3669  1.6128  2.1661
17145SOL    HW253113   3.987   0.948   3.920  0.3944 -0.2876  0.2784
17146SOL     OW53114   7.882   0.137   8.696  0.3225 -0.0992 -0.0789
17146SOL    HW153115   7.930   0.111   8.618  1.2331 -1.7030  0.9775
17146SOL    HW253116   7.797   0.092   8.688 -0.3042  1.2349 -1.0373
17147SOL     OW53117   1.430   0.322   8.972  0.2886  0.4802  0.3299
17147SOL    HW153118   1.356   0.354   8.921 -0.8394 -1.5480  0.6369
17147SOL    HW253119   1.507   0.344   8.920 -0.6456  1.0015 -0.8578
17148SOL     OW53120   6.586   1.746   5.373 -0.0638 -0.2526  0.1096
17148SOL    HW153121   6.671   1.725   5.412  0.0084  0.0493  0.1172
17148SOL    HW253122   6.585   1.842   5.369  0.2253 -0.2942 -1.2684
17149SOL     OW53123   7.921   6.929   0.502  0.7588 -0.4908  0.0154
17149SOL    HW153124   7.882   7.014   0.523  0.3533 -0.6560 -0.0680
17149SOL    HW253125   7.919   6.924   0.406  0.1588 -0.8850  0.0465
17150SOL     OW53126   1.352   6.382   7.143 -0.4073 -0.3306 -0.2665
17150SOL    HW153127   1.308   6.434   7.210  0.6142  0.3952 -0.1543
17150SOL    HW253128   1.354   6.439   7.066 -0.2299 -0.6038 -0.4627
17151SOL     OW53129   7.855   2.655   1.836  0.3631 -1.1952 -0.5043
17151SOL    HW153130   7.846   2.680   1.928 -1.3136 -1.0790 -0.6707
17151SOL    HW253131   7.888   2.565   1.839 -1.2488 -1.7970  0.2800
17152SOL     OW53132   9.062   7.009   7.932 -0.4202  0.1050 -0.5450
17152SOL    HW153133   9.151   7.033   7.906  0.5622 -0.6802  1.9168
17152SOL    HW253134   9.020   7.092   7.953 -0.0613  0.4385 -1.1474
17153SOL     OW53135   6.264   7.873   8.954  0.2717 -0.1279 -0.1544
17153SOL    HW153136   6.331   7.940   8.957 -0.1196  0.2300  3.1134
17153SOL    HW253137   6.310   7.793   8.929  2.0093  0.0772  2.2050
17154SOL     OW53138   0.978   6.957   5.018 -0.3699  0.3035  0.1608
17154SOL    HW153139   0.924   6.955   4.938  0.3784  2.0473 -0.4240
17154SOL    HW253140   0.920   6.994   5.085 -0.4937  0.3845  0.0109
17155SOL     OW53141   0.569   8.959   4.442  0.3519  0.2186  0.1626
17155SOL    HW153142   0.502   8.904   4.401  0.2758  1.4434 -1.4159
17155SOL    HW253143   0.537   8.973   4.531 -1.9852  1.5003 -0.8260
17156SOL     OW53144   6.505   1.526   6.666  0.8135 -0.4371  0.0931
17156SOL    HW153145   6.497   1.430   6.672  1.1337 -0.3499  2.3862
17156SOL    HW253146   6.433   1.559   6.719 -0.7795  0.6479 -2.6818
17157SOL     OW53147   1.662   4.145   5.724  0.1932 -0.3785  0.1638
17157SOL    HW153148   1.681   4.058   5.688 -0.3490 -0.1101 -0.7722
17157SOL    HW253149   1.643   4.128   5.817  0.1279 -1.2560 -0.0028
17158SOL     OW53150   8.999   7.782   4.009  0.3540 -0.0446  0.2661
17158SOL    HW153151   9.004   7.696   3.967  0.3166 -0.8641  1.8829
17158SOL    HW253152   9.079   7.787   4.061 -0.0022  0.5858  0.7580
17159SOL     OW53153   3.847   8.013   3.450 -0.5837  0.4418 -0.3829
17159SOL    HW153154   3.890   8.096   3.472  2.3439 -1.0026 -0.4085
17159SOL    HW253155   3.909   7.946   3.477 -2.7421 -1.7648 -0.7219
17160SOL     OW53156   7.447   1.282   7.473  0.2822  0.2967  0.7066
17160SOL    HW153157   7.426   1.331   7.552 -1.4892  1.1462 -0.2432
17160SOL    HW253158   7.444   1.190   7.499  0.7411  0.5991  1.8464
17161SOL     OW53159   4.327   2.023   6.454  0.1920 -0.3892  0.7198
17161SOL    HW153160   4.420   2.026   6.472  0.2885 -2.6072  0.7283
17161SOL    HW253161   4.318   2.064   6.368  1.2476 -0.8075  0.4089
17162SOL     OW53162   0.171   0.068   9.201 -0.0480  0.4865  0.0019
17162SOL    HW153163   0.150   0.025   9.118 -1.6866 -0.1534  0.7256
17162SOL    HW253164   0.249   0.022   9.232 -0.6768 -0.7116 -0.1581
17163SOL     OW53165   1.143   2.728   8.084  0.0437 -0.0766  0.4720
17163SOL    HW153166   1.072   2.709   8.146 -1.4314 -0.0063 -1.1489
17163SOL    HW253167   1.111   2.695   8.000  2.0523 -0.2572 -0.2493
17164SOL     OW53168   2.769   1.256   3.706 -0.7137 -0.3084  0.2469
17164SOL    HW153169   2.698   1.243   3.768 -1.9543 -1.1067 -1.3112
17164SOL    HW253170   2.726   1.259   3.620  1.2028 -1.5422 -0.7834
17165SOL     OW53171   8.162   2.262   6.491  0.2444  0.2524  0.0729
17165SOL    HW153172   8.173   2.261   6.586 -0.6185  0.2339  0.1784
17165SOL    HW253173   8.068   2.271   6.478  0.5075  1.9484 -0.7886
17166SOL     OW53174   8.901   8.386   3.258  0.2488 -0.6021  0.0603
17166SOL    HW153175   8.888   8.470   3.216  1.2613  0.2284  1.3869
17166SOL    HW253176   8.974   8.399   3.318 -0.6579 -1.9607  1.5182
17167SOL     OW53177   1.129   5.398   2.635  0.5517  1.2985 -0.1714
17167SOL    HW153178   1.046   5.445   2.622 -0.3930 -0.3424 -0.2540
17167SOL    HW253179   1.125   5.368   2.726  0.0711 -0.6034 -0.7990
17168SOL     OW53180   2.602   8.143   3.014 -0.3222 -0.0302 -0.3025
17168SOL    HW153181   2.668   8.074   3.024 -0.5338  0.1722  3.3511
17168SOL    HW253182   2.543   8.111   2.946 -0.1149 -3.2654  0.9609
17169SOL     OW53183   2.515   8.101   8.810  0.0170 -0.1658  0.0370
17169SOL    HW153184   2.453   8.032   8.783  1.7075 -2.5259  1.9386
17169SOL    HW253185   2.600   8.067   8.784  0.8816  1.2763  0.9456
17170SOL     OW53186   4.519   4.075   5.199  0.3732  0.7295 -0.3751
17170SOL    HW153187   4.552   3.987   5.181 -0.0447  0.4137  0.3843
17170SOL    HW253188   4.487   4.071   5.289 -0.3550  1.4482 -0.5971
17171SOL     OW53189   1.178   5.698   2.597  0.0568  0.2544 -0.6432
17171SOL    HW153190   1.174   5.712   2.692 -0.5236  1.8618 -0.8933
17171SOL    HW253191   1.193   5.604   2.588 -0.2677  0.0146  1.0374
17172SOL     OW53192   6.470   2.410   5.837  0.2992  0.2474  0.8645
17172SOL    HW153193   6.436   2.363   5.761 -0.2477  1.9417  0.0393
17172SOL    HW253194   6.517   2.485   5.799  0.4898  0.7968  2.1727
17173SOL     OW53195   4.392   4.148   2.480 -0.3371  0.5116 -0.0022
17173SOL    HW153196   4.376   4.242   2.467 -0.1034  0.4487 -0.7751
17173SOL    HW253197   4.306   4.110   2.496 -0.5579  0.7065 -0.6935
17174SOL     OW53198   0.711   1.350   5.617 -0.2629 -0.6775  0.8699
17174SOL    HW153199   0.729   1.276   5.558 -0.1964  0.7028 -0.9021
17174SOL    HW253200   0.706   1.311   5.704  0.1961 -2.7061  0.0198
17175SOL     OW53201   3.149   5.110   8.324  0.2100  0.2496 -0.6390
17175SOL    HW153202   3.101   5.028   8.319 -0.1937  0.4921 -0.7535
17175SOL    HW253203   3.194   5.117   8.239  0.4123  0.0462 -0.5489
17176SOL     OW53204   7.286   7.541   5.563 -0.5814 -0.0256  0.4923
17176SOL    HW153205   7.224   7.614   5.568 -1.4976 -0.8301  1.0365
17176SOL    HW253206   7.330   7.553   5.478 -0.8594  1.0416  0.4910
17177SOL     OW53207   6.822   1.498   5.583  0.3038  1.0086 -0.5427
17177SOL    HW153208   6.782   1.475   5.667 -0.7598 -0.8414 -1.5315
17177SOL    HW253209   6.880   1.571   5.604 -2.3576  2.6946  1.2278
17178SOL     OW53210   7.403   5.269   3.640 -0.2474  0.0868  0.0426
17178SOL    HW153211   7.491   5.301   3.657 -0.4802  1.9304 -2.0122
17178SOL    HW253212   7.364   5.259   3.727  1.8612 -0.5123  0.9702
17179SOL     OW53213   1.778   4.907   4.426 -0.3008  0.1252  0.1661
17179SOL    HW153214   1.771   4.928   4.333 -1.4223  1.3277  0.5123
17179SOL    HW253215   1.834   4.976   4.462 -0.2014 -0.1084  0.4590
17180SOL     OW53216   1.924   8.338   0.083  0.4194 -0.5279  0.3421
17180SOL    HW153217   1.879   8.294   0.011  1.3650 -0.5427 -0.2505
17180SOL    HW253218   1.886   8.426   0.084  0.6167 -0.4320 -0.3687
17181SOL     OW53219   7.034   2.248   8.421  0.2149 -0.5444 -0.5414
17181SOL    HW153220   7.080   2.245   8.337  0.7431 -0.9023 -0.2413
17181SOL    HW253221   6.945   2.222   8.400 -0.7847  3.5152 -1.7522
17182SOL     OW53222   2.909   0.758   3.844  0.3092  0.2681 -0.2981
17182SOL    HW153223   2.821   0.772   3.808  0.9545  2.2664 -1.1756
17182SOL    HW253224   2.921   0.830   3.906  1.0880 -0.3712  0.2925
17183SOL     OW53225   7.222   1.108   9.139  0.2288 -0.0027 -0.4632
17183SOL    HW153226   7.195   1.199   9.127  1.5814  0.7304  1.7311
17183SOL    HW253227   7.231   1.074   9.050 -1.6360  1.5852 -1.2890
17184SOL     OW53228   0.529   0.776   7.994 -0.4609  0.8153 -0.0491
17184SOL    HW153229   0.521   0.693   8.041 -1.0972  0.4713 -0.7442
17184SOL    HW253230   0.617   0.773   7.955 -1.5268 -0.8621 -2.4973
17185SOL     OW53231   4.158   2.516   1.945  0.3565 -0.0424  0.0531
17185SOL    HW153232   4.205   2.572   2.007  0.0060 -0.9638  1.1831
17185SOL    HW253233   4.068   2.548   1.947  0.6594  0.8731 -1.1013
17186SOL     OW53234   5.797   7.383   5.148 -0.0898 -0.1779 -0.3205
17186SOL    HW153235   5.784   7.289   5.154 -0.1593 -0.0984  0.9212
17186SOL    HW253236   5.850   7.396   5.069 -1.3032 -1.1239 -1.3073
17187SOL     OW53237   6.066   2.590   0.598 -0.0781  0.2517  1.2242
17187SOL    HW153238   6.078   2.496   0.615 -0.6830 -0.0021  0.2949
17187SOL    HW253239   6.022   2.593   0.513  0.2997  1.3982  1.0684
17188SOL     OW53240   5.142   6.084   6.543  0.2429  0.1158 -0.3977
17188SOL    HW153241   5.228   6.086   6.586  0.0751 -0.0756 -0.0467
17188SOL    HW253242   5.155   6.130   6.460  0.0439  2.4874  0.8459
17189SOL     OW53243   1.031   6.221   2.029 -0.1914  0.1671  0.1414
17189SOL    HW153244   1.052   6.228   2.122 -2.0429 -0.3557  0.6291
17189SOL    HW253245   1.108   6.256   1.984  1.1232 -0.4528  1.8335
17190SOL     OW53246   0.401   3.654   4.657 -0.6236  0.3270  0.3801
17190SOL    HW153247   0.398   3.602   4.577  1.9835  1.3033 -0.3817
17190SOL    HW253248   0.379   3.591   4.727 -0.4126 -1.0995 -0.8153
17191SOL     OW53249   7.910   6.702   6.017  0.6184 -0.2261 -0.0709
17191SOL    HW153250   7.864   6.619   6.020  0.0845  0.0668 -0.1993
17191SOL    HW253251   7.843   6.767   5.995  1.1005  0.1847 -0.3465
17192SOL     OW53252   3.923   6.981   4.287 -0.2659  0.4189 -0.1123
17192SOL    HW153253   3.887   6.892   4.293 -0.3347  0.4352 -0.2836
17192SOL    HW253254   3.985   6.976   4.214  0.6408  0.1912  0.6526
17193SOL     OW53255   2.896   7.040   6.341 -0.4114  0.2104 -0.1290
17193SOL    HW153256   2.977   7.027   6.392 -0.3480 -2.0369 -0.7740
17193SOL    HW253257   2.906   7.128   6.304  1.0900  0.5287  0.9488
17194SOL     OW53258   6.700   5.121   8.830  0.1862  0.0812  0.0347
17194SOL    HW153259   6.665   5.110   8.742 -1.8691  1.5735  0.6325
17194SOL    HW253260   6.720   5.032   8.859 -1.0045 -0.6011 -1.1953
17195SOL     OW53261   1.718   4.150   2.103  0.5276  0.1092  0.0238
17195SOL    HW153262   1.638   4.201   2.117  1.5359  1.3224  1.3122
17195SOL    HW253263   1.724   4.094   2.180 -0.1428 -1.4432 -1.0133
17196SOL     OW53264   6.132   5.707   3.786 -0.2031 -0.1271 -0.2901
17196SOL    HW153265   6.071   5.764   3.834 -1.9313 -2.5093  0.4433
17196SOL    HW253266   6.190   5.672   3.854 -0.2728 -0.5975 -0.4712
17197SOL     OW53267   2.422   1.025   3.313  0.0174  0.5026 -0.2152
17197SOL    HW153268   2.417   1.063   3.225  2.2853  2.0037  0.2709
17197SOL    HW253269   2.381   1.091   3.370 -1.3361 -0.4133 -0.0872
17198SOL     OW53270   0.824   7.382   6.983  0.2444  0.1490  0.1170
17198SOL    HW153271   0.789   7.292   6.984  0.1718  0.1504 -1.3884
17198SOL    HW253272   0.776   7.427   7.053 -2.5507  0.0510 -1.6448
17199SOL     OW53273   0.812   1.069   5.604  0.0589 -0.7401 -0.6695
17199SOL    HW153274   0.772   0.992   5.644  1.1146 -1.5275 -1.0950
17199SOL    HW253275   0.906   1.054   5.613  0.2773  0.8377 -0.1389
17200SOL     OW53276   0.820   2.606   1.834 -0.5663 -0.8807 -0.4378
17200SOL    HW153277   0.855   2.648   1.913 -2.3762 -0.2790  0.0631
17200SOL    HW253278   0.730   2.585   1.856 -0.3778 -2.8922 -1.5308
17201SOL     OW53279   1.482   9.041   4.875  0.0750  0.2195  0.5690
17201SOL    HW153280   1.557   9.097   4.900  1.0991 -0.0898 -1.6999
17201SOL    HW253281   1.429   9.097   4.818 -0.2122 -0.3206  0.3106
17202SOL     OW53282   7.109   7.521   4.660 -0.5047  0.5963 -0.0318
17202SOL    HW153283   7.094   7.507   4.566 -0.5401  1.4137 -0.1473
17202SOL    HW253284   7.029   7.562   4.692 -0.2494  0.8926  0.2312
17203SOL     OW53285   2.059   7.509   4.651  0.3797  0.1876 -0.6762
17203SOL    HW153286   2.020   7.539   4.569  2.0973 -0.0989 -1.6071
17203SOL    HW253287   2.125   7.576   4.672  1.5528 -0.9301 -0.7612
17204SOL     OW53288   7.916   6.224   0.153 -0.3792 -0.2048  0.4388
17204SOL    HW153289   7.843   6.163   0.144 -0.2738 -0.1491 -0.9054
17204SOL    HW253290   7.951   6.233   0.065  1.6840 -0.7414  1.1764
17205SOL     OW53291   8.818   7.810   1.349  0.0679  0.2289  0.1255
17205SOL    HW153292   8.723   7.814   1.338  0.0443 -0.7104 -0.0474
17205SOL    HW253293   8.848   7.753   1.278  0.3876 -2.3394  2.2410
17206SOL     OW53294   4.660   2.182   7.829 -0.4542 -0.8689 -0.2477
17206SOL    HW153295   4.592   2.219   7.885 -0.8936 -1.0459 -0.6590
17206SOL    HW253296   4.723   2.142   7.890  0.1399  0.7168  0.2152
17207SOL     OW53297   0.236   1.114   1.554 -0.0496  0.5483  0.2542
17207SOL    HW153298   0.279   1.028   1.554  0.1149  0.6289  0.5304
17207SOL    HW253299   0.258   1.151   1.468 -0.3897  0.1831  0.0077
17208SOL     OW53300   0.119   6.942   0.967  0.0450  0.6994 -0.0234
17208SOL    HW153301   0.184   6.984   1.025  0.6071 -0.6570  0.3420
17208SOL    HW253302   0.076   6.877   1.023  1.1691 -1.2143 -1.3368
17209SOL     OW53303   5.959   4.052   1.656  0.2230  0.5653  0.2841
17209SOL    HW153304   6.038   4.041   1.604 -1.2691  1.0862 -2.2020
17209SOL    HW253305   5.933   4.144   1.642  0.6830  1.2101  3.3141
17210SOL     OW53306   6.516   3.731   2.582 -0.2929  0.4151 -0.2602
17210SOL    HW153307   6.429   3.747   2.543 -0.0383  4.2016  0.5878
17210SOL    HW253308   6.497   3.684   2.663 -1.4362  0.0178 -0.7373
17211SOL     OW53309   2.837   7.616   3.587  0.5120  0.0362 -0.6239
17211SOL    HW153310   2.859   7.690   3.644 -2.9543 -0.2677  1.2924
17211SOL    HW253311   2.835   7.652   3.499  0.7993  1.7701  0.0701
17212SOL     OW53312   5.882   4.729   4.985 -0.0109 -0.0407 -0.6625
17212SOL    HW153313   5.791   4.755   4.973 -0.3468 -1.1259 -0.5917
17212SOL    HW253314   5.896   4.734   5.080  0.5203  1.7389 -0.8135
17213SOL     OW53315   1.358   5.077   3.122 -0.2078 -0.2935  0.4362
17213SOL    HW153316   1.277   5.084   3.173 -1.3670  0.8954 -1.5426
17213SOL    HW253317   1.332   5.034   3.041  1.4220 -1.1497  0.3460
17214SOL     OW53318   4.122   4.842   6.577 -0.1173 -0.2949  0.0302
17214SOL    HW153319   4.117   4.759   6.624 -0.5201 -1.0876 -1.3556
17214SOL    HW253320   4.146   4.817   6.487  1.0345  1.1992 -0.1012
17215SOL     OW53321   4.039   2.142   0.115 -0.2073  0.1331 -0.0312
17215SOL    HW153322   3.968   2.205   0.099 -0.1138  0.4871  0.9357
17215SOL    HW253323   4.038   2.128   0.210  0.9263  0.0294 -0.0341
17216SOL     OW53324   2.836   3.209   2.944 -0.1605 -0.2769 -0.1315
17216SOL    HW153325   2.779   3.277   2.909  0.3076  0.2269  0.0781
17216SOL    HW253326   2.902   3.195   2.876 -0.0633 -0.2872 -0.0351
17217SOL     OW53327   7.047   3.101   8.930 -0.2011 -0.1320  1.1363
17217SOL    HW153328   6.991   3.167   8.890  0.0680  0.4256  1.6818
17217SOL    HW253329   7.005   3.018   8.908 -0.6401  0.2282  0.6105
17218SOL     OW53330   1.466   8.999   7.480 -0.5749  0.0707  0.2544
17218SOL    HW153331   1.377   9.000   7.515 -1.0773  1.5380 -1.0251
17218SOL    HW253332   1.456   9.029   7.389  1.1326 -0.4159 -0.0995
17219SOL     OW53333   3.744   4.521   5.230 -0.1462 -0.5202  0.2655
17219SOL    HW153334   3.752   4.615   5.211 -1.0726 -0.1498  1.6606
17219SOL    HW253335   3.829   4.484   5.205  0.0047  0.5715 -0.9081
17220SOL     OW53336   2.903   4.392   6.039  0.0355 -0.2257 -0.9616
17220SOL    HW153337   2.966   4.320   6.035  1.2197  0.8562 -2.4344
17220SOL    HW253338   2.956   4.469   6.058 -1.2926  0.2162  1.2383
17221SOL     OW53339   8.306   8.176   2.220 -0.2951 -0.3776 -0.1723
17221SOL    HW153340   8.220   8.217   2.227 -0.5220 -0.2402 -2.9271
17221SOL    HW253341   8.364   8.233   2.269 -1.3385  0.9530 -0.4372
17222SOL     OW53342   6.243   5.068   3.411  1.0417 -0.4034 -0.6582
17222SOL    HW153343   6.189   5.075   3.332  0.8055  1.4363 -0.3532
17222SOL    HW253344   6.330   5.044   3.378  0.5676 -1.1846 -1.3437
17223SOL     OW53345   3.936   5.579   1.871  0.1461  0.9770  0.3455
17223SOL    HW153346   4.001   5.567   1.801  0.2239 -0.4848  0.6378
17223SOL    HW253347   3.988   5.599   1.948  0.1452  1.4050  0.2330
17224SOL     OW53348   5.012   3.136   8.097 -0.2484  0.6611 -0.5939
17224SOL    HW153349   5.053   3.220   8.118  0.8529  0.1975 -0.8314
17224SOL    HW253350   5.083   3.072   8.107 -1.8550 -0.7010  2.7975
17225SOL     OW53351   6.646   8.521   3.009 -0.2421 -0.0110  0.0145
17225SOL    HW153352   6.637   8.457   3.078  0.7414  0.2832  0.4362
17225SOL    HW253353   6.564   8.570   3.009 -0.7939 -0.9411  0.0179
17226SOL     OW53354   4.829   5.537   2.843  0.2408 -0.1029  0.4847
17226SOL    HW153355   4.794   5.538   2.754 -1.2843 -1.6064  1.0355
17226SOL    HW253356   4.921   5.514   2.832 -0.1803 -1.3321 -0.6558
17227SOL     OW53357   6.978   3.424   2.272 -0.0905 -0.0893  0.1104
17227SOL    HW153358   6.883   3.421   2.283 -0.6425  0.8077 -3.6850
17227SOL    HW253359   7.006   3.499   2.325 -1.6932  0.4310  0.2404
17228SOL     OW53360   4.880   7.954   3.528  0.6465  0.0552 -0.4191
17228SOL    HW153361   4.829   8.003   3.593  2.0822  1.4102 -0.2887
17228SOL    HW253362   4.885   8.013   3.453 -1.0074 -1.5056 -1.8102
17229SOL     OW53363   4.879   0.083   2.373 -0.1053 -0.1260  0.2579
17229SOL    HW153364   4.830   0.159   2.341  1.1162  1.4505  2.0320
17229SOL    HW253365   4.854   0.076   2.465  0.9478 -0.9335  0.4864
17230SOL     OW53366   8.556   0.706   0.046  0.5317 -0.0757  0.3123
17230SOL    HW153367   8.600   0.621   0.042 -0.4559 -0.5074 -1.8427
17230SOL    HW253368   8.498   0.698   0.122  0.9853 -1.0509  0.5716
17231SOL     OW53369   1.082   9.060   3.174 -0.1554 -0.1982  0.2036
17231SOL    HW153370   1.026   8.984   3.188  0.1991 -0.3749  0.6674
17231SOL    HW253371   1.125   9.044   3.090  0.7505 -1.0346  0.8131
17232SOL     OW53372   6.158   4.928   1.053  0.0947 -0.7168  0.1742
17232SOL    HW153373   6.077   4.963   1.016 -0.0582 -0.9482  0.2882
17232SOL    HW253374   6.133   4.842   1.088 -0.3893  0.5973  3.2242
17233SOL     OW53375   8.887   3.635   7.646  0.0278 -0.0367  0.2555
17233SOL    HW153376   8.858   3.716   7.689  0.4993  0.8461 -1.0564
17233SOL    HW253377   8.967   3.659   7.600 -0.2570 -1.0478 -0.8025
17234SOL     OW53378   6.246   1.766   2.717  0.2173 -0.1177 -0.5944
17234SOL    HW153379   6.212   1.854   2.701  1.7310  0.3564 -1.1844
17234SOL    HW253380   6.215   1.744   2.805  0.1323  1.1444 -0.3133
17235SOL     OW53381   4.282   6.302   7.454 -0.6888 -0.0735  0.0733
17235SOL    HW153382   4.355   6.281   7.395 -1.0426 -0.2957 -0.2903
17235SOL    HW253383   4.323   6.342   7.530 -0.1589 -0.4770 -0.0024
17236SOL     OW53384   7.747   4.091   8.132 -0.2652 -0.0873 -0.1213
17236SOL    HW153385   7.809   4.147   8.178 -0.9370  1.8748 -1.4941
17236SOL    HW253386   7.684   4.065   8.198  1.5781 -1.4861  1.1229
17237SOL     OW53387   9.262   5.086   5.947  0.2947 -0.0222  0.1453
17237SOL    HW153388   9.335   5.094   6.009 -0.2286 -0.4856  0.8363
17237SOL    HW253389   9.236   5.176   5.928 -2.2773  0.1492  3.9050
17238SOL     OW53390   2.686   7.742   8.894  0.4053 -0.0400 -0.5071
17238SOL    HW153391   2.695   7.825   8.940  0.1442 -0.4354  0.2678
17238SOL    HW253392   2.760   7.740   8.834  0.2805  0.8552 -0.6887
17239SOL     OW53393   0.088   2.928   6.934  0.0285  0.4529 -0.0349
17239SOL    HW153394   0.011   2.982   6.951 -1.7346 -2.6365  2.1977
17239SOL    HW253395   0.061   2.872   6.860  0.5738  0.1908 -0.0339
17240SOL     OW53396   3.357   1.885   3.151 -0.3526 -0.3882  0.1213
17240SOL    HW153397   3.264   1.868   3.138 -0.5384  2.2839 -2.4451
17240SOL    HW253398   3.389   1.916   3.067  1.9626  2.6671  1.9897
17241SOL     OW53399   2.302   7.809   8.236  0.7415  0.6449  0.5978
17241SOL    HW153400   2.275   7.811   8.328 -2.3157  1.5246 -0.2759
17241SOL    HW253401   2.263   7.728   8.202  0.1277  1.3637 -0.4243
17242SOL     OW53402   3.314   4.291   1.059  0.4851 -0.3512  0.1611
17242SOL    HW153403   3.329   4.198   1.075  1.4379  0.1529  2.4080
17242SOL    HW253404   3.402   4.328   1.052  0.1137  0.4906 -0.1185
17243SOL     OW53405   6.558   0.222   4.841 -0.9054  0.1714  0.6421
17243SOL    HW153406   6.580   0.220   4.934 -0.5278 -0.3012  0.5463
17243SOL    HW253407   6.634   0.185   4.798 -0.5775  1.5159  0.0411
17244SOL     OW53408   8.394   0.867   5.490 -0.2661  0.0088 -0.0523
17244SOL    HW153409   8.348   0.926   5.429 -0.1131 -1.1519 -1.3255
17244SOL    HW253410   8.325   0.809   5.524 -0.1504 -0.1465 -0.0829
17245SOL     OW53411   1.300   8.085   6.858 -0.0572 -0.6308 -0.6499
17245SOL    HW153412   1.310   8.105   6.952 -0.6846 -1.3038 -0.4371
17245SOL    HW253413   1.333   8.163   6.814  1.0582 -0.6402  0.1179
17246SOL     OW53414   0.318   1.796   6.620 -0.2498  0.0283  0.2224
17246SOL    HW153415   0.394   1.767   6.568 -0.5899 -0.1628 -0.1727
17246SOL    HW253416   0.287   1.717   6.663  0.0684  0.1998  0.7652
17247SOL     OW53417   9.024   5.018   8.456 -0.1079 -0.1444 -0.3958
17247SOL    HW153418   9.119   5.020   8.440 -0.0428 -1.8749 -0.2880
17247SOL    HW253419   9.016   5.005   8.550 -0.4566 -0.5258 -0.4809
17248SOL     OW53420   5.186   3.162   4.341 -0.2463 -0.2095  0.3052
17248SOL    HW153421   5.220   3.120   4.261 -0.7697 -0.8743  0.4268
17248SOL    HW253422   5.134   3.235   4.309  1.9848  1.3385  0.1480
17249SOL     OW53423   5.524   8.621   7.686 -0.2387  0.2067  0.3947
17249SOL    HW153424   5.481   8.672   7.617  1.9277  0.3141 -0.9307
17249SOL    HW253425   5.489   8.657   7.768  0.1287  2.8512 -0.5397
17250SOL     OW53426   0.169   7.701   9.059 -0.7821  0.3316  0.0730
17250SOL    HW153427   0.138   7.763   9.125 -0.9095  1.1456 -0.7443
17250SOL    HW253428   0.091   7.649   9.037 -0.3939 -0.9701  1.6620
17251SOL     OW53429   5.382   8.093   4.265  0.6446  0.8275 -0.1244
17251SOL    HW153430   5.463   8.142   4.280  0.7535  0.7057 -0.3036
17251SOL    HW253431   5.383   8.023   4.330  1.6735 -0.3907 -1.4274
17252SOL     OW53432   2.289   7.312   7.909  0.3775  0.0038  0.2690
17252SOL    HW153433   2.234   7.279   7.980 -1.8447  1.4103 -0.7274
17252SOL    HW253434   2.254   7.270   7.830 -1.7521  3.6360 -0.8692
17253SOL     OW53435   7.221   5.110   1.652  0.1058  0.4899  0.2255
17253SOL    HW153436   7.279   5.152   1.588  0.2197  1.6185  1.0554
17253SOL    HW253437   7.271   5.034   1.683  0.4847  0.5527 -0.2256
17254SOL     OW53438   9.077   8.378   7.553  0.3503 -0.1150  0.4140
17254SOL    HW153439   9.079   8.344   7.642  0.7077  0.4283  0.6130
17254SOL    HW253440   9.055   8.302   7.499  2.8029 -1.0296  0.6647
17255SOL     OW53441   1.534   2.153   6.374 -0.0743  0.7166 -0.1424
17255SOL    HW153442   1.555   2.116   6.288  1.5611 -0.0034  0.5323
17255SOL    HW253443   1.586   2.234   6.378  2.5907 -1.0209  1.5094
17256SOL     OW53444   2.874   2.877   3.014  0.1793 -0.0330 -0.3694
17256SOL    HW153445   2.780   2.867   3.029  0.4730  0.9215  2.3568
17256SOL    HW253446   2.880   2.929   2.933 -1.6914  1.2027  0.2588
17257SOL     OW53447   1.850   4.303   1.080  0.1759 -0.2023  0.1442
17257SOL    HW153448   1.914   4.280   1.148  0.4946  1.3021  0.3620
17257SOL    HW253449   1.857   4.232   1.016  1.5022 -0.4548  0.5507
17258SOL     OW53450   1.464   0.079   6.167  0.1767 -0.2215 -0.1376
17258SOL    HW153451   1.406   0.129   6.109  0.1733  1.1300  1.0246
17258SOL    HW253452   1.550   0.117   6.154  0.6306 -1.4858 -1.0058
17259SOL     OW53453   0.990   5.867   1.374  0.3255  0.3088  0.0744
17259SOL    HW153454   0.943   5.886   1.293 -0.8481 -1.9302  0.1989
17259SOL    HW253455   1.028   5.780   1.360  2.0224  0.8516  1.0887
17260SOL     OW53456   1.786   8.278   2.495  0.2535 -0.2764  0.6844
17260SOL    HW153457   1.726   8.277   2.420  0.2148 -0.3179  0.7163
17260SOL    HW253458   1.870   8.250   2.458  0.2177 -0.3656  0.6706
17261SOL     OW53459   5.395   8.744   3.519  0.2135  0.2179 -0.2239
17261SOL    HW153460   5.371   8.669   3.574  0.8403 -1.0979 -1.7044
17261SOL    HW253461   5.446   8.800   3.577  1.3463 -1.4206  0.4208
17262SOL     OW53462   9.171   8.502   8.831 -0.0697 -0.2429 -0.1027
17262SOL    HW153463   9.152   8.477   8.741 -1.4062 -2.0992  0.6729
17262SOL    HW253464   9.246   8.449   8.855 -0.5484 -0.7246  0.3189
17263SOL     OW53465   1.028   8.773   4.518 -0.8940 -0.0983 -0.2772
17263SOL    HW153466   0.958   8.838   4.508 -0.8848 -0.1257 -0.5227
17263SOL    HW253467   1.107   8.824   4.531 -0.7782 -0.0443 -1.1527
17264SOL     OW53468   5.759   2.726   0.047  0.5559  0.3862 -0.0463
17264SOL    HW153469   5.745   2.759   0.136 -3.5682 -0.1907 -0.4071
17264SOL    HW253470   5.735   2.799  -0.010 -2.1869 -0.9862 -0.7335
17265SOL     OW53471   8.105   1.154   3.708  0.2472 -0.5842  1.0158
17265SOL    HW153472   8.169   1.179   3.641 -0.5072 -1.4141 -0.0131
17265SOL    HW253473   8.136   1.199   3.788  1.1268  0.4290  0.1230
17266SOL     OW53474   5.312   9.172   4.399  0.1086  0.1961  0.3632
17266SOL    HW153475   5.360   9.095   4.367  1.9116  0.8840  1.3290
17266SOL    HW253476   5.379   9.238   4.412 -1.3771  1.8059 -0.0106
17267SOL     OW53477   8.746   2.762   3.438  0.0553  0.1366  0.1785
17267SOL    HW153478   8.685   2.780   3.366 -1.1451  3.1943  1.8510
17267SOL    HW253479   8.728   2.671   3.461 -0.6140 -0.4284 -2.3647
17268SOL     OW53480   4.290   1.226   6.449  0.2476  0.2984  0.1027
17268SOL    HW153481   4.286   1.198   6.540 -0.4277 -0.9572 -0.2920
17268SOL    HW253482   4.228   1.168   6.403  0.6063  0.8781 -1.1529
17269SOL     OW53483   2.385   5.515   1.711  0.2528  0.1308 -0.7434
17269SOL    HW153484   2.363   5.547   1.623  0.7600  0.7584 -0.6437
17269SOL    HW253485   2.473   5.478   1.701  0.4324  0.4711 -0.4339
17270SOL     OW53486   0.752   8.404   7.047 -0.3166  0.2592 -0.8907
17270SOL    HW153487   0.793   8.491   7.039  1.4701 -0.4679  0.0266
17270SOL    HW253488   0.820   8.344   7.017 -0.6655 -1.0125  0.8407
17271SOL     OW53489   3.721   6.103   2.028  0.0934 -0.5131 -0.2488
17271SOL    HW153490   3.805   6.112   1.983 -0.2640  0.1585 -0.7911
17271SOL    HW253491   3.665   6.056   1.966 -0.6339  1.0824 -0.8371
17272SOL     OW53492   7.509   2.150   1.518  0.5212  0.0921  0.0178
17272SOL    HW153493   7.538   2.191   1.599 -0.1222  1.3669 -0.3651
17272SOL    HW253494   7.414   2.166   1.516  0.3575 -0.9112 -0.4352
17273SOL     OW53495   0.271   0.856   4.005 -0.1868 -0.0489 -0.9956
17273SOL    HW153496   0.253   0.931   4.062 -0.9676 -0.0389 -1.2558
17273SOL    HW253497   0.367   0.854   3.998 -0.1164  0.2826 -0.1335
17274SOL     OW53498   6.060   5.100   4.604  0.6507 -0.1342  0.3741
17274SOL    HW153499   5.994   5.160   4.570  0.2668 -0.9051 -0.2622
17274SOL    HW253500   6.140   5.123   4.557  0.0895 -1.2853 -1.1766
17275SOL     OW53501   5.921   6.147   7.328  0.5892 -0.1883  0.0041
17275SOL    HW153502   5.843   6.142   7.272  0.1263 -3.1733  0.8617
17275SOL    HW253503   5.893   6.199   7.403 -1.4233 -3.3213  1.5267
17276SOL     OW53504   7.527   0.968   6.852  0.3270  0.5598 -0.1754
17276SOL    HW153505   7.520   0.879   6.817  1.5176 -0.1406  1.3232
17276SOL    HW253506   7.462   1.018   6.803 -2.1671 -1.6898  0.7257
17277SOL     OW53507   0.863   3.368   1.683 -0.2509 -0.4212  0.0256
17277SOL    HW153508   0.925   3.398   1.615 -0.9860 -0.2197 -0.5641
17277SOL    HW253509   0.814   3.298   1.641 -1.1541  0.1366  0.1224
17278SOL     OW53510   2.521   2.448   3.015 -0.4651  0.4366 -0.4295
17278SOL    HW153511   2.498   2.506   2.942  0.0798  0.3729 -0.6534
17278SOL    HW253512   2.454   2.379   3.013 -0.4977  0.4792 -0.8197
17279SOL     OW53513   5.421   9.280   2.659  0.5310  0.1650 -0.1419
17279SOL    HW153514   5.397   9.273   2.566 -2.9922  1.3196  0.6178
17279SOL    HW253515   5.360   9.222   2.704  0.5665  1.5163  1.7045
17280SOL     OW53516   6.581   1.908   0.954  0.2345  0.2984  0.3069
17280SOL    HW153517   6.650   1.973   0.963  1.3838 -1.0132  1.1630
17280SOL    HW253518   6.614   1.847   0.888 -0.5971  0.2647 -0.0911
17281SOL     OW53519   2.438   0.577   0.429 -0.1727  0.2170 -0.3289
17281SOL    HW153520   2.491   0.628   0.490 -0.0708  0.5384 -0.6852
17281SOL    HW253521   2.352   0.620   0.431 -0.6921 -0.8601  0.9460
17282SOL     OW53522   4.035   7.823   0.217  0.6588  0.0866  0.2942
17282SOL    HW153523   4.080   7.739   0.214  0.5818  0.0340  0.6014
17282SOL    HW253524   4.059   7.860   0.301  1.2919  0.7075 -0.1531
17283SOL     OW53525   8.120   4.479   6.781  0.4928  0.5732 -0.3858
17283SOL    HW153526   8.034   4.510   6.811  0.5854  0.4218  0.0312
17283SOL    HW253527   8.179   4.552   6.798  0.8130 -0.0276  1.0903
17284SOL     OW53528   7.707   8.425   4.030 -0.0957  0.2935 -0.1373
17284SOL    HW153529   7.640   8.492   4.044 -0.6108 -0.0485 -0.9500
17284SOL    HW253530   7.659   8.350   3.996  0.6791 -0.0158 -0.5564
17285SOL     OW53531   6.676   7.711   1.247  0.3974 -0.2658 -0.3720
17285SOL    HW153532   6.669   7.643   1.180  1.9223 -0.6930 -0.1222
17285SOL    HW253533   6.594   7.706   1.295  0.8425 -2.5312  0.1999
17286SOL     OW53534   1.257   6.654   1.792  0.0574  0.2069  0.1925
17286SOL    HW153535   1.163   6.652   1.810  0.3056  0.7586  1.6372
17286SOL    HW253536   1.275   6.747   1.774  0.1217 -0.0807 -1.3456
17287SOL     OW53537   8.460   1.900   4.374  0.2800 -0.2729  0.5504
17287SOL    HW153538   8.509   1.838   4.320 -0.1070 -0.4108  0.3487
17287SOL    HW253539   8.371   1.863   4.377  0.1492  0.0589  0.7681
17288SOL     OW53540   5.066   2.226   5.097  0.1152 -0.2522 -0.4079
17288SOL    HW153541   5.035   2.305   5.142 -0.4144 -1.4024  1.3079
17288SOL    HW253542   4.995   2.163   5.108  1.2479 -1.5122 -0.2444
17289SOL     OW53543   8.082   2.740   7.564  0.3402 -0.4205  0.1285
17289SOL    HW153544   8.123   2.810   7.513  4.9921 -2.8570  0.2597
17289SOL    HW253545   8.021   2.698   7.504 -2.7881  3.7685  0.1210
17290SOL     OW53546   2.135   8.802   5.329  0.5415 -0.2122  0.2717
17290SOL    HW153547   2.081   8.876   5.301 -1.1224 -1.5111 -0.1015
17290SOL    HW253548   2.178   8.831   5.408  0.3117  1.3395 -0.1675
17291SOL     OW53549   8.891   7.588   1.176 -0.2887  0.0490  0.1235
17291SOL    HW153550   8.978   7.547   1.180  0.9900  2.6621 -0.2511
17291SOL    HW253551   8.831   7.514   1.169  1.7512 -1.8954  2.2633
17292SOL     OW53552   3.858   0.152   6.073 -0.1753 -0.0621  0.0498
17292SOL    HW153553   3.929   0.209   6.044 -0.4293  0.4207  0.3605
17292SOL    HW253554   3.848   0.172   6.166 -0.2261 -0.6640  0.1790
17293SOL     OW53555   0.679   8.187   8.119  0.5139  0.4058  0.6031
17293SOL    HW153556   0.637   8.194   8.205  1.3201  0.0181  1.0337
17293SOL    HW253557   0.754   8.129   8.133  0.9988  0.8177 -0.2380
17294SOL     OW53558   1.222   4.179   1.211  0.2426  0.2180  0.1983
17294SOL    HW153559   1.270   4.161   1.292  0.4765 -0.6194 -0.1150
17294SOL    HW253560   1.290   4.184   1.143 -0.2575 -5.0352 -0.9745
17295SOL     OW53561   4.587   5.301   8.515 -0.1390 -0.1144  0.2752
17295SOL    HW153562   4.499   5.286   8.550  0.2557 -0.0669  1.3259
17295SOL    HW253563   4.620   5.213   8.496 -0.6149 -0.0978 -0.6465
17296SOL     OW53564   9.289   4.725   2.315 -0.0416  0.1603  0.7572
17296SOL    HW153565   9.238   4.648   2.287  1.9648 -0.6178 -0.9197
17296SOL    HW253566   9.288   4.783   2.239  1.5037  0.1583  0.7232
17297SOL     OW53567   4.791   8.382   8.946 -0.1246 -0.1902 -0.4482
17297SOL    HW153568   4.720   8.446   8.956 -0.0198 -0.2149  0.4827
17297SOL    HW253569   4.749   8.298   8.963  0.2155 -0.1689  0.4986
17298SOL     OW53570   1.183   8.759   5.525 -0.1641 -0.0953 -0.3363
17298SOL    HW153571   1.182   8.700   5.449  1.1393  1.1221 -1.3300
17298SOL    HW253572   1.096   8.798   5.526  0.2347  0.9129 -2.0601
17299SOL     OW53573   8.488   3.347   0.577 -0.5254  0.7610  0.5218
17299SOL    HW153574   8.558   3.332   0.640 -0.8210  1.9552  1.1478
17299SOL    HW253575   8.527   3.327   0.492 -0.3523 -1.6261  1.1272
17300SOL     OW53576   3.431   7.464   7.879  0.1325 -0.2574 -0.0020
17300SOL    HW153577   3.431   7.429   7.790  1.3393 -0.8190  0.2093
17300SOL    HW253578   3.424   7.559   7.867  1.0376 -0.2758 -0.7298
17301SOL     OW53579   7.008   6.349   4.668 -0.7475  0.0395  0.2703
17301SOL    HW153580   6.961   6.343   4.751  0.2655 -0.4045  0.8093
17301SOL    HW253581   7.099   6.332   4.690 -0.0777  2.4006 -0.5362
17302SOL     OW53582   2.296   8.956   7.613  0.3677 -0.2673 -0.2395
17302SOL    HW153583   2.237   8.913   7.551 -1.6902 -1.2579  2.2976
17302SOL    HW253584   2.364   8.891   7.631 -0.5303 -1.0151  0.5471
17303SOL     OW53585   3.568   4.984   5.377  0.1132  0.1783  0.1540
17303SOL    HW153586   3.602   5.049   5.438  1.7198 -0.3568 -0.1584
17303SOL    HW253587   3.476   5.009   5.364 -0.2028  0.3726  2.6728
17304SOL     OW53588   3.652   2.688   8.795  0.6608 -0.3600 -0.7458
17304SOL    HW153589   3.625   2.674   8.704  0.4622 -0.3985 -0.6819
17304SOL    HW253590   3.746   2.701   8.790  0.2864  2.3432 -1.2683
17305SOL     OW53591   1.415   9.089   8.259 -0.0112  0.4616 -0.1612
17305SOL    HW153592   1.411   9.070   8.353  0.3852  0.4977 -0.1386
17305SOL    HW253593   1.504   9.121   8.244  0.3094 -0.6525 -0.7506
17306SOL     OW53594   3.566   8.166   0.830 -0.2284  0.5159  0.4077
17306SOL    HW153595   3.631   8.095   0.830 -2.3921 -1.5152  0.0578
17306SOL    HW253596   3.499   8.138   0.892 -1.5169  1.8789 -0.3239
17307SOL     OW53597   9.051   3.373   2.050  0.0918  0.1841  0.1310
17307SOL    HW153598   9.077   3.331   2.132  1.4900  0.6700 -0.0489
17307SOL    HW253599   9.067   3.306   1.983 -0.6582 -0.0707  0.2053
17308SOL     OW53600   3.204   6.698   6.006 -0.0387 -0.2772 -0.0095
17308SOL    HW153601   3.237   6.631   6.064  1.8680  0.1368 -0.5722
17308SOL    HW253602   3.164   6.650   5.933 -1.0541 -0.7871  0.8798
17309SOL     OW53603   0.497   3.993   6.741  0.0173 -0.0168 -0.3427
17309SOL    HW153604   0.452   4.077   6.741  1.2826  0.7051 -2.2932
17309SOL    HW253605   0.460   3.946   6.666  1.1856 -0.1340 -0.8579
17310SOL     OW53606   0.070   8.376   1.342  0.2244  0.1515 -0.5158
17310SOL    HW153607   0.052   8.470   1.348 -1.6516 -0.1989 -0.1961
17310SOL    HW253608  -0.001   8.343   1.287 -0.4622 -1.4210  1.2749
17311SOL     OW53609   8.632   2.422   3.192  0.0743  0.1764 -0.2360
17311SOL    HW153610   8.570   2.484   3.153 -0.1825 -1.3493 -2.3404
17311SOL    HW253611   8.577   2.351   3.226  0.5202 -0.1501 -0.1936
17312SOL     OW53612   3.922   7.237   8.105 -0.1855  0.2958  0.4697
17312SOL    HW153613   3.982   7.278   8.167 -1.1439  0.7600  1.1043
17312SOL    HW253614   3.956   7.149   8.092  0.8900  0.7018  0.4630
17313SOL     OW53615   3.892   0.847   7.344 -0.2474 -0.6163 -0.1826
17313SOL    HW153616   3.943   0.823   7.421  0.3734 -0.4919 -0.5521
17313SOL    HW253617   3.957   0.856   7.274 -0.7030  0.1555 -0.5140
17314SOL     OW53618   1.235   9.163   1.238 -0.3586 -0.0255 -0.0594
17314SOL    HW153619   1.216   9.171   1.332  2.5325  0.1825  0.5727
17314SOL    HW253620   1.227   9.253   1.204  1.6372  0.4713  0.6787
17315SOL     OW53621   4.573   2.011   8.135  0.2436 -0.3771  0.3910
17315SOL    HW153622   4.534   2.099   8.134  0.2282 -0.3716  0.9477
17315SOL    HW253623   4.509   1.956   8.091  0.8344  0.1226 -1.1062
17316SOL     OW53624   8.554   7.007   8.477  0.5982 -0.0594 -0.2630
17316SOL    HW153625   8.573   6.913   8.473  1.4779  0.0929  0.2450
17316SOL    HW253626   8.629   7.045   8.522 -0.8994  0.5670  1.7435
17317SOL     OW53627   9.031   1.589   4.764  0.0753 -0.4489 -0.2285
17317SOL    HW153628   9.077   1.560   4.685  0.5827 -0.7585  0.1742
17317SOL    HW253629   9.056   1.681   4.774 -1.6429  0.1844 -1.5876
17318SOL     OW53630   6.548   8.240   0.361 -0.1407  0.4860 -0.5980
17318SOL    HW153631   6.562   8.282   0.445 -2.2575  0.4502 -0.2008
17318SOL    HW253632   6.488   8.168   0.380  0.0956 -0.0896 -1.9783
17319SOL     OW53633   8.997   2.041   5.310 -0.0886 -0.2608 -0.0554
17319SOL    HW153634   8.925   1.982   5.286 -0.7952  0.3244  0.6014
17319SOL    HW253635   8.977   2.068   5.399  0.7465  0.2264 -0.0119
17320SOL     OW53636   5.116   3.183   5.518 -0.1409 -0.4864 -0.1582
17320SOL    HW153637   5.173   3.216   5.448 -0.0042  0.0832  0.2250
17320SOL    HW253638   5.165   3.111   5.557  0.7320  0.6063  0.7937
17321SOL     OW53639   4.926   2.207   6.285 -0.0874  0.4274  0.0175
17321SOL    HW153640   4.924   2.189   6.191  0.0153 -0.1143  0.1160
17321SOL    HW253641   5.001   2.265   6.297 -0.3436  0.8272 -0.2902
17322SOL     OW53642   3.892   3.283   1.146  0.6858 -0.2311  0.4655
17322SOL    HW153643   3.946   3.222   1.195  1.2310  0.5203  0.8090
17322SOL    HW253644   3.879   3.241   1.061  0.9449 -0.8801  0.7444
17323SOL     OW53645   1.336   8.393   3.291  0.1967  0.4543  0.0626
17323SOL    HW153646   1.264   8.400   3.354  1.1410 -2.1421  1.4844
17323SOL    HW253647   1.394   8.466   3.312 -0.0678  0.2702  1.4527
17324SOL     OW53648   3.077   8.861   6.947 -0.2960 -0.8333  0.0111
17324SOL    HW153649   3.060   8.955   6.950 -2.8577 -1.2557 -0.2095
17324SOL    HW253650   3.003   8.822   6.993  0.7060 -2.7691  0.0422
17325SOL     OW53651   8.614   3.672   8.550  0.0591 -0.1045 -0.1323
17325SOL    HW153652   8.534   3.725   8.551  0.4897  0.5518  1.5002
17325SOL    HW253653   8.628   3.649   8.642  1.9786  0.1554 -0.3367
17326SOL     OW53654   3.402   2.961   5.951  0.1335  0.3086 -0.2062
17326SOL    HW153655   3.411   2.993   5.862 -1.8706 -1.2862 -1.0147
17326SOL    HW253656   3.370   3.037   6.001  1.1643  1.1707 -0.8524
17327SOL     OW53657   1.038   6.913   0.461 -0.7754 -0.1366 -0.2009
17327SOL    HW153658   0.986   6.910   0.541 -3.0710  0.0327 -1.6361
17327SOL    HW253659   1.103   6.843   0.472 -0.9014  0.0341  1.8754
17328SOL     OW53660   8.273   6.752   4.847 -0.0340  0.1525 -0.4316
17328SOL    HW153661   8.331   6.809   4.796 -0.1005 -0.2961 -1.0222
17328SOL    HW253662   8.309   6.664   4.834 -1.7269 -0.3330 -2.0536
17329SOL     OW53663   2.105   3.685   6.516 -0.4223 -0.3481  0.2157
17329SOL    HW153664   2.118   3.718   6.428  0.4769 -0.2967  0.3640
17329SOL    HW253665   2.011   3.698   6.533 -0.2853  1.1888 -0.1029
17330SOL     OW53666   6.954   3.639   7.488  0.1279 -0.8152  0.0223
17330SOL    HW153667   6.921   3.664   7.401 -0.5867  1.2758  0.8663
17330SOL    HW253668   7.045   3.613   7.473  0.6156  1.4098 -1.0728
17331SOL     OW53669   8.118   6.561   8.373 -0.4562  0.2456  0.3243
17331SOL    HW153670   8.068   6.573   8.453 -2.7817 -2.0205 -0.7223
17331SOL    HW253671   8.180   6.491   8.394  0.6296  1.3440  0.8567
17332SOL     OW53672   5.195   4.095   7.007 -0.0920 -0.1018  0.2198
17332SOL    HW153673   5.140   4.141   6.943  1.1738 -0.3487 -1.0559
17332SOL    HW253674   5.282   4.133   6.996  0.2047 -0.3564  1.5998
17333SOL     OW53675   5.576   0.495   7.640 -0.2542  0.5760 -0.3941
17333SOL    HW153676   5.484   0.521   7.645 -0.6553 -0.7737 -0.4372
17333SOL    HW253677   5.574   0.399   7.639  1.1634  0.5271 -0.2561
17334SOL     OW53678   4.436   5.742   4.590 -0.0485  0.0911  0.3870
17334SOL    HW153679   4.406   5.659   4.627 -2.5186  1.5900  1.8936
17334SOL    HW253680   4.460   5.721   4.499 -0.4579 -2.2859  0.8037
17335SOL     OW53681   0.192   2.753   0.559 -0.1356 -0.1632  0.3912
17335SOL    HW153682   0.180   2.671   0.606  0.2660 -0.4948 -0.0822
17335SOL    HW253683   0.229   2.728   0.475  0.3026  0.5255  0.3707
17336SOL     OW53684   0.107   7.447   6.855  0.2317  0.0229  0.0208
17336SOL    HW153685   0.092   7.426   6.763  0.8430 -0.7371  0.0970
17336SOL    HW253686   0.085   7.367   6.903 -1.7446  0.9415  0.6931
17337SOL     OW53687   7.518   7.731   3.639  0.4042  0.2099  0.3439
17337SOL    HW153688   7.474   7.649   3.617  1.4998 -0.1852 -0.4118
17337SOL    HW253689   7.449   7.797   3.638  0.0303 -0.1760 -2.0544
17338SOL     OW53690   4.286   1.338   8.708  0.3080 -0.1586 -0.1427
17338SOL    HW153691   4.318   1.364   8.795  3.4586 -0.6989 -1.0967
17338SOL    HW253692   4.252   1.249   8.721 -1.5747  0.7092  1.0471
17339SOL     OW53693   1.803   4.219   8.728 -0.2172 -0.1015  0.1388
17339SOL    HW153694   1.747   4.264   8.791 -0.5566  1.2686 -1.1000
17339SOL    HW253695   1.794   4.126   8.749 -2.6259  0.1250  0.2508
17340SOL     OW53696   0.685   2.574   7.981  0.0099  0.0492  0.3408
17340SOL    HW153697   0.636   2.504   7.936  0.4052  1.5872 -2.6020
17340SOL    HW253698   0.775   2.543   7.983 -0.0631 -0.1629  0.3698
17341SOL     OW53699   0.527   7.195   2.681  0.4496  0.2188 -0.2259
17341SOL    HW153700   0.622   7.187   2.690  0.5953  3.0399  1.3388
17341SOL    HW253701   0.514   7.273   2.628 -1.0209  0.3113  0.2426
17342SOL     OW53702   3.828   1.617   4.524  0.2859 -0.0346  0.0885
17342SOL    HW153703   3.820   1.579   4.436  1.2633 -0.9800  0.3937
17342SOL    HW253704   3.836   1.541   4.582 -0.2709  0.5868  0.9900
17343SOL     OW53705   1.230   2.809   9.156 -0.0969  0.1363  0.0871
17343SOL    HW153706   1.298   2.779   9.216  0.6353  3.6900  1.1125
17343SOL    HW253707   1.157   2.835   9.212 -0.3024  1.2921 -0.7023
17344SOL     OW53708   1.421   7.007   3.178  0.5173 -0.3001 -0.5583
17344SOL    HW153709   1.340   7.006   3.229  0.1306  0.6094 -1.1368
17344SOL    HW253710   1.470   7.081   3.213  1.4652 -1.3438  0.3383
17345SOL     OW53711   3.290   5.395   5.908  0.0930  0.2980 -0.4124
17345SOL    HW153712   3.330   5.310   5.925 -1.7092 -0.2036  1.4141
17345SOL    HW253713   3.322   5.452   5.978 -0.5479  0.5238 -0.3038
17346SOL     OW53714   8.145   0.482   5.319  0.3260  0.0432 -0.0802
17346SOL    HW153715   8.095   0.466   5.239 -1.2419 -0.6697  1.0117
17346SOL    HW253716   8.156   0.577   5.322 -1.3415  0.2537 -0.1365
17347SOL     OW53717   1.670   2.296   3.440 -0.0981  0.2657  0.1541
17347SOL    HW153718   1.607   2.365   3.421  0.0632  0.5379  0.5875
17347SOL    HW253719   1.639   2.220   3.392 -1.6727 -0.0819  1.6759
17348SOL     OW53720   9.283   7.969   5.317  0.1170  0.8013 -0.2497
17348SOL    HW153721   9.199   7.997   5.355  0.1914 -0.4045  0.8723
17348SOL    HW253722   9.259   7.895   5.260  0.6473 -1.1177  1.9185
17349SOL     OW53723   1.631   9.150   6.323  0.4786 -0.0198 -0.0568
17349SOL    HW153724   1.567   9.219   6.337 -0.5971 -0.9558 -0.2657
17349SOL    HW253725   1.592   9.073   6.363  1.6241 -0.5250  0.0983
17350SOL     OW53726   5.276   9.048   2.210  0.9257 -0.1454 -0.3178
17350SOL    HW153727   5.320   8.966   2.229 -0.4049 -1.3136 -2.1727
17350SOL    HW253728   5.183   9.030   2.222  0.5554  0.8525 -1.5470
17351SOL     OW53729   2.817   6.552   3.780  0.1065 -0.1707  0.7425
17351SOL    HW153730   2.885   6.493   3.747  0.0327 -0.0636  0.4050
17351SOL    HW253731   2.831   6.634   3.734 -0.6151 -0.3212  0.2490
17352SOL     OW53732   6.783   1.661   6.334  0.2990  0.0507 -0.2015
17352SOL    HW153733   6.700   1.659   6.382  0.9857  0.0216  1.0097
17352SOL    HW253734   6.778   1.740   6.280 -0.6380 -0.1103 -0.3533
17353SOL     OW53735   1.738   0.291   7.275  0.4680 -0.0083 -0.1380
17353SOL    HW153736   1.767   0.294   7.184 -0.5566 -0.2710 -0.4818
17353SOL    HW253737   1.738   0.197   7.297 -0.2231 -0.0206 -0.1810
17354SOL     OW53738   9.172   7.498   1.173  0.4349 -0.1982 -0.0735
17354SOL    HW153739   9.245   7.473   1.116 -0.1390 -1.7249 -0.1570
17354SOL    HW253740   9.143   7.416   1.212 -2.8366  0.0236 -1.9036
17355SOL     OW53741   3.937   1.251   9.208 -0.6011  0.7101  0.1566
17355SOL    HW153742   3.982   1.328   9.172 -0.2068 -0.7847 -2.6877
17355SOL    HW253743   3.852   1.284   9.236  0.2044  2.5043  0.5770
17356SOL     OW53744   2.188   2.717   3.715 -0.4483  0.2866 -0.0573
17356SOL    HW153745   2.268   2.770   3.718 -0.1951 -0.1642  1.3198
17356SOL    HW253746   2.215   2.636   3.671 -0.5708  0.8242 -1.1498
17357SOL     OW53747   4.705   3.808   1.188 -0.4763  0.0945  0.6565
17357SOL    HW153748   4.733   3.739   1.127 -2.1019  0.8869 -1.0336
17357SOL    HW253749   4.680   3.881   1.131 -1.0145  1.2465  2.3386
17358SOL     OW53750   2.303   0.746   6.716 -0.6127 -0.6194  0.6034
17358SOL    HW153751   2.257   0.662   6.724  0.0037 -1.0809 -0.5424
17358SOL    HW253752   2.305   0.762   6.622 -1.3707  1.0553  0.8563
17359SOL     OW53753   9.095   4.402   3.639 -0.7709  0.1005  0.0918
17359SOL    HW153754   9.014   4.369   3.603 -0.5872 -0.3074  0.0503
17359SOL    HW253755   9.114   4.481   3.588 -0.9273 -0.0322 -0.1696
17360SOL     OW53756   6.625   0.321   1.691 -0.3415  0.0330 -0.6158
17360SOL    HW153757   6.531   0.330   1.677 -0.8757  0.3336  2.7019
17360SOL    HW253758   6.652   0.405   1.729  1.1751 -0.2183 -1.1141
17361SOL     OW53759   9.244   8.082   0.276  0.0927  0.0107  0.3675
17361SOL    HW153760   9.262   8.090   0.182  0.0389  0.2210  0.3763
17361SOL    HW253761   9.203   8.165   0.300  1.2164  0.4264  0.8386
17362SOL     OW53762   1.447   8.853   1.654 -0.3558 -0.2485  0.1613
17362SOL    HW153763   1.506   8.925   1.676  0.2283 -0.5191 -0.4761
17362SOL    HW253764   1.427   8.867   1.561  2.4914 -2.7933 -0.9134
17363SOL     OW53765   7.815   5.462   6.516 -0.7044 -0.2091  0.1781
17363SOL    HW153766   7.903   5.484   6.549 -0.9017  0.5411  0.2117
17363SOL    HW253767   7.772   5.546   6.504  0.3137 -0.2143 -4.6693
17364SOL     OW53768   0.336   7.142   6.466  0.2680 -0.2925 -0.3366
17364SOL    HW153769   0.361   7.227   6.501  0.3876  0.1148 -1.3763
17364SOL    HW253770   0.366   7.079   6.531 -0.8667  0.5154  1.0100
17365SOL     OW53771   9.171   1.358   8.905  0.4047 -0.3665 -0.2354
17365SOL    HW153772   9.264   1.363   8.923  0.7469 -2.7284 -1.0408
17365SOL    HW253773   9.166   1.322   8.816 -1.2630  0.4774 -0.5080
17366SOL     OW53774   2.814   5.200   8.438 -0.0753  0.7808 -0.0277
17366SOL    HW153775   2.902   5.237   8.432  0.1368  0.4941  1.0699
17366SOL    HW253776   2.756   5.271   8.415  0.5149  0.3778 -2.9326
17367SOL     OW53777   7.030   0.716   2.006 -0.2357 -0.2940  0.4324
17367SOL    HW153778   7.009   0.803   1.974  1.3503 -0.2105 -0.4440
17367SOL    HW253779   7.010   0.719   2.099 -0.4742  0.9073  0.3487
17368SOL     OW53780   0.813   7.939   9.192  0.2186  0.3866 -0.2748
17368SOL    HW153781   0.887   7.906   9.242  0.2002  1.8910  0.7851
17368SOL    HW253782   0.737   7.894   9.230  0.3518  0.5291  0.1708
17369SOL     OW53783   8.586   2.500   6.665 -0.3965  0.3329 -0.0446
17369SOL    HW153784   8.543   2.458   6.590  0.7835 -0.8452 -0.0853
17369SOL    HW253785   8.544   2.585   6.672 -1.1440  0.1082 -1.5048
17370SOL     OW53786   4.416   1.175   2.462 -0.5194  0.1296  0.3085
17370SOL    HW153787   4.463   1.096   2.434 -0.6423  0.1810 -0.0403
17370SOL    HW253788   4.457   1.198   2.545 -1.1820 -0.9066  0.9350
17371SOL     OW53789   1.107   1.019   4.291 -0.0967 -0.0983 -0.3858
17371SOL    HW153790   1.159   1.056   4.220 -0.6238 -0.7297 -1.1179
17371SOL    HW253791   1.026   1.070   4.291 -1.0303 -1.5188 -1.7187
17372SOL     OW53792   6.234   2.239   3.326  0.3987  0.2959 -0.3444
17372SOL    HW153793   6.189   2.225   3.243  1.3969 -0.3486 -0.7847
17372SOL    HW253794   6.325   2.254   3.302  0.8848 -0.8934  0.6858
17373SOL     OW53795   6.483   7.958   2.230  0.0790 -0.0256  0.3427
17373SOL    HW153796   6.548   8.025   2.252  0.3971 -0.4598  0.7032
17373SOL    HW253797   6.495   7.889   2.295  0.7429 -1.1172 -0.9171
17374SOL     OW53798   5.684   0.398   4.805  0.2623 -0.5785 -0.7624
17374SOL    HW153799   5.769   0.432   4.778  0.1600  0.5939  0.3691
17374SOL    HW253800   5.631   0.400   4.726  1.7642 -2.8835 -1.8760
17375SOL     OW53801   4.433   5.669   7.243 -0.1763 -0.1343 -0.0984
17375SOL    HW153802   4.444   5.575   7.229  1.7995  0.3018 -1.7209
17375SOL    HW253803   4.417   5.678   7.336  0.6364 -2.0089  0.2411
17376SOL     OW53804   5.751   1.209   5.690  0.0482 -0.0316  0.0312
17376SOL    HW153805   5.756   1.234   5.783  0.7502 -0.0597  0.0021
17376SOL    HW253806   5.743   1.114   5.692  1.2907 -0.1413  0.0316
17377SOL     OW53807   5.091   0.215   0.648  0.3110  0.4491 -0.1620
17377SOL    HW153808   5.041   0.286   0.687 -2.0673 -0.6252 -1.1709
17377SOL    HW253809   5.112   0.247   0.560  3.1648  1.6896  0.9070
17378SOL     OW53810   6.230   6.054   3.435  0.4490  0.4833  0.0211
17378SOL    HW153811   6.192   5.970   3.411 -1.8779  1.6817 -0.6060
17378SOL    HW253812   6.242   6.049   3.530 -4.4717  1.2509  0.8060
17379SOL     OW53813   0.616   4.767   8.360 -0.5126  0.4921  0.1147
17379SOL    HW153814   0.553   4.700   8.334 -0.4151  1.4564 -2.7695
17379SOL    HW253815   0.563   4.844   8.380 -0.3656  0.8207 -0.7421
17380SOL     OW53816   9.261   5.820   1.439  0.6462  0.2133 -0.7721
17380SOL    HW153817   9.209   5.743   1.459  0.1941  0.0620 -2.4622
17380SOL    HW253818   9.349   5.787   1.422  0.8637  0.2653  0.2594
17381SOL     OW53819   7.175   2.722   0.994 -0.5752  0.4796  1.3309
17381SOL    HW153820   7.215   2.809   0.982  1.4034 -0.5893 -0.0890
17381SOL    HW253821   7.189   2.702   1.087  2.6579 -0.0464  0.7872
17382SOL     OW53822   8.096   7.157   2.549 -0.2251  0.1959 -1.0761
17382SOL    HW153823   8.091   7.121   2.638  0.2470  1.0412 -0.6968
17382SOL    HW253824   8.178   7.207   2.549 -0.4889  0.6267 -1.8288
17383SOL     OW53825   6.584   4.068   5.440 -0.1937  0.4551  0.8379
17383SOL    HW153826   6.646   4.091   5.508  0.9050  0.0107  0.0002
17383SOL    HW253827   6.584   4.142   5.380  0.1907  0.0922  0.3797
17384SOL     OW53828   1.460   1.738   3.879 -0.2803  0.4804 -0.2540
17384SOL    HW153829   1.547   1.699   3.893  0.2507  1.6637 -0.1962
17384SOL    HW253830   1.472   1.831   3.898 -1.5581  0.6605 -0.2888
17385SOL     OW53831   2.025   8.793   8.231  0.0439  0.6971  0.2519
17385SOL    HW153832   2.038   8.832   8.317  2.2139  0.9092 -0.1478
17385SOL    HW253833   2.033   8.699   8.246 -1.9334  0.5771  0.6621
17386SOL     OW53834   8.509   2.081   1.935 -0.1797 -0.5052  0.1186
17386SOL    HW153835   8.604   2.073   1.941 -0.3599 -1.2832  2.5134
17386SOL    HW253836   8.482   2.009   1.877  0.5384 -1.4325  0.9171
17387SOL     OW53837   0.694   1.967   5.049 -0.5476 -0.2151 -0.4534
17387SOL    HW153838   0.769   2.008   5.093  0.0756 -2.7789  0.9703
17387SOL    HW253839   0.617   2.007   5.090  0.0273  0.6073 -0.1611
17388SOL     OW53840   9.203   7.729   4.505 -0.0225  0.3575 -0.4550
17388SOL    HW153841   9.119   7.709   4.465  0.1356  1.6181 -1.4316
17388SOL    HW253842   9.223   7.818   4.478  2.8126 -0.7650 -2.3401
17389SOL     OW53843   4.726   8.021   5.314  0.0096 -0.0332  0.1241
17389SOL    HW153844   4.771   8.067   5.385  1.1987  1.0367 -1.3156
17389SOL    HW253845   4.661   8.083   5.282 -0.0187 -0.2466 -0.2323
17390SOL     OW53846   9.255   5.649   6.714 -0.1264 -0.0097 -0.1620
17390SOL    HW153847   9.310   5.606   6.779 -0.5877 -0.2812  0.0488
17390SOL    HW253848   9.241   5.582   6.646  0.9247  0.4898 -0.8811
17391SOL     OW53849   8.045   3.388   3.027 -0.1451  0.8709 -0.3799
17391SOL    HW153850   7.971   3.447   3.015 -0.5580  0.3777 -0.2862
17391SOL    HW253851   8.011   3.302   3.001  0.9914  0.9810 -2.3236
17392SOL     OW53852   3.559   7.478   4.602  0.4489 -0.6053  0.1498
17392SOL    HW153853   3.498   7.506   4.534  0.3462 -2.0291 -0.3552
17392SOL    HW253854   3.521   7.513   4.683 -0.9137 -1.2384 -0.1926
17393SOL     OW53855   3.377   8.727   4.861 -0.0480  0.1009  0.3818
17393SOL    HW153856   3.453   8.773   4.896  1.2106 -0.4291 -1.6329
17393SOL    HW253857   3.388   8.637   4.891 -0.2482  0.1602  0.6434
17394SOL     OW53858   0.214   7.729   8.165  0.3532  0.1452  0.1392
17394SOL    HW153859   0.163   7.664   8.117  0.7472  0.3811 -0.6037
17394SOL    HW253860   0.250   7.682   8.240  0.1484 -0.3379 -0.0664
17395SOL     OW53861   0.395   8.012   1.428 -0.1028 -0.1317 -0.0430
17395SOL    HW153862   0.419   8.028   1.519  0.0604 -0.3247 -0.0515
17395SOL    HW253863   0.458   7.947   1.397  0.9986  1.2864 -0.8536
17396SOL     OW53864   0.249   8.973   3.294  0.0405  0.8566  0.5946
17396SOL    HW153865   0.155   8.986   3.282 -0.2720 -3.0702 -2.0430
17396SOL    HW253866   0.259   8.956   3.387 -2.2451 -1.0433  0.5411
17397SOL     OW53867   8.150   4.426   3.857  0.0121  0.1044  0.0169
17397SOL    HW153868   8.161   4.335   3.882  1.5453 -0.0506 -1.1313
17397SOL    HW253869   8.230   4.470   3.888  1.1262  0.2481 -2.8550
17398SOL     OW53870   0.163   1.000   8.527 -0.1293 -0.2284  0.9346
17398SOL    HW153871   0.168   1.094   8.511 -0.9564 -0.2628  0.4880
17398SOL    HW253872   0.101   0.991   8.600  0.9813 -0.3326  1.8918
17399SOL     OW53873   2.550   1.785   1.265  0.1738 -0.1256 -0.1763
17399SOL    HW153874   2.457   1.799   1.248  0.5616  2.0137 -0.6713
17399SOL    HW253875   2.566   1.695   1.238 -1.7063 -0.4555 -0.2698
17400SOL     OW53876   8.392   6.854   3.108 -0.1828  0.0789 -0.5368
17400SOL    HW153877   8.327   6.873   3.176 -1.0290 -0.6862 -1.1121
17400SOL    HW253878   8.456   6.797   3.151 -0.2076  0.3618 -0.1249
17401SOL     OW53879   7.963   1.970   8.760  0.3234 -0.0785 -0.0279
17401SOL    HW153880   7.973   2.057   8.798 -0.3992 -0.2651  0.5992
17401SOL    HW253881   7.999   1.911   8.826  3.8543 -0.0438 -1.8141
17402SOL     OW53882   3.153   3.064   2.497  0.3647  0.1417 -0.8957
17402SOL    HW153883   3.220   3.066   2.428 -0.6047  3.1736 -1.8107
17402SOL    HW253884   3.202   3.051   2.578  1.7637 -0.7650 -1.8748
17403SOL     OW53885   7.878   3.915   4.224 -0.3732 -0.0819 -0.1196
17403SOL    HW153886   7.962   3.918   4.179 -0.0322  1.7535  0.5968
17403SOL    HW253887   7.819   3.968   4.171 -0.2924  1.0727  0.9234
17404SOL     OW53888   7.081   1.147   2.076  0.4445  0.3940  0.1201
17404SOL    HW153889   6.999   1.196   2.077 -0.1324 -0.4844 -1.2683
17404SOL    HW253890   7.118   1.157   2.164 -1.6122  0.0311  1.0407
17405SOL     OW53891   0.306   8.272   8.381  0.1360  0.1151  0.1088
17405SOL    HW153892   0.221   8.311   8.361  1.2973  2.5336 -0.2820
17405SOL    HW253893   0.285   8.185   8.416 -2.4487  0.4523 -0.5254
17406SOL     OW53894   0.366   1.219   9.246  0.4041  0.4116 -0.1996
17406SOL    HW153895   0.458   1.244   9.240  0.5934 -0.6218 -1.8383
17406SOL    HW253896   0.368   1.127   9.269 -0.2562  0.7339  1.2205
17407SOL     OW53897   1.735   8.377   8.906 -0.0741 -0.2742  0.0616
17407SOL    HW153898   1.767   8.337   8.825 -1.1889  2.0104 -1.5352
17407SOL    HW253899   1.776   8.463   8.908 -2.0648  0.6626  0.6352
17408SOL     OW53900   2.986   8.038   3.481 -0.0162 -0.2333  0.0723
17408SOL    HW153901   2.892   8.020   3.480 -0.0809 -0.0463  1.4776
17408SOL    HW253902   2.994   8.119   3.531  0.8093  0.3598 -1.0009
17409SOL     OW53903   8.877   3.197   6.591  0.3582 -0.1354  0.2076
17409SOL    HW153904   8.853   3.126   6.532  0.3402  0.7877 -0.9061
17409SOL    HW253905   8.958   3.233   6.555  1.2567 -0.6300  1.6892
17410SOL     OW53906   0.020   3.656   3.291  0.3566  0.0192 -0.3367
17410SOL    HW153907  -0.018   3.633   3.206 -0.7797  1.0458 -0.1259
17410SOL    HW253908   0.047   3.747   3.281 -1.4052  0.7074  0.9444
17411SOL     OW53909   8.354   2.876   0.117  0.0181  0.0816 -0.0669
17411SOL    HW153910   8.277   2.842   0.163  0.0927  0.9316  0.7062
17411SOL    HW253911   8.379   2.954   0.167  1.1533  0.0241 -0.5436
17412SOL     OW53912   7.281   2.462   4.542 -0.1715  0.4175 -0.3845
17412SOL    HW153913   7.274   2.447   4.636  0.7094 -1.7818 -0.6407
17412SOL    HW253914   7.315   2.551   4.534 -0.1221  0.5761  1.3612
17413SOL     OW53915   8.902   3.948   0.490 -0.4413  0.0844 -0.1504
17413SOL    HW153916   8.931   4.037   0.507 -1.2529  0.2431  0.4337
17413SOL    HW253917   8.967   3.912   0.430 -0.6948  1.4249 -1.2493
17414SOL     OW53918   6.439   5.857   2.163 -0.3447 -0.4743  0.0440
17414SOL    HW153919   6.533   5.837   2.159  0.1219  1.7649 -0.4073
17414SOL    HW253920   6.422   5.906   2.083 -1.2325  1.9053  1.6514
17415SOL     OW53921   6.302   0.600   2.765 -0.8137  0.0365  0.0143
17415SOL    HW153922   6.249   0.670   2.804  0.2043  0.4814  0.6357
17415SOL    HW253923   6.352   0.643   2.696 -0.2693 -0.1039  0.3222
17416SOL     OW53924   5.480   2.008   3.766 -0.1184  0.1377  0.1368
17416SOL    HW153925   5.464   1.954   3.844 -0.3242  0.1195  0.0815
17416SOL    HW253926   5.574   1.996   3.748 -0.3251 -0.8271 -0.3355
17417SOL     OW53927   6.589   8.812   1.370 -0.0309 -0.6297 -0.5311
17417SOL    HW153928   6.571   8.730   1.416 -1.4077  0.1052  0.2921
17417SOL    HW253929   6.541   8.878   1.420  0.9403  0.6617 -1.2656
17418SOL     OW53930   2.291   7.573   0.360  0.2497  0.0720  0.3065
17418SOL    HW153931   2.372   7.622   0.372 -0.1133  1.1384 -1.2986
17418SOL    HW253932   2.228   7.639   0.332 -0.5417 -1.1254 -0.8031
17419SOL     OW53933   0.357   3.434   4.126 -0.5063 -0.0537  0.5177
17419SOL    HW153934   0.276   3.437   4.176 -0.5699  0.5472  0.3767
17419SOL    HW253935   0.371   3.524   4.095  0.0630 -0.2081  0.3059
17420SOL     OW53936   5.868   8.557   5.883 -0.0087 -0.7234  0.4700
17420SOL    HW153937   5.883   8.569   5.976  3.2238 -0.8247  0.0236
17420SOL    HW253938   5.908   8.473   5.862  1.1411  0.2312 -1.3575
17421SOL     OW53939   0.796   0.371   2.686 -0.4138 -0.0103  0.6632
17421SOL    HW153940   0.824   0.440   2.626  0.5547 -0.3582  0.7186
17421SOL    HW253941   0.852   0.382   2.763  0.0755 -1.1786  0.4767
17422SOL     OW53942   3.817   5.077   6.449  0.3695  0.5769 -0.1390
17422SOL    HW153943   3.848   4.997   6.406  1.3397  1.0259 -0.2837
17422SOL    HW253944   3.830   5.061   6.543  0.6188  0.5984 -0.1722
17423SOL     OW53945   6.946   5.017   5.733  0.6369 -0.3445  0.4272
17423SOL    HW153946   6.961   5.105   5.700  1.0437 -0.2853  0.7591
17423SOL    HW253947   6.851   5.007   5.731  0.5545  0.2876  0.8484
17424SOL     OW53948   0.653   1.395   8.579  0.0704 -0.2275 -0.0467
17424SOL    HW153949   0.589   1.354   8.638  0.4715  0.2777  0.7479
17424SOL    HW253950   0.715   1.325   8.558 -1.3213 -1.0055 -1.6672
17425SOL     OW53951   8.996   7.607   6.180 -0.6311  0.7986  0.2478
17425SOL    HW153952   8.940   7.627   6.105  1.1316  0.1830 -1.2702
17425SOL    HW253953   8.996   7.512   6.186 -0.4638  0.8322  0.8087
17426SOL     OW53954   7.236   4.014   8.726  0.3899 -0.3216  0.4802
17426SOL    HW153955   7.224   4.063   8.808  0.0347 -0.9572  0.8135
17426SOL    HW253956   7.327   4.030   8.701  0.3644  0.2510  0.7537
17427SOL     OW53957   1.785   8.110   7.329  0.6479  0.3209 -0.4707
17427SOL    HW153958   1.829   8.186   7.291 -0.1583 -0.2189 -2.5519
17427SOL    HW253959   1.781   8.046   7.258 -1.8225 -0.3399  0.2084
17428SOL     OW53960   8.848   2.617   8.703  0.0894 -0.0910 -0.0622
17428SOL    HW153961   8.892   2.547   8.751  0.4428 -0.4667 -0.9371
17428SOL    HW253962   8.839   2.687   8.768  0.8778 -0.4667  0.4659
17429SOL     OW53963   8.954   6.632   7.511  0.1142 -0.3350 -0.1918
17429SOL    HW153964   8.983   6.633   7.420 -2.0413  0.0475 -0.9111
17429SOL    HW253965   8.961   6.723   7.540  1.6051 -0.6053  0.2894
17430SOL     OW53966   5.516   3.630   4.745  0.2830 -0.0964  0.5605
17430SOL    HW153967   5.494   3.605   4.656  0.7211 -1.5669  0.8492
17430SOL    HW253968   5.437   3.614   4.796 -0.4384  2.1465  0.1883
17431SOL     OW53969   3.647   2.400   2.347 -0.6031 -0.2729 -0.3017
17431SOL    HW153970   3.609   2.386   2.261 -0.6605  0.4690 -0.4010
17431SOL    HW253971   3.573   2.424   2.403 -0.5187 -0.4331 -0.1173
17432SOL     OW53972   7.031   2.335   0.422  0.3105 -0.1646 -0.0650
17432SOL    HW153973   6.996   2.416   0.459 -0.9713 -0.7496  0.0518
17432SOL    HW253974   7.109   2.316   0.474  0.8121  1.1637 -0.3108
17433SOL     OW53975   3.285   5.877   0.864 -0.7872 -0.7286 -0.6586
17433SOL    HW153976   3.263   5.949   0.806 -0.0017  0.9654  1.1121
17433SOL    HW253977   3.231   5.804   0.833 -1.4882  0.5585 -2.5449
17434SOL     OW53978   5.102   5.079   1.432 -0.3350  0.6725 -0.2625
17434SOL    HW153979   5.058   5.158   1.463  0.5983  0.1925  2.5077
17434SOL    HW253980   5.149   5.046   1.510 -0.1815 -2.2313 -1.5080
17435SOL     OW53981   2.616   2.908   7.888  0.3663 -0.3698 -0.2623
17435SOL    HW153982   2.640   2.921   7.980  0.0553 -1.4786 -0.0160
17435SOL    HW253983   2.656   2.982   7.842 -0.4133  0.8083  0.9185
17436SOL     OW53984   7.660   6.278   4.417 -0.4681 -0.3078 -0.3592
17436SOL    HW153985   7.660   6.259   4.511 -0.9333 -0.2156 -0.3379
17436SOL    HW253986   7.737   6.233   4.383 -0.2399 -0.2535  0.0862
17437SOL     OW53987   4.692   3.103   8.010  0.0465  0.4368 -0.0524
17437SOL    HW153988   4.648   3.080   8.091 -0.3059 -1.2882 -0.7142
17437SOL    HW253989   4.785   3.107   8.033 -0.3099  2.8823  1.0704
17438SOL     OW53990   3.091   7.548   3.086  0.1728 -0.1449 -1.0003
17438SOL    HW153991   3.009   7.597   3.093  1.7486  3.1218 -3.7752
17438SOL    HW253992   3.127   7.548   3.175 -0.9167  1.9019 -0.5367
17439SOL     OW53993   3.155   7.796   1.675 -0.1683 -0.4547  0.0323
17439SOL    HW153994   3.240   7.832   1.701 -0.9035  1.9538 -0.7414
17439SOL    HW253995   3.115   7.866   1.623 -1.7156 -2.3993 -1.4475
17440SOL     OW53996   0.968   6.442   7.487  0.1511  0.5776 -0.1819
17440SOL    HW153997   0.906   6.454   7.560  0.1616  0.0916 -0.0971
17440SOL    HW253998   0.919   6.470   7.410 -0.1745  0.1830 -0.1154
17441SOL     OW53999   6.649   3.383   8.607 -0.4083  0.6585  0.0349
17441SOL    HW154000   6.563   3.420   8.589 -0.4356  0.5641 -0.0308
17441SOL    HW254001   6.710   3.437   8.558 -0.5397  0.0281 -0.8338
17442SOL     OW54002   5.234   7.133   8.466 -0.2932  0.1005  0.0658
17442SOL    HW154003   5.151   7.155   8.423  0.0717 -1.9081 -1.7415
17442SOL    HW254004   5.295   7.201   8.436 -0.4886 -0.2810 -1.2549
17443SOL     OW54005   3.860   5.171   8.458  0.6180  0.0929 -0.1229
17443SOL    HW154006   3.803   5.114   8.511  0.6913 -1.0157 -1.2114
17443SOL    HW254007   3.800   5.215   8.398  0.7317  0.0291 -0.2842
17444SOL     OW54008   7.676   1.214   6.774 -0.2152 -0.9211  0.5330
17444SOL    HW154009   7.630   1.147   6.823 -0.0477 -0.4727  1.3100
17444SOL    HW254010   7.722   1.266   6.840 -1.0148  0.4746  0.0285
17445SOL     OW54011   2.830   6.431   2.555 -0.6536  0.3376 -0.3068
17445SOL    HW154012   2.895   6.460   2.491 -2.1538  1.2921 -1.4308
17445SOL    HW254013   2.748   6.473   2.528 -2.1506 -2.1906  0.0555
17446SOL     OW54014   5.619   3.288   7.480 -0.7040 -0.0839  0.4715
17446SOL    HW154015   5.681   3.272   7.408  1.1085  0.3282  1.9059
17446SOL    HW254016   5.644   3.374   7.514 -1.3540 -0.4087  1.7759
17447SOL     OW54017   3.076   5.644   2.048 -0.3384 -0.2440  0.5996
17447SOL    HW154018   3.057   5.614   1.959 -0.2664 -1.5362  1.0146
17447SOL    HW254019   3.072   5.740   2.042  0.6991 -0.2736 -1.0281
17448SOL     OW54020   6.725   0.127   5.820  0.6045  0.3035 -0.7897
17448SOL    HW154021   6.631   0.119   5.808  0.7557 -1.0638 -1.1884
17448SOL    HW254022   6.745   0.217   5.793 -0.5865  0.6296 -0.6244
17449SOL     OW54023   5.726   1.104   1.852  0.1143 -0.2954  0.1478
17449SOL    HW154024   5.636   1.082   1.828  0.0378  0.4998 -0.3093
17449SOL    HW254025   5.779   1.033   1.815 -0.2915 -0.5778  0.1092
17450SOL     OW54026   7.140   3.401   8.486  0.3237  0.5575  0.0528
17450SOL    HW154027   7.156   3.469   8.550  1.5801 -1.0978  1.5494
17450SOL    HW254028   7.073   3.345   8.526  1.8209 -1.0345  0.3637
17451SOL     OW54029   2.888   4.207   7.356  0.3775  0.1058  0.0791
17451SOL    HW154030   2.982   4.227   7.359  0.6524 -1.1398  0.3242
17451SOL    HW254031   2.880   4.143   7.286 -0.3055  0.2763  0.0019
17452SOL     OW54032   2.745   0.577   2.752  0.2461  0.4593 -0.2238
17452SOL    HW154033   2.806   0.509   2.782  0.2890 -0.3810 -2.1351
17452SOL    HW254034   2.662   0.556   2.795  0.4919 -0.2687 -0.1026
17453SOL     OW54035   5.003   7.265   0.978  0.1287  0.7515  0.2306
17453SOL    HW154036   4.969   7.353   0.959  0.1546  0.6161 -0.4615
17453SOL    HW254037   5.043   7.237   0.896 -0.0112  0.0294  0.4108
17454SOL     OW54038   9.012   6.623   3.361  0.1067  0.3788 -0.3311
17454SOL    HW154039   8.998   6.709   3.320 -0.8925  1.2793  1.8533
17454SOL    HW254040   8.953   6.565   3.314  1.1221  0.7560 -2.1397
17455SOL     OW54041   7.076   1.368   9.042 -0.1534 -0.7192 -0.0479
17455SOL    HW154042   7.024   1.341   8.966  1.5075  0.2222 -1.5642
17455SOL    HW254043   7.011   1.389   9.109 -1.6852 -0.7514 -1.4891
17456SOL     OW54044   7.518   3.901   2.218  0.2006 -0.2558 -0.0344
17456SOL    HW154045   7.587   3.847   2.181  1.0066  1.5266 -1.1868
17456SOL    HW254046   7.437   3.862   2.187  0.6902 -2.0335  0.8784
17457SOL     OW54047   2.509   4.118   2.866 -0.5689 -0.3360  0.5979
17457SOL    HW154048   2.454   4.042   2.850  0.8176 -1.0933 -0.6119
17457SOL    HW254049   2.565   4.093   2.940  1.2366 -1.2475 -1.0349
17458SOL     OW54050   2.225   2.849   1.314 -0.1514 -0.1666  0.2839
17458SOL    HW154051   2.295   2.913   1.325 -0.1399  0.0072 -0.7122
17458SOL    HW254052   2.265   2.766   1.339  0.2128  0.0289  0.3552
17459SOL     OW54053   6.260   8.916   4.989  0.2010  0.7132  0.5105
17459SOL    HW154054   6.351   8.936   4.968  0.1343  0.4066 -0.0787
17459SOL    HW254055   6.229   8.866   4.914 -0.0736 -0.3258  1.3140
17460SOL     OW54056   4.089   1.188   4.280 -0.6649  0.1447 -0.3610
17460SOL    HW154057   4.010   1.237   4.255 -1.1036  0.4433  1.5985
17460SOL    HW254058   4.157   1.223   4.222 -1.4480  1.5249 -0.4734
17461SOL     OW54059   5.737   1.123   2.142 -0.2191 -0.2954  0.2670
17461SOL    HW154060   5.736   1.089   2.052  2.3991 -0.3835  0.2153
17461SOL    HW254061   5.767   1.049   2.195  1.6726  0.7382  0.6920
17462SOL     OW54062   5.316   2.197   8.393 -0.0489  0.0211  0.3273
17462SOL    HW154063   5.314   2.203   8.297 -2.2022 -1.8703  0.2317
17462SOL    HW254064   5.343   2.285   8.421  0.2417  0.7103 -1.9916
17463SOL     OW54065   4.868   8.686   3.256 -0.1597 -0.3578 -0.7312
17463SOL    HW154066   4.805   8.726   3.196 -0.2169  0.2999 -0.2371
17463SOL    HW254067   4.905   8.760   3.304 -0.6794 -0.9480  0.5972
17464SOL     OW54068   3.158   2.453   2.786 -0.2874 -0.3060  0.5659
17464SOL    HW154069   3.093   2.485   2.849 -2.8385  1.2426 -2.7205
17464SOL    HW254070   3.235   2.507   2.802 -0.5618 -0.5766  2.9645
17465SOL     OW54071   9.042   7.303   2.933 -0.4904 -0.6023 -0.0802
17465SOL    HW154072   9.020   7.382   2.983  1.7535 -0.2331  0.3851
17465SOL    HW254073   9.027   7.231   2.993 -0.8706 -0.3865  0.0818
17466SOL     OW54074   7.833   6.413   3.528 -0.1181  0.2598  0.2695
17466SOL    HW154075   7.768   6.383   3.591 -0.5942 -0.2723 -0.4710
17466SOL    HW254076   7.820   6.358   3.451  0.0698  1.2865 -0.5159
17467SOL     OW54077   2.229   0.664   0.247 -0.4756 -0.2039 -0.2537
17467SOL    HW154078   2.307   0.719   0.243  0.2146 -1.2560 -2.1611
17467SOL    HW254079   2.156   0.725   0.252  0.3888  0.8268 -0.0504
17468SOL     OW54080   5.770   6.294   3.274 -0.0433  0.3480 -0.0796
17468SOL    HW154081   5.841   6.273   3.213 -1.5265 -2.0281 -1.0937
17468SOL    HW254082   5.813   6.308   3.358  1.8633  1.7728 -1.2494
17469SOL     OW54083   2.597   7.540   1.706  0.5957  0.3771  0.4988
17469SOL    HW154084   2.502   7.554   1.707  0.5006  0.0170 -1.4130
17469SOL    HW254085   2.632   7.614   1.755 -0.5117  2.1432 -1.2821
17470SOL     OW54086   5.245   5.328   3.306 -0.0386 -0.1357  0.4462
17470SOL    HW154087   5.242   5.421   3.286  1.5657 -0.4260 -1.3687
17470SOL    HW254088   5.303   5.321   3.383 -0.2611  0.3679  0.6570
17471SOL     OW54089   8.638   2.403   9.051 -0.5840 -0.3914 -0.0563
17471SOL    HW154090   8.711   2.343   9.059 -0.6800 -0.7484 -1.6824
17471SOL    HW254091   8.576   2.376   9.119 -0.0073 -1.2279  0.1309
17472SOL     OW54092   2.053   3.737   4.973 -0.3630  0.3408 -0.3251
17472SOL    HW154093   2.106   3.812   4.945 -0.5436 -0.1323 -1.9832
17472SOL    HW254094   2.094   3.662   4.931 -0.4524 -0.4503  0.9712
17473SOL     OW54095   4.874   2.621   7.376 -0.1022 -0.6838  0.3387
17473SOL    HW154096   4.786   2.653   7.396  0.1388  0.3885 -0.2594
17473SOL    HW254097   4.928   2.700   7.373  0.4198 -1.0945 -1.5941
17474SOL     OW54098   9.014   3.502   0.538 -0.1543 -0.4092  0.4095
17474SOL    HW154099   8.966   3.583   0.522 -2.9228 -1.8044  1.3820
17474SOL    HW254100   8.966   3.459   0.608  1.7344 -2.5476  0.4508
17475SOL     OW54101   4.026   4.313   2.294 -0.5460  0.9675 -0.6120
17475SOL    HW154102   4.096   4.318   2.229 -0.4577  1.9731 -0.4491
17475SOL    HW254103   3.948   4.346   2.248 -1.3234 -1.7573 -1.3254
17476SOL     OW54104   4.757   4.411   7.774  0.1672 -0.0349 -0.4287
17476SOL    HW154105   4.695   4.349   7.814 -0.8538  1.6176  0.6438
17476SOL    HW254106   4.815   4.356   7.721 -0.1687 -2.0009  1.1590
17477SOL     OW54107   7.063   7.330   5.498  0.3441  0.6079  0.1258
17477SOL    HW154108   7.068   7.262   5.565 -0.3204  0.1924 -0.2437
17477SOL    HW254109   7.154   7.340   5.468  0.3650 -0.5227 -0.2138
17478SOL     OW54110   6.801   6.372   2.042  0.5449  0.3840 -0.4807
17478SOL    HW154111   6.729   6.309   2.037  0.8232  0.0973 -0.8925
17478SOL    HW254112   6.874   6.322   2.079  0.3845  0.8056  0.4055
17479SOL     OW54113   2.337   3.521   5.420 -0.0624 -0.2499 -1.0048
17479SOL    HW154114   2.365   3.502   5.331  0.8060 -1.0578 -0.5755
17479SOL    HW254115   2.404   3.480   5.475 -0.6709  0.1073  0.0171
17480SOL     OW54116   5.218   2.405   7.259  0.0903  0.3412  0.0969
17480SOL    HW154117   5.230   2.420   7.165  0.5171 -0.3630  0.0314
17480SOL    HW254118   5.251   2.316   7.273  1.3266  0.9452  1.1468
17481SOL     OW54119   6.663   7.095   9.263 -0.3185 -0.2569 -0.2669
17481SOL    HW154120   6.695   7.071   9.176  1.1982 -2.9564  0.9744
17481SOL    HW254121   6.727   7.158   9.295  0.1482 -0.6651 -0.3844
17482SOL     OW54122   5.544   0.520   6.377  0.2560  0.4934  0.2394
17482SOL    HW154123   5.606   0.578   6.334 -0.3406  0.1300 -1.1394
17482SOL    HW254124   5.484   0.493   6.307 -0.3389 -0.6225  1.1614
17483SOL     OW54125   1.616   8.549   6.819 -0.0124 -0.8625  0.6694
17483SOL    HW154126   1.668   8.610   6.872 -0.0702 -1.3881  1.3410
17483SOL    HW254127   1.631   8.577   6.729  0.0269  0.0873  0.9706
17484SOL     OW54128   6.106   7.818   5.598 -0.6614  0.0906 -0.3457
17484SOL    HW154129   6.021   7.857   5.576 -0.8244 -1.4355 -2.5924
17484SOL    HW254130   6.170   7.872   5.551 -0.5330  0.1840 -0.0643
17485SOL     OW54131   7.988   3.971   0.690  0.7160 -0.1777  0.3105
17485SOL    HW154132   8.043   3.955   0.767  0.5665 -2.1947  0.0397
17485SOL    HW254133   8.047   3.959   0.615 -0.0565 -2.4167  0.0172
17486SOL     OW54134   8.627   2.638   4.132 -0.3358 -0.1186 -0.4425
17486SOL    HW154135   8.633   2.551   4.172 -0.1484 -0.7585 -1.8455
17486SOL    HW254136   8.555   2.630   4.069  1.2280  0.0585 -2.2664
17487SOL     OW54137   3.329   0.486   2.583 -0.1744 -0.3824 -0.3817
17487SOL    HW154138   3.281   0.504   2.502 -1.1252  0.8748  0.4461
17487SOL    HW254139   3.416   0.524   2.569 -0.8952  1.3507 -0.1527
17488SOL     OW54140   6.271   1.204   3.001 -0.3396  0.2067  0.0287
17488SOL    HW154141   6.219   1.256   2.939  0.7956 -0.4357 -1.4894
17488SOL    HW254142   6.207   1.147   3.043 -0.9363 -0.4582 -1.7095
17489SOL     OW54143   1.118   0.515   4.487  0.3446  0.5278  0.5185
17489SOL    HW154144   1.135   0.524   4.393 -2.5087  0.3813 -0.0360
17489SOL    HW254145   1.140   0.601   4.524  0.4272  0.9132 -0.4229
17490SOL     OW54146   1.991   1.463   4.794 -0.1280 -0.4957  0.4003
17490SOL    HW154147   1.972   1.369   4.799 -1.6266 -0.2699 -0.5506
17490SOL    HW254148   2.057   1.471   4.726 -0.5526 -0.7997 -0.0523
17491SOL     OW54149   6.833   6.525   6.707  0.5679 -0.3522  0.4283
17491SOL    HW154150   6.807   6.525   6.615 -0.0995 -1.8260  0.5951
17491SOL    HW254151   6.894   6.598   6.715 -0.0968  0.3788 -0.9686
17492SOL     OW54152   1.907   7.125   3.610 -0.0902 -0.1874  0.2333
17492SOL    HW154153   1.967   7.064   3.654  1.8985  1.1693 -0.5231
17492SOL    HW254154   1.877   7.183   3.679  0.0183 -0.4338  0.4900
17493SOL     OW54155   8.038   6.641   9.263  0.8555 -0.2565  0.3747
17493SOL    HW154156   8.019   6.637   9.357 -0.0075 -1.5805  0.1544
17493SOL    HW254157   8.112   6.703   9.256  0.2674  0.6389  1.8078
17494SOL     OW54158   8.766   3.737   7.148 -0.2268 -0.0981 -0.9152
17494SOL    HW154159   8.745   3.742   7.241  0.2508 -2.0816 -0.6925
17494SOL    HW254160   8.846   3.789   7.138  0.2095 -0.6033 -0.0694
17495SOL     OW54161   5.105   7.613   5.650  0.1693  0.0296 -0.1719
17495SOL    HW154162   5.149   7.618   5.565  0.5772  0.3819  0.0612
17495SOL    HW254163   5.041   7.685   5.648 -2.2632 -2.0755 -1.5607
17496SOL     OW54164   1.085   1.653   4.417  0.0863  0.0311  0.4883
17496SOL    HW154165   1.072   1.594   4.342 -0.7343  1.4153 -0.4889
17496SOL    HW254166   1.022   1.724   4.402  0.1917  0.5145  2.3031
17497SOL     OW54167   6.228   8.631   0.720  0.3090 -0.2295  0.1600
17497SOL    HW154168   6.170   8.697   0.681  2.2173  1.5876  0.2914
17497SOL    HW254169   6.231   8.654   0.812  0.8466 -0.6168  0.2388
17498SOL     OW54170   3.406   8.898   6.250  0.3242 -0.5130  0.4357
17498SOL    HW154171   3.404   8.994   6.247 -1.4127 -0.4910  1.5551
17498SOL    HW254172   3.494   8.877   6.279  0.5927  0.7710  0.5721
17499SOL     OW54173   5.089   3.233   6.887  0.0688  0.5385 -0.2373
17499SOL    HW154174   5.071   3.284   6.809  1.1564 -0.1910 -0.9715
17499SOL    HW254175   5.184   3.226   6.891 -0.0372 -0.9545  0.1516
17500SOL     OW54176   3.926   6.645   4.955  0.4286 -0.0475 -0.2015
17500SOL    HW154177   3.919   6.734   4.921 -0.2018  0.1457  0.4461
17500SOL    HW254178   3.897   6.590   4.883 -2.0463  0.4192  0.4013
17501SOL     OW54179   2.540   1.858   6.218 -0.2216  1.0578  0.5703
17501SOL    HW154180   2.618   1.896   6.258  0.4737 -0.2333  0.4589
17501SOL    HW254181   2.548   1.879   6.125 -0.3963  1.5856  0.6723
17502SOL     OW54182   4.955   6.490   4.259 -0.5668 -0.6361 -0.0666
17502SOL    HW154183   4.963   6.525   4.348 -2.6382 -1.3156  0.4092
17502SOL    HW254184   5.028   6.428   4.252 -0.0031 -0.1116  0.9193
17503SOL     OW54185   8.947   6.096   0.646 -0.7740 -0.2720  0.1057
17503SOL    HW154186   9.038   6.075   0.625 -0.4400  0.7225  0.5274
17503SOL    HW254187   8.953   6.162   0.715 -1.8452 -1.4826  1.3589
17504SOL     OW54188   8.746   7.884   2.191  0.2668 -0.3239  0.2025
17504SOL    HW154189   8.726   7.791   2.204  1.2921 -0.6643 -0.5086
17504SOL    HW254190   8.714   7.928   2.269 -1.0241 -1.1671  0.1505
17505SOL     OW54191   0.165   1.539   2.671 -0.5075 -0.1469  0.0853
17505SOL    HW154192   0.199   1.546   2.582  0.3378 -0.4649  0.3801
17505SOL    HW254193   0.196   1.454   2.702  0.5820  0.6527  1.2587
17506SOL     OW54194   2.087   3.118   4.090  0.5888 -0.4333  0.4701
17506SOL    HW154195   2.071   3.174   4.014 -0.6399 -0.7419  0.4961
17506SOL    HW254196   2.116   3.034   4.052  2.5585  0.2221  0.4345
17507SOL     OW54197   3.185   8.746   5.748 -0.6081 -0.4303  0.4631
17507SOL    HW154198   3.169   8.652   5.746 -0.5709 -0.4719  1.6265
17507SOL    HW254199   3.105   8.783   5.786  0.8696 -0.3832  3.7187
17508SOL     OW54200   6.586   4.915   8.060  0.3150 -0.1471 -0.1162
17508SOL    HW154201   6.602   5.003   8.025 -0.7537 -0.7182 -2.0650
17508SOL    HW254202   6.670   4.890   8.100  0.5616  1.8355  0.7013
17509SOL     OW54203   5.939   2.554   0.362 -0.3037 -0.4288  0.1792
17509SOL    HW154204   5.912   2.630   0.311 -0.6706 -1.2964 -0.9435
17509SOL    HW254205   5.993   2.503   0.302 -1.1699 -1.7177  0.4738
17510SOL     OW54206   5.630   8.570   3.610  0.1230 -0.2494 -0.2027
17510SOL    HW154207   5.605   8.654   3.650 -0.1182 -0.6641  0.5172
17510SOL    HW254208   5.587   8.504   3.663  0.3957 -0.8420 -0.7129
17511SOL     OW54209   1.992   4.506   5.001  0.5362 -0.2843 -0.1281
17511SOL    HW154210   2.032   4.491   5.087 -0.0477 -1.7794 -0.1085
17511SOL    HW254211   2.054   4.562   4.955  1.0443  0.1933  1.1239
17512SOL     OW54212   6.563   8.247   1.781  0.0332  0.0070  0.0973
17512SOL    HW154213   6.543   8.340   1.774 -0.8617 -0.1696  0.2398
17512SOL    HW254214   6.545   8.226   1.873  2.8224  0.2855  0.7366
17513SOL     OW54215   5.364   1.170   5.586 -0.3114 -0.6516 -0.0397
17513SOL    HW154216   5.359   1.194   5.494 -0.4074 -0.7173 -0.0516
17513SOL    HW254217   5.383   1.252   5.632 -0.5027 -0.5765 -0.0939
17514SOL     OW54218   1.521   8.619   9.089  0.1628  0.2786 -0.6423
17514SOL    HW154219   1.469   8.539   9.077 -0.0839  0.3201  0.1651
17514SOL    HW254220   1.560   8.609   9.176  0.0974  1.0660 -0.5260
17515SOL     OW54221   7.338   2.229   8.979  0.1573 -0.2423  0.0911
17515SOL    HW154222   7.251   2.202   9.007  0.1564  0.8649  1.2037
17515SOL    HW254223   7.339   2.212   8.885 -1.3721  0.0320  0.0093
17516SOL     OW54224   3.131   8.807   4.754  0.7834  0.0465  0.0176
17516SOL    HW154225   3.068   8.736   4.765 -0.7563  1.0542 -1.9519
17516SOL    HW254226   3.206   8.782   4.808  0.7162 -3.5562 -1.4559
17517SOL     OW54227   6.442   3.283   7.995  0.0264 -0.2073  0.1910
17517SOL    HW154228   6.405   3.235   7.921  0.3169 -0.0894 -0.0329
17517SOL    HW254229   6.533   3.255   7.999  0.3859  0.8724 -0.3957
17518SOL     OW54230   5.771   3.265   8.149 -0.1017 -0.3314 -0.0880
17518SOL    HW154231   5.786   3.178   8.184  1.2392  0.4954  1.4651
17518SOL    HW254232   5.822   3.268   8.068 -2.5557 -1.9724 -1.7671
17519SOL     OW54233   8.971   1.522   7.961 -0.8414 -0.7961 -0.1972
17519SOL    HW154234   9.013   1.453   8.012  0.3144 -0.7063 -0.9988
17519SOL    HW254235   8.960   1.594   8.023  1.7577 -0.2108 -0.3688
17520SOL     OW54236   2.718   1.258   0.888  0.2647  0.6047  0.4141
17520SOL    HW154237   2.705   1.254   0.982  0.3808  1.4461  0.4702
17520SOL    HW254238   2.700   1.169   0.857  0.6208  0.2318  1.2714
17521SOL     OW54239   5.245   5.000   8.989  0.2674 -0.1454  0.2604
17521SOL    HW154240   5.203   4.914   8.998 -1.4298  0.4482 -1.4267
17521SOL    HW254241   5.282   5.019   9.075 -0.3829 -2.0425  0.9745
17522SOL     OW54242   5.133   1.765   3.661  0.0783  0.4959 -0.4140
17522SOL    HW154243   5.176   1.717   3.732  0.5825  0.8745 -0.4594
17522SOL    HW254244   5.203   1.783   3.599 -0.2540  0.6540 -0.7402
17523SOL     OW54245   4.680   3.115   0.001  0.2051  0.2646  0.3971
17523SOL    HW154246   4.742   3.042  -0.011 -1.5057 -1.0723 -0.5406
17523SOL    HW254247   4.711   3.160   0.080  0.7408 -2.0582  1.5589
17524SOL     OW54248   2.848   3.171   0.030  0.3173  0.1463  0.3978
17524SOL    HW154249   2.857   3.176   0.125  1.1090 -3.5831  0.6304
17524SOL    HW254250   2.936   3.187  -0.003  0.3434 -0.0102  0.3911
17525SOL     OW54251   0.209   3.503   4.823  0.0069 -0.1988 -0.2954
17525SOL    HW154252   0.160   3.574   4.782 -2.4426 -2.1082 -0.8139
17525SOL    HW254253   0.156   3.425   4.806  2.0765 -1.9783  1.1941
17526SOL     OW54254   8.785   6.444   5.352  0.0862 -0.1567 -0.0640
17526SOL    HW154255   8.870   6.476   5.381 -0.7506  0.4739  1.8267
17526SOL    HW254256   8.791   6.439   5.257  1.8723  0.9068 -0.0206
17527SOL     OW54257   8.164   0.043   1.067  0.2330 -0.1179 -0.4683
17527SOL    HW154258   8.136  -0.025   1.006 -1.4584  0.2467 -0.1239
17527SOL    HW254259   8.155   0.002   1.154  0.9334 -0.0570 -0.3695
17528SOL     OW54260   3.922   4.247   7.788  0.2909 -0.7520 -0.7176
17528SOL    HW154261   4.014   4.257   7.810  0.0058  1.5745 -0.3997
17528SOL    HW254262   3.876   4.261   7.871 -0.3612 -2.1777 -0.8126
17529SOL     OW54263   6.291   6.316   0.296  0.5773 -0.5673 -0.2878
17529SOL    HW154264   6.327   6.405   0.299 -1.5953  0.3647 -0.5034
17529SOL    HW254265   6.258   6.301   0.385  0.7461 -1.0741 -0.3093
17530SOL     OW54266   2.547   4.226   4.876 -0.3237 -0.0686 -0.2360
17530SOL    HW154267   2.635   4.198   4.850 -1.0063 -2.1064 -0.4600
17530SOL    HW254268   2.491   4.197   4.805 -1.4940 -0.9284  1.0138
17531SOL     OW54269   4.533   6.772   9.024 -0.3144  0.4708 -0.6629
17531SOL    HW154270   4.488   6.713   8.963 -0.8044  0.2699 -0.1083
17531SOL    HW254271   4.606   6.807   8.973 -0.4072 -0.1048 -1.2001
17532SOL     OW54272   7.626   8.449   0.612  0.1950  0.1787  0.1009
17532SOL    HW154273   7.594   8.539   0.615  1.3129  0.5964 -0.3029
17532SOL    HW254274   7.719   8.457   0.590  0.6714 -1.0065  1.5856
17533SOL     OW54275   1.193   0.941   4.962  0.0444 -0.4451  0.1601
17533SOL    HW154276   1.216   1.030   4.934  0.1859  0.1916  2.2766
17533SOL    HW254277   1.135   0.909   4.892 -0.4890  1.5238 -0.3323
17534SOL     OW54278   8.622   4.301   6.632 -0.1235 -0.2289  0.5866
17534SOL    HW154279   8.558   4.260   6.689 -0.1421  1.1347  1.5933
17534SOL    HW254280   8.707   4.283   6.674  0.1937 -2.1419 -0.8115
17535SOL     OW54281   8.856   9.060   6.977 -0.1961  0.2215 -0.4480
17535SOL    HW154282   8.842   9.058   6.883  0.2595 -1.6116 -0.4932
17535SOL    HW254283   8.888   8.972   6.999 -0.0114  0.7147  1.3636
17536SOL     OW54284   1.178   9.150   7.572 -0.1293  0.3240 -0.0615
17536SOL    HW154285   1.087   9.148   7.601 -0.5080 -0.3611 -1.2472
17536SOL    HW254286   1.226   9.187   7.645 -1.4194  1.0506  0.4263
17537SOL     OW54287   1.236   9.191   1.511 -0.3699 -0.0334 -0.0541
17537SOL    HW154288   1.149   9.230   1.518 -0.1401  0.5312 -0.3321
17537SOL    HW254289   1.292   9.247   1.565 -0.5204 -1.4327  1.5864
17538SOL     OW54290   7.917   2.507   1.176  0.1291  0.0381 -0.0096
17538SOL    HW154291   7.969   2.492   1.255 -0.7977  1.1453  0.8135
17538SOL    HW254292   7.835   2.461   1.193  0.0470  0.0166 -0.4654
17539SOL     OW54293   3.012   8.102   4.826 -0.2263 -0.2213 -0.8580
17539SOL    HW154294   3.010   8.006   4.823 -0.2815 -0.2755  0.6493
17539SOL    HW254295   2.923   8.127   4.850 -0.2060  0.2107 -1.2334
17540SOL     OW54296   5.830   5.845   8.020 -0.0610  0.0355 -0.6896
17540SOL    HW154297   5.841   5.801   8.104  0.0229 -0.0848 -0.7653
17540SOL    HW254298   5.837   5.939   8.042 -0.3635  0.0182 -0.5140
17541SOL     OW54299   8.602   2.862   8.171  0.4577 -0.2972 -0.1775
17541SOL    HW154300   8.556   2.945   8.171  0.4570 -0.2820  0.8692
17541SOL    HW254301   8.683   2.878   8.123 -1.1384 -0.6351 -3.0578
17542SOL     OW54302   0.732   1.243   5.868  0.1025  0.6799 -0.3897
17542SOL    HW154303   0.772   1.163   5.903  1.4239  0.0710 -3.1747
17542SOL    HW254304   0.646   1.216   5.838  0.3794  0.3762 -0.9241
17543SOL     OW54305   1.228   8.479   0.827 -0.0142 -0.1824  0.1035
17543SOL    HW154306   1.257   8.387   0.827  0.0732 -0.1548  0.5832
17543SOL    HW254307   1.245   8.510   0.916  2.5367  1.1080 -0.7858
17544SOL     OW54308   0.478   5.698   7.632 -0.0496 -0.5115 -0.2837
17544SOL    HW154309   0.517   5.713   7.718 -1.1808 -0.8991  0.2997
17544SOL    HW254310   0.476   5.784   7.591  0.8962 -0.3957 -0.1049
17545SOL     OW54311   6.201   6.751   2.120  0.0953  0.0683 -0.4161
17545SOL    HW154312   6.184   6.838   2.085  2.0769 -0.2358 -2.2430
17545SOL    HW254313   6.184   6.691   2.047 -1.1638 -1.0898  0.7885
17546SOL     OW54314   8.829   8.475   0.318 -0.0562 -0.7208  0.5082
17546SOL    HW154315   8.815   8.497   0.226 -2.4388  3.2817  1.7098
17546SOL    HW254316   8.752   8.424   0.343 -0.8386  0.6481  0.9610
17547SOL     OW54317   2.179   4.114   3.277 -0.6030  0.3915  0.4961
17547SOL    HW154318   2.117   4.046   3.302  0.8091 -0.7188  1.0271
17547SOL    HW254319   2.167   4.124   3.182 -0.2686 -1.1795  0.2731
17548SOL     OW54320   4.110   2.738   4.735 -0.1701 -0.3392  0.2700
17548SOL    HW154321   4.194   2.777   4.759 -0.4916  0.4236  0.1886
17548SOL    HW254322   4.054   2.753   4.812 -1.1298  1.8930 -0.8168
17549SOL     OW54323   8.938   3.405   4.595 -0.7698  0.4565  0.3233
17549SOL    HW154324   8.942   3.418   4.501 -1.9120 -0.8739  0.0705
17549SOL    HW254325   8.888   3.325   4.606  1.4698 -0.7787  1.9851
17550SOL     OW54326   4.932   3.522   3.311 -0.1417  0.4132 -0.2042
17550SOL    HW154327   4.877   3.515   3.389 -0.9820  1.2051 -0.7301
17550SOL    HW254328   4.965   3.433   3.297 -1.4184 -0.1024  0.0087
17551SOL     OW54329   6.604   1.389   1.988 -0.5723  0.2259 -0.0687
17551SOL    HW154330   6.526   1.333   1.984 -0.8618  0.7096 -1.8224
17551SOL    HW254331   6.572   1.472   2.024 -0.5170 -0.1124  0.7764
17552SOL     OW54332   7.887   7.365   3.546 -0.0986  0.0360 -0.0805
17552SOL    HW154333   7.815   7.374   3.484  1.0107 -0.0674 -1.4051
17552SOL    HW254334   7.912   7.273   3.542 -0.7832 -0.2154  1.3889
17553SOL     OW54335   2.103   0.405   1.599 -0.1200 -0.4044 -0.2901
17553SOL    HW154336   2.039   0.352   1.552  0.0321 -0.6342 -0.2360
17553SOL    HW254337   2.138   0.346   1.666  0.1878 -0.2918 -0.3535
17554SOL     OW54338   0.528   4.828   0.529 -0.8909  0.2210  0.0069
17554SOL    HW154339   0.613   4.804   0.492 -1.9729 -0.8386 -1.8869
17554SOL    HW254340   0.547   4.854   0.619  1.2799 -1.1488 -0.0234
17555SOL     OW54341   9.120   2.605   4.498 -0.5049  0.1119 -1.3327
17555SOL    HW154342   9.097   2.694   4.469 -1.3037 -0.1032 -1.3572
17555SOL    HW254343   9.169   2.569   4.424  0.6662  0.8725 -0.9386
17556SOL     OW54344   4.913   6.352   2.458  0.1099 -0.2143 -0.3643
17556SOL    HW154345   4.834   6.341   2.511  0.0896 -0.1892 -0.3900
17556SOL    HW254346   4.985   6.329   2.518  0.0791 -0.3036 -0.3610
17557SOL     OW54347   0.360   1.480   3.162 -0.0345 -0.3353  0.0950
17557SOL    HW154348   0.284   1.423   3.162 -0.1997 -0.1162  0.2516
17557SOL    HW254349   0.375   1.501   3.070 -2.2686  2.4099  0.2729
17558SOL     OW54350   7.196   2.620   0.251 -0.2318  0.0628  0.0896
17558SOL    HW154351   7.152   2.660   0.176 -0.1062 -1.7491 -1.0030
17558SOL    HW254352   7.161   2.531   0.254 -0.3927  0.1692  2.3414
17559SOL     OW54353   1.530   0.820   1.868  0.2940  0.6913  0.6613
17559SOL    HW154354   1.558   0.823   1.777 -1.2426  1.9198  0.2269
17559SOL    HW254355   1.612   0.822   1.918  1.1338  0.0540 -0.6778
17560SOL     OW54356   4.328   7.639   2.700  0.2033 -0.1642 -0.2142
17560SOL    HW154357   4.369   7.565   2.745  0.6830  0.2861  0.1048
17560SOL    HW254358   4.241   7.608   2.676  0.5450 -0.9639 -0.4417
17561SOL     OW54359   7.376   1.740   7.067  0.6048 -0.3854 -0.4877
17561SOL    HW154360   7.437   1.735   6.993  1.4668 -0.9656  0.2473
17561SOL    HW254361   7.423   1.791   7.133  1.5775 -3.4426  1.2754
17562SOL     OW54362   6.011   2.507   9.099  0.3738 -0.1757 -0.0457
17562SOL    HW154363   6.017   2.544   9.187 -0.7726 -0.3654  0.1098
17562SOL    HW254364   6.046   2.418   9.108  0.7542 -0.0152  0.1004
17563SOL     OW54365   3.465   5.076   4.603  0.1993  0.1409  0.3872
17563SOL    HW154366   3.401   5.095   4.534 -0.0687 -0.7337  0.3834
17563SOL    HW254367   3.517   5.156   4.611  0.5669  0.0684 -1.1806
17564SOL     OW54368   4.684   6.821   1.780 -0.4790  0.2884  0.0620
17564SOL    HW154369   4.758   6.869   1.744  0.7864 -1.4491  0.2816
17564SOL    HW254370   4.614   6.886   1.788  1.4976  2.3267  1.3039
17565SOL     OW54371   3.800   4.203   6.782 -0.2779  0.6501 -0.0866
17565SOL    HW154372   3.839   4.139   6.722 -1.7761  0.8626 -1.3160
17565SOL    HW254373   3.727   4.156   6.822  1.0942  0.3104  2.0631
17566SOL     OW54374   0.264   1.820   8.757  0.2157 -0.2328 -0.2246
17566SOL    HW154375   0.342   1.768   8.736  1.0150  0.3098  1.2861
17566SOL    HW254376   0.241   1.792   8.846  0.7513  2.0576  0.6744
17567SOL     OW54377   4.449   7.184   2.377 -0.7357 -0.4427 -0.1328
17567SOL    HW154378   4.356   7.205   2.387 -1.0122 -1.4354 -0.5775
17567SOL    HW254379   4.489   7.266   2.349 -1.6116 -0.2029 -0.6969
17568SOL     OW54380   2.050   8.545   2.958  0.3613  0.2214  0.1711
17568SOL    HW154381   2.091   8.629   2.939 -1.3286  0.6493 -1.7942
17568SOL    HW254382   2.123   8.487   2.980  1.5594  2.1119  1.2888
17569SOL     OW54383   0.278   0.239   4.720  0.6777 -0.1925  0.1615
17569SOL    HW154384   0.276   0.327   4.756  2.7270 -0.2796  0.5399
17569SOL    HW254385   0.282   0.181   4.796  1.3109 -0.5280 -0.1211
17570SOL     OW54386   6.020   4.878   3.871  0.5745 -1.0185  0.1232
17570SOL    HW154387   6.047   4.969   3.856 -0.5567 -0.5479  0.8836
17570SOL    HW254388   6.096   4.826   3.845  2.1118  0.2516  1.8993
17571SOL     OW54389   3.078   0.575   7.399 -0.0114  0.2399 -0.8759
17571SOL    HW154390   3.108   0.484   7.393  0.6414  0.4673 -1.1795
17571SOL    HW254391   3.144   0.624   7.350 -0.1219  0.9289 -0.3311
17572SOL     OW54392   2.613   3.662   1.916 -0.2730  0.4662  0.0712
17572SOL    HW154393   2.536   3.654   1.859  0.6387  0.9205 -1.2363
17572SOL    HW254394   2.648   3.749   1.897  1.7931 -0.5442 -0.8989
17573SOL     OW54395   3.392   8.951   0.906 -0.6023 -0.5615 -0.4783
17573SOL    HW154396   3.430   8.924   0.822 -3.8095 -1.1296 -1.8397
17573SOL    HW254397   3.383   8.870   0.955  0.8280 -0.2956  0.2219
17574SOL     OW54398   0.995   7.547   1.468 -0.6232 -0.3134  0.0968
17574SOL    HW154399   1.033   7.609   1.530  0.0193 -0.9744  0.3681
17574SOL    HW254400   0.901   7.550   1.485 -0.4042 -0.8729  1.4670
17575SOL     OW54401   1.909   0.758   6.359  0.2696 -0.1892 -0.2837
17575SOL    HW154402   1.855   0.680   6.347  1.3716 -1.0360  0.0807
17575SOL    HW254403   1.906   0.803   6.274 -1.5486  0.1557 -0.0530
17576SOL     OW54404   1.289   2.322   6.126 -0.8065 -0.1319 -0.4432
17576SOL    HW154405   1.197   2.350   6.136 -0.4212  1.3405 -0.8866
17576SOL    HW254406   1.330   2.346   6.209 -0.4209  0.8196 -0.9104
17577SOL     OW54407   8.654   1.861   1.535  0.2234  0.3859  0.2669
17577SOL    HW154408   8.684   1.936   1.483 -0.3639  0.0775 -0.5279
17577SOL    HW254409   8.727   1.799   1.532 -0.0404  0.1108 -0.7164
17578SOL     OW54410   0.708   1.471   1.287 -0.5934  0.1770  0.0544
17578SOL    HW154411   0.803   1.482   1.288 -0.7512  1.7381  0.3954
17578SOL    HW254412   0.675   1.554   1.251 -1.8640 -0.0155  0.7384
17579SOL     OW54413   9.160   3.939   7.456  0.2536  0.6100  0.3596
17579SOL    HW154414   9.104   3.884   7.400  0.6922 -0.0811  0.5941
17579SOL    HW254415   9.161   3.893   7.540  2.8502 -0.5086 -0.2281
17580SOL     OW54416   8.332   4.020   4.143  0.0436 -0.0553  0.2633
17580SOL    HW154417   8.333   4.020   4.238  0.4830  1.6143  0.2829
17580SOL    HW254418   8.397   3.955   4.118  2.2824  1.7494  1.1592
17581SOL     OW54419   1.631   0.883   8.740 -0.3626  0.3926 -0.0621
17581SOL    HW154420   1.712   0.833   8.728 -1.8280 -1.8234 -1.0914
17581SOL    HW254421   1.633   0.948   8.671  1.3275  1.4692  0.9613
17582SOL     OW54422   6.346   3.418   2.465 -0.2009 -0.1201 -0.2171
17582SOL    HW154423   6.365   3.476   2.538  1.2318 -0.2286 -0.4758
17582SOL    HW254424   6.346   3.330   2.502  0.3191 -0.1590 -0.3081
17583SOL     OW54425   2.970   4.982   0.984  0.2436 -0.3355  0.3933
17583SOL    HW154426   3.040   5.011   0.926  0.1925  0.5076  0.7483
17583SOL    HW254427   2.893   4.978   0.927  0.3814 -0.3707  0.2085
17584SOL     OW54428   8.051   1.664   4.713 -0.0136 -0.0713 -0.2138
17584SOL    HW154429   7.985   1.602   4.681 -0.7923  0.5193  0.2255
17584SOL    HW254430   8.002   1.744   4.730  0.4158 -0.2599  2.1413
17585SOL     OW54431   5.959   1.905   4.849  0.3686  0.5989 -0.0832
17585SOL    HW154432   5.874   1.870   4.823  1.2076 -0.7441 -1.0727
17585SOL    HW254433   5.938   1.982   4.901 -1.4330  1.3363 -1.8243
17586SOL     OW54434   0.581   8.475   7.631  0.5664  0.6096  0.1394
17586SOL    HW154435   0.614   8.420   7.560  0.9247  0.2149  0.6095
17586SOL    HW254436   0.602   8.427   7.710 -1.5270  0.1417  0.4439
17587SOL     OW54437   7.327   8.612   1.662  0.4305 -0.1729  0.2073
17587SOL    HW154438   7.245   8.594   1.709 -0.4601 -1.7371 -1.8876
17587SOL    HW254439   7.387   8.643   1.730 -2.0678  1.5755  1.6965
17588SOL     OW54440   8.675   0.353   5.491 -0.2986  0.4846 -0.2456
17588SOL    HW154441   8.605   0.418   5.484  0.3694  1.0676 -1.5676
17588SOL    HW254442   8.699   0.334   5.401  1.9887  1.1038  0.2078
17589SOL     OW54443   7.136   1.749   7.366 -0.1006  0.3124 -0.0770
17589SOL    HW154444   7.177   1.820   7.318 -1.7983  1.3943  0.0489
17589SOL    HW254445   7.087   1.700   7.300  1.6885 -1.2064 -0.2975
17590SOL     OW54446   4.314   2.634   6.389 -0.3064 -0.1492  0.3086
17590SOL    HW154447   4.262   2.625   6.309  0.8695  0.7585 -0.5910
17590SOL    HW254448   4.276   2.572   6.451 -1.8553 -0.1477 -0.6357
17591SOL     OW54449   5.537   7.297   5.646  0.0360 -0.6792  0.1005
17591SOL    HW154450   5.533   7.377   5.593 -0.5077 -1.3371 -0.8635
17591SOL    HW254451   5.627   7.294   5.677  0.2116  0.0255 -0.3148
17592SOL     OW54452   5.749   1.325   7.473 -0.6576 -0.2864  0.1149
17592SOL    HW154453   5.719   1.315   7.563 -1.6695 -0.6342 -0.2634
17592SOL    HW254454   5.795   1.410   7.473  0.8155 -1.0536  1.3468
17593SOL     OW54455   9.227   8.410   0.189  0.5573  0.0593  0.8369
17593SOL    HW154456   9.311   8.415   0.235  1.2658  0.6678 -0.4795
17593SOL    HW254457   9.163   8.446   0.251  1.1929 -0.7935  2.0013
17594SOL     OW54458   0.389   1.169   3.528 -0.3933  0.1721 -0.4215
17594SOL    HW154459   0.343   1.251   3.509  0.8887  0.8156 -0.7783
17594SOL    HW254460   0.440   1.188   3.607 -0.6308 -0.4992 -0.1024
17595SOL     OW54461   4.615   2.016   5.099  0.4686  0.4135  0.3115
17595SOL    HW154462   4.568   2.041   5.178  0.7692 -0.6933  0.8533
17595SOL    HW254463   4.582   2.075   5.031  0.0635  1.2382  1.2128
17596SOL     OW54464   5.796   1.899   5.961  0.6381  0.7540 -0.2522
17596SOL    HW154465   5.757   1.930   5.880  1.4433  0.1303 -0.8915
17596SOL    HW254466   5.725   1.902   6.025 -0.1527  0.6938 -1.1236
17597SOL     OW54467   4.027   9.122   6.170  0.4175 -0.3518  0.2930
17597SOL    HW154468   3.976   9.047   6.201  0.7073 -0.7784 -0.2469
17597SOL    HW254469   4.077   9.088   6.096 -1.0631  0.8966 -1.3338
17598SOL     OW54470   5.001   8.039   1.930 -0.2961  0.3964 -0.1988
17598SOL    HW154471   4.911   8.008   1.921 -0.1778 -0.4107  1.1700
17598SOL    HW254472   5.055   7.967   1.895 -0.1810  0.8360 -0.9272
17599SOL     OW54473   0.999   7.036   3.929  0.2073  0.4868  0.0890
17599SOL    HW154474   1.008   7.005   3.839 -2.4104  1.9236 -0.7211
17599SOL    HW254475   0.908   7.021   3.950  0.4235  1.6651  1.9374
17600SOL     OW54476   0.496   0.316   6.307  0.2248  0.1033  0.3504
17600SOL    HW154477   0.562   0.371   6.350  0.8178  0.8321 -1.4328
17600SOL    HW254478   0.537   0.289   6.225 -0.4658 -2.1819  0.7359
17601SOL     OW54479   5.643   2.799   8.832  0.1582  0.3630  0.0622
17601SOL    HW154480   5.732   2.829   8.811  0.0366 -0.7816 -2.2250
17601SOL    HW254481   5.657   2.717   8.880  0.3395  0.8340  0.8358
17602SOL     OW54482   2.811   0.203   5.945 -0.2853 -0.7897 -0.5217
17602SOL    HW154483   2.805   0.115   5.983  1.6679 -0.5267  0.4995
17602SOL    HW254484   2.770   0.195   5.860  0.5527 -2.9229 -0.7760
17603SOL     OW54485   3.899   6.239   3.503 -0.4166  0.7958  0.2700
17603SOL    HW154486   3.950   6.215   3.580 -0.3698  2.5357  0.8013
17603SOL    HW254487   3.932   6.183   3.433 -0.4433 -0.7899  1.4929
17604SOL     OW54488   4.691   5.788   5.577 -0.1409  0.4968  1.0070
17604SOL    HW154489   4.753   5.801   5.649 -0.1125  0.6641  0.9530
17604SOL    HW254490   4.679   5.875   5.540 -0.0770  0.3935  0.7418
17605SOL     OW54491   7.369   4.839   3.860 -0.4773  0.0800 -0.2597
17605SOL    HW154492   7.457   4.876   3.857  0.2230 -1.6378 -3.5819
17605SOL    HW254493   7.373   4.774   3.930  0.3097  1.3842  0.9191
17606SOL     OW54494   1.085   1.277   7.980 -0.0127 -0.4226 -0.5887
17606SOL    HW154495   1.053   1.259   7.892  0.8787  3.5655 -1.8453
17606SOL    HW254496   1.177   1.252   7.978 -0.1333 -0.8627 -0.6146
17607SOL     OW54497   1.695   4.811   0.980 -0.4931 -0.2319  0.4213
17607SOL    HW154498   1.600   4.824   0.981 -0.2441  1.7185 -0.3231
17607SOL    HW254499   1.727   4.860   1.055  0.1080  0.5904 -0.3698
17608SOL     OW54500   7.612   5.929   7.451 -0.4518 -0.4566 -1.1570
17608SOL    HW154501   7.658   5.887   7.524 -2.9666 -1.1507  0.0895
17608SOL    HW254502   7.528   5.883   7.446 -1.4304  1.4292 -2.7342
17609SOL     OW54503   2.579   6.111   2.912  0.1154  0.2773 -0.0164
17609SOL    HW154504   2.559   6.191   2.864  0.6537 -0.2687 -1.1909
17609SOL    HW254505   2.671   6.120   2.938 -0.5128  1.1078  2.0276
17610SOL     OW54506   2.552   4.589   1.797 -0.1283  0.0139 -0.2713
17610SOL    HW154507   2.628   4.581   1.740 -0.3406 -0.0728 -0.5474
17610SOL    HW254508   2.479   4.607   1.737 -0.2096  0.7636  0.0509
17611SOL     OW54509   9.169   4.686   8.055 -0.8861  0.0425 -0.0031
17611SOL    HW154510   9.134   4.705   8.142 -0.2477 -1.2574  0.5515
17611SOL    HW254511   9.116   4.613   8.024 -1.0528  0.4489 -0.6706
17612SOL     OW54512   0.870   3.523   8.807  0.2428  0.2384  0.5089
17612SOL    HW154513   0.925   3.470   8.865 -0.0347  0.5915  1.1046
17612SOL    HW254514   0.782   3.516   8.845 -0.1568 -0.4653 -0.5382
17613SOL     OW54515   4.529   6.180   8.991 -0.1603 -0.2268 -0.2902
17613SOL    HW154516   4.497   6.198   8.902 -1.3074  1.1634  0.3857
17613SOL    HW254517   4.610   6.231   8.998 -0.9200  0.9628 -0.0019
17614SOL     OW54518   0.933   5.550   8.562 -0.3919 -0.3898 -0.1475
17614SOL    HW154519   1.019   5.591   8.550  0.0240 -0.8017  1.2562
17614SOL    HW254520   0.880   5.582   8.490  0.4945  1.0921 -0.1478
17615SOL     OW54521   3.185   2.244   8.566  0.0225 -0.6544 -0.3915
17615SOL    HW154522   3.269   2.202   8.548  1.9139  1.8165  2.2371
17615SOL    HW254523   3.175   2.240   8.661 -1.1167  2.1182 -0.3235
17616SOL     OW54524   8.615   4.820   7.689  0.5146 -0.1474 -0.5932
17616SOL    HW154525   8.645   4.729   7.679 -0.0411 -0.3409 -0.5218
17616SOL    HW254526   8.603   4.831   7.783 -4.3372 -1.6339 -0.8813
17617SOL     OW54527   5.547   2.713   3.321  0.2014  0.3728  0.1119
17617SOL    HW154528   5.632   2.671   3.331  0.0612  0.4546  1.8393
17617SOL    HW254529   5.536   2.764   3.402 -1.6862 -0.0065  0.1270
17618SOL     OW54530   4.054   7.458   8.312  0.6516 -0.0341 -0.1617
17618SOL    HW154531   3.964   7.457   8.346  0.8064  1.2047  0.3017
17618SOL    HW254532   4.071   7.549   8.291  1.2243 -0.5140 -1.8596
17619SOL     OW54533   9.184   3.951   6.262  0.0707 -0.4539  0.1016
17619SOL    HW154534   9.161   3.959   6.355  0.4075  0.6050  0.1083
17619SOL    HW254535   9.248   3.880   6.259 -0.3085 -0.8198  0.6152
17620SOL     OW54536   4.730   7.813   7.934 -0.4556 -0.5728 -0.0123
17620SOL    HW154537   4.646   7.856   7.919 -0.7309 -0.3931  1.8908
17620SOL    HW254538   4.753   7.835   8.025  1.8706 -0.2406 -0.6468
17621SOL     OW54539   4.287   6.873   5.003 -0.2320 -0.2192  0.8442
17621SOL    HW154540   4.315   6.797   4.952 -1.4960  0.3363 -0.7318
17621SOL    HW254541   4.227   6.837   5.068 -2.7099 -0.3654 -1.3889
17622SOL     OW54542   1.041   5.519   5.557 -0.1798  0.0756  0.4088
17622SOL    HW154543   1.045   5.550   5.467 -1.6288  0.8483  0.5924
17622SOL    HW254544   0.950   5.532   5.583 -0.1810 -1.7399  1.4245
17623SOL     OW54545   1.944   0.258   2.327 -0.0300  0.3361 -0.7192
17623SOL    HW154546   1.939   0.190   2.394  2.5219  3.4934  2.9345
17623SOL    HW254547   1.853   0.276   2.303 -0.9938 -1.0993  1.7401
17624SOL     OW54548   5.022   5.993   4.704 -0.0288  0.4569  0.4655
17624SOL    HW154549   4.961   6.015   4.633  1.1104  0.9084 -0.3919
17624SOL    HW254550   5.050   6.078   4.738  0.6074  0.2645  0.4278
17625SOL     OW54551   6.875   2.808   7.051 -0.2036 -0.4180 -0.1834
17625SOL    HW154552   6.888   2.842   6.962  1.6509  0.8857  0.5560
17625SOL    HW254553   6.928   2.729   7.055  1.7677  0.9052  0.5297
17626SOL     OW54554   0.971   6.134   6.097  0.3727  0.5316 -0.2453
17626SOL    HW154555   0.944   6.166   6.183  2.0289  0.1113  0.4646
17626SOL    HW254556   1.001   6.212   6.051  0.8921  0.5562  0.1221
17627SOL     OW54557   1.898   0.382   0.783  0.7132  0.3939  0.0897
17627SOL    HW154558   1.930   0.435   0.856 -0.9616  0.7729  0.5724
17627SOL    HW254559   1.834   0.438   0.739 -0.4019 -0.8872  0.0543
17628SOL     OW54560   5.474   3.080   3.035  0.2843  0.1963 -0.0404
17628SOL    HW154561   5.558   3.085   3.081  0.3594  0.2994 -0.1878
17628SOL    HW254562   5.470   3.161   2.984  0.3926 -0.1056 -0.5402
17629SOL     OW54563   6.959   6.123   6.451  0.2697 -0.7879  0.4463
17629SOL    HW154564   6.969   6.053   6.515  1.1161 -0.3703  0.7741
17629SOL    HW254565   7.022   6.189   6.477 -1.0281  0.4297  0.5578
17630SOL     OW54566   4.377   4.557   4.346 -0.1204 -0.3454  0.1425
17630SOL    HW154567   4.384   4.499   4.271 -0.5190 -0.5070  0.2352
17630SOL    HW254568   4.406   4.504   4.420 -2.1251 -0.9615  0.5036
17631SOL     OW54569   1.337   0.538   5.881 -0.1578  0.1473 -0.3875
17631SOL    HW154570   1.361   0.448   5.904 -1.3293 -0.0793 -0.0148
17631SOL    HW254571   1.333   0.538   5.785 -1.3110 -0.5168 -0.3508
17632SOL     OW54572   3.227   1.874   4.776 -0.0641 -0.1895  0.0717
17632SOL    HW154573   3.142   1.908   4.801 -0.6027 -2.3419  1.2441
17632SOL    HW254574   3.283   1.888   4.853 -0.2522 -1.7490  0.5150
17633SOL     OW54575   3.867   8.057   8.977  0.6346  0.1119 -0.0367
17633SOL    HW154576   3.786   8.036   8.932 -1.1037 -1.8442  3.7170
17633SOL    HW254577   3.870   8.153   8.980 -2.0505  0.2039  0.5939
17634SOL     OW54578   8.291   1.869   9.214  0.1524 -0.1137 -0.0168
17634SOL    HW154579   8.325   1.927   9.281 -0.8111  0.5576 -0.0828
17634SOL    HW254580   8.198   1.861   9.235  0.2898 -1.6864  0.0192
17635SOL     OW54581   7.541   1.898   7.245  0.3715 -0.0835  0.3429
17635SOL    HW154582   7.634   1.894   7.220  0.1525 -0.4388 -0.4216
17635SOL    HW254583   7.541   1.885   7.340  1.3728  3.0372  0.8551
17636SOL     OW54584   3.637   7.847   5.544 -0.2583  0.0505  0.2394
17636SOL    HW154585   3.682   7.763   5.538 -0.0282  0.1190  0.9920
17636SOL    HW254586   3.545   7.824   5.555 -0.3708 -0.0906 -0.9012
17637SOL     OW54587   6.381   7.875   3.386  0.0942 -0.7589  0.0927
17637SOL    HW154588   6.455   7.831   3.428 -0.4795 -1.5901  0.2356
17637SOL    HW254589   6.324   7.901   3.459 -1.7858 -3.7750 -0.2150
17638SOL     OW54590   4.211   2.891   6.667  0.4678 -0.4958  0.1393
17638SOL    HW154591   4.253   2.822   6.718 -0.4764 -0.9188  0.3403
17638SOL    HW254592   4.167   2.946   6.732  0.3544 -0.2894 -0.1107
17639SOL     OW54593   3.499   0.841   8.125 -0.3086  0.2123 -0.6448
17639SOL    HW154594   3.591   0.837   8.153 -0.6448  0.8659  0.6129
17639SOL    HW254595   3.496   0.790   8.044  0.6447 -2.0520  0.6982
17640SOL     OW54596   6.607   8.658   0.056 -0.0467  0.0893 -0.1645
17640SOL    HW154597   6.689   8.656   0.106  0.8342 -0.7735 -1.5994
17640SOL    HW254598   6.543   8.695   0.117  0.8516 -1.4935  1.8111
17641SOL     OW54599   1.947   5.763   5.588  0.2090 -0.3606 -1.1215
17641SOL    HW154600   2.035   5.794   5.611 -0.6374  2.1982 -1.2391
17641SOL    HW254601   1.957   5.725   5.501  1.5950 -2.0329 -0.2892
17642SOL     OW54602   2.687   8.131   4.238 -0.9795 -0.9488  0.3173
17642SOL    HW154603   2.634   8.055   4.212 -2.1250 -1.0005  2.6487
17642SOL    HW254604   2.687   8.188   4.161 -1.7679 -2.4087 -0.7951
17643SOL     OW54605   0.720   6.803   3.183  0.4034 -0.2250  0.0228
17643SOL    HW154606   0.752   6.875   3.238 -1.8885  2.3645 -1.9100
17643SOL    HW254607   0.632   6.786   3.216 -0.0192 -0.3900 -1.1729
17644SOL     OW54608   0.634   8.506   8.557  0.0824 -0.0299  0.0812
17644SOL    HW154609   0.650   8.547   8.472  0.6599 -1.9536 -0.7869
17644SOL    HW254610   0.546   8.535   8.581  0.5517  1.8406 -0.3755
17645SOL     OW54611   4.168   0.526   6.917 -0.0459  0.0171  0.0224
17645SOL    HW154612   4.114   0.560   6.989 -0.7553 -0.4517 -0.2732
17645SOL    HW254613   4.185   0.435   6.941  0.4103  0.0965 -0.0036
17646SOL     OW54614   2.223   4.928   2.468 -0.0181 -0.0268  0.1435
17646SOL    HW154615   2.239   4.930   2.373 -0.8390 -0.1607 -0.0027
17646SOL    HW254616   2.231   4.835   2.491 -2.0086 -0.2942 -0.1886
17647SOL     OW54617   1.636   5.964   8.414 -0.8501 -0.0883 -0.0356
17647SOL    HW154618   1.672   6.040   8.459 -1.5789 -0.2860  0.9225
17647SOL    HW254619   1.596   6.000   8.335 -1.2531  0.5560  0.4430
17648SOL     OW54620   4.060   0.412   3.961  0.1388  0.2833 -0.2469
17648SOL    HW154621   4.072   0.469   3.885  0.8827  0.7421  0.2037
17648SOL    HW254622   4.121   0.340   3.946  0.3106  0.3917 -0.0687
17649SOL     OW54623   2.436   6.524   8.818 -0.0705  0.1456  0.6930
17649SOL    HW154624   2.499   6.596   8.821  0.4733 -0.3622  1.5320
17649SOL    HW254625   2.364   6.558   8.766  0.4939  1.0549  0.4948
17650SOL     OW54626   2.585   6.066   0.099 -0.1546 -0.3852 -0.0506
17650SOL    HW154627   2.676   6.054   0.070  0.0872  0.9777  0.0661
17650SOL    HW254628   2.533   6.013   0.038  0.6574 -0.5000 -0.6587
17651SOL     OW54629   2.848   7.893   7.587 -0.1910 -0.1922  0.0485
17651SOL    HW154630   2.869   7.965   7.647  0.1980  0.7310 -1.1755
17651SOL    HW254631   2.859   7.931   7.500  1.2061 -2.0616 -0.6210
17652SOL     OW54632   8.336   5.767   9.181  0.2898 -0.6012 -0.1097
17652SOL    HW154633   8.265   5.756   9.118 -0.2739 -0.8677  0.5652
17652SOL    HW254634   8.342   5.684   9.227 -0.4708  0.1319  1.3728
17653SOL     OW54635   4.038   0.293   2.114  0.3543 -0.0614 -0.1527
17653SOL    HW154636   4.114   0.245   2.082  0.8449 -0.0953  1.0448
17653SOL    HW254637   4.054   0.304   2.208 -1.2212 -0.2744  0.1556
17654SOL     OW54638   5.622   2.737   1.605  0.1836 -0.4584 -0.0556
17654SOL    HW154639   5.635   2.817   1.553 -0.9327 -0.4822 -0.3884
17654SOL    HW254640   5.563   2.764   1.675 -0.3295 -1.0347 -0.2649
17655SOL     OW54641   2.696   8.147   6.777  0.1726 -0.0551  0.3136
17655SOL    HW154642   2.788   8.169   6.761  0.0708 -0.1969 -0.4975
17655SOL    HW254643   2.652   8.231   6.787  0.6185 -0.0149  2.0543
17656SOL     OW54644   8.115   1.563   8.589  0.0640 -0.0433  0.2354
17656SOL    HW154645   8.172   1.502   8.542 -2.2912  0.3793 -3.4408
17656SOL    HW254646   8.155   1.649   8.575  0.3890 -0.1309  0.6301
17657SOL     OW54647   3.514   2.297   1.077 -0.1674  0.3448 -0.2653
17657SOL    HW154648   3.524   2.260   1.165  0.0378 -0.3520 -0.5799
17657SOL    HW254649   3.592   2.268   1.030 -0.8132 -0.1926 -1.0032
17658SOL     OW54650   7.109   9.017   0.651 -0.3368 -0.5690 -0.6443
17658SOL    HW154651   7.069   8.969   0.579  0.4265 -0.5225 -1.1012
17658SOL    HW254652   7.203   9.018   0.631 -0.1197 -0.5179  0.3171
17659SOL     OW54653   5.742   4.271   1.941 -1.0896 -0.2335  0.3231
17659SOL    HW154654   5.749   4.356   1.898 -0.6038 -0.9220 -1.0083
17659SOL    HW254655   5.725   4.209   1.870 -2.1920 -1.1607  1.3553
17660SOL     OW54656   6.898   7.213   3.787  0.2313 -0.2134 -0.0322
17660SOL    HW154657   6.804   7.204   3.806  0.0445 -0.5064 -1.0573
17660SOL    HW254658   6.942   7.173   3.861 -0.4665 -0.4025  0.2787
17661SOL     OW54659   6.907   8.255   3.162 -0.6803 -0.5206 -0.1009
17661SOL    HW154660   6.823   8.297   3.181 -0.0200  0.1785  1.4434
17661SOL    HW254661   6.935   8.293   3.079 -1.9604 -0.8701 -0.6895
17662SOL     OW54662   7.399   2.627   5.285 -0.8224  0.0896 -0.2154
17662SOL    HW154663   7.420   2.557   5.346 -0.3268  0.8936  0.5608
17662SOL    HW254664   7.351   2.585   5.215 -1.6666 -0.8074  0.8832
17663SOL     OW54665   7.222   0.491   8.181  0.0266  0.1670  0.4834
17663SOL    HW154666   7.215   0.518   8.089 -2.6655  0.8155  0.8335
17663SOL    HW254667   7.228   0.395   8.177  0.9683  0.2520 -0.3974
17664SOL     OW54668   7.822   6.983   2.770  0.8593 -0.3766  0.3969
17664SOL    HW154669   7.832   7.025   2.855 -1.2601 -2.8441  1.8939
17664SOL    HW254670   7.857   6.895   2.781  0.5115 -0.7562 -1.2708
17665SOL     OW54671   2.562   1.298   8.599 -0.1098  0.2123 -0.4133
17665SOL    HW154672   2.511   1.376   8.581 -0.8045 -0.0754  0.2829
17665SOL    HW254673   2.639   1.306   8.543 -0.1468  1.4225 -0.2953
17666SOL     OW54674   0.189   3.047   2.386  0.0437 -0.0793  0.4912
17666SOL    HW154675   0.200   3.111   2.456  2.5132 -0.9538  0.9438
17666SOL    HW254676   0.262   3.062   2.327 -0.9018 -0.6787 -0.8590
17667SOL     OW54677   2.956   2.669   9.110  0.6656  0.6412  0.3174
17667SOL    HW154678   2.965   2.617   9.030  1.0493  0.7430  0.2927
17667SOL    HW254679   2.930   2.606   9.177 -0.0528  0.6197  0.0310
17668SOL     OW54680   3.171   4.360   6.786  0.8934 -0.7054  0.3439
17668SOL    HW154681   3.256   4.404   6.780  0.3704  0.1033 -1.5977
17668SOL    HW254682   3.189   4.270   6.759  1.1343 -0.5224 -0.1111
17669SOL     OW54683   7.682   2.693   3.578  0.4896  0.0199 -0.3422
17669SOL    HW154684   7.757   2.752   3.578  1.3911 -1.1111 -0.8027
17669SOL    HW254685   7.691   2.643   3.659 -0.3751  0.6171  0.1399
17670SOL     OW54686   2.238   6.101   3.624 -1.1050  0.0429  0.3056
17670SOL    HW154687   2.161   6.053   3.593  0.1371 -1.4997 -0.4536
17670SOL    HW254688   2.251   6.171   3.559 -0.1775 -1.4610 -1.1701
17671SOL     OW54689   6.452   6.122   8.399 -0.1482 -0.0206  0.2312
17671SOL    HW154690   6.437   6.179   8.323 -2.7919 -0.0342  0.7006
17671SOL    HW254691   6.432   6.178   8.474 -0.9468 -1.0253  0.7644
17672SOL     OW54692   7.675   3.213   9.208 -0.3015  0.4306 -0.2187
17672SOL    HW154693   7.721   3.218   9.292 -0.4327 -1.5234 -0.0165
17672SOL    HW254694   7.624   3.294   9.205  0.0500  0.7423  1.3668
17673SOL     OW54695   8.829   2.311   4.889 -0.1955 -0.4267 -0.2161
17673SOL    HW154696   8.909   2.319   4.941  1.0163  0.1970 -2.1164
17673SOL    HW254697   8.801   2.221   4.902 -0.0153 -0.2316  1.6470
17674SOL     OW54698   3.691   8.360   4.480  0.2350  0.8083 -0.0269
17674SOL    HW154699   3.650   8.367   4.566  0.0773  0.5522 -0.0792
17674SOL    HW254700   3.622   8.385   4.418 -0.1035 -0.4068 -0.1661
17675SOL     OW54701   7.475   2.013   6.953 -0.1961 -0.1736  0.8374
17675SOL    HW154702   7.536   2.009   7.027  0.7776 -0.5099  0.0341
17675SOL    HW254703   7.470   1.922   6.921  0.3499  0.1746 -0.2662
17676SOL     OW54704   2.456   5.703   6.696 -0.0347 -0.4276  0.0947
17676SOL    HW154705   2.424   5.641   6.631 -0.7406 -0.5869  0.5908
17676SOL    HW254706   2.411   5.785   6.675 -0.5912 -0.5903  0.6453
17677SOL     OW54707   2.206   5.335   8.514  0.0369  0.0827 -0.0316
17677SOL    HW154708   2.295   5.308   8.538 -0.0445  0.8832  1.2134
17677SOL    HW254709   2.165   5.256   8.479  1.1648 -0.3474 -0.3823
17678SOL     OW54710   0.500   3.652   1.361  0.1882 -0.2862  0.4274
17678SOL    HW154711   0.462   3.567   1.385  0.8547 -0.3966  1.1529
17678SOL    HW254712   0.570   3.665   1.426 -0.7079  1.3879  1.0881
17679SOL     OW54713   2.166   3.904   9.265 -0.0469 -0.2843  0.2147
17679SOL    HW154714   2.250   3.858   9.273  0.8249  0.8179 -2.1922
17679SOL    HW254715   2.165   3.964   9.339  0.7789 -1.0728  0.8919
17680SOL     OW54716   2.840   7.577   2.286 -0.0261  0.8954 -0.3158
17680SOL    HW154717   2.880   7.516   2.348 -0.2375  1.3117  0.2296
17680SOL    HW254718   2.780   7.629   2.339 -0.0265  1.4135 -0.8257
17681SOL     OW54719   6.961   5.816   5.952  0.2711  0.1561  0.0955
17681SOL    HW154720   6.962   5.840   6.045 -0.8395  1.9907 -0.3426
17681SOL    HW254721   6.982   5.897   5.906 -2.1064  0.0066 -1.3544
17682SOL     OW54722   1.542   4.551   7.405 -0.3189  0.2552 -0.1038
17682SOL    HW154723   1.482   4.512   7.468 -1.2218 -0.8731 -1.6321
17682SOL    HW254724   1.492   4.623   7.365 -0.3471 -0.0971 -0.7153
17683SOL     OW54725   0.391   1.991   7.007  0.4568 -0.9671 -0.4635
17683SOL    HW154726   0.445   2.040   7.068 -1.3476  0.6789 -0.1437
17683SOL    HW254727   0.347   1.926   7.061  0.1814 -0.6518 -0.3125
17684SOL     OW54728   5.349   1.058   8.077 -0.4845 -0.7612  0.2104
17684SOL    HW154729   5.263   1.025   8.104 -1.0562  1.0896  0.6945
17684SOL    HW254730   5.374   1.119   8.146  0.7922 -0.5412 -0.4326
17685SOL     OW54731   0.670   5.814   5.244  0.2490  0.4966  0.0640
17685SOL    HW154732   0.760   5.812   5.276  0.2598  1.4817  0.0987
17685SOL    HW254733   0.651   5.907   5.229 -0.8057  0.3160  0.1973
17686SOL     OW54734   8.297   2.718   6.499  0.4403 -0.4542 -0.3503
17686SOL    HW154735   8.372   2.758   6.544  2.0491  0.1285 -3.4184
17686SOL    HW254736   8.329   2.632   6.470 -0.3468 -0.5571 -0.9366
17687SOL     OW54737   7.631   2.646   2.813  0.1618  0.3222 -0.0302
17687SOL    HW154738   7.567   2.647   2.884 -0.0054  0.8306 -0.1863
17687SOL    HW254739   7.706   2.694   2.848  0.6000 -0.5615  0.2764
17688SOL     OW54740   4.973   1.248   0.665  0.0452 -0.2626  0.4115
17688SOL    HW154741   4.954   1.304   0.589  1.6498 -1.4540 -0.9013
17688SOL    HW254742   4.943   1.299   0.740 -0.2865  1.5527 -0.9110
17689SOL     OW54743   3.290   4.729   0.187 -0.2391  0.1536  0.0502
17689SOL    HW154744   3.308   4.642   0.223  3.2524  0.3093 -1.1285
17689SOL    HW254745   3.199   4.725   0.159 -0.3725 -2.8703  0.7408
17690SOL     OW54746   2.088   0.452   3.097 -0.6209 -0.1677 -0.5859
17690SOL    HW154747   2.026   0.410   3.156  0.0231  0.2839  0.4258
17690SOL    HW254748   2.040   0.463   3.015 -1.3535 -1.2897 -0.3243
17691SOL     OW54749   4.972   1.694   7.320  0.0022 -0.5204 -0.3026
17691SOL    HW154750   5.062   1.667   7.340 -0.2576 -2.6446 -1.9036
17691SOL    HW254751   4.942   1.737   7.400  2.7034  0.9792 -0.0145
17692SOL     OW54752   0.227   6.027   6.876  0.0020 -0.3288 -0.1063
17692SOL    HW154753   0.140   6.048   6.843  0.3284 -0.1249 -0.8467
17692SOL    HW254754   0.211   5.972   6.953 -0.7800 -0.1628 -0.1504
17693SOL     OW54755   8.005   5.406   7.493 -0.0308 -0.0284 -0.3518
17693SOL    HW154756   8.007   5.425   7.399  1.7509  0.7939 -0.1607
17693SOL    HW254757   8.060   5.328   7.503 -1.4448 -1.0150 -0.1795
17694SOL     OW54758   1.662   0.236   6.351 -0.2634  0.3215  0.0301
17694SOL    HW154759   1.589   0.291   6.380 -0.5950  0.5112 -1.1328
17694SOL    HW254760   1.687   0.186   6.429 -1.4905  0.4128  0.4949
17695SOL     OW54761   2.977   5.801   5.682  0.2375  0.3883 -0.1150
17695SOL    HW154762   3.060   5.810   5.728  0.3894  0.7622 -0.4591
17695SOL    HW254763   2.998   5.817   5.590  0.4310 -2.8839 -0.7275
17696SOL     OW54764   0.541   7.754   1.027 -0.2436  1.0541  0.3051
17696SOL    HW154765   0.481   7.808   0.975  0.8952  0.7733 -1.3389
17696SOL    HW254766   0.548   7.672   0.978  0.5177  0.6123  1.1435
17697SOL     OW54767   8.924   4.679   4.064  0.0646 -0.2417  0.7757
17697SOL    HW154768   8.990   4.610   4.060 -1.9423 -2.2229  0.4464
17697SOL    HW254769   8.859   4.646   4.126 -2.2613  0.0947 -1.3889
17698SOL     OW54770   9.187   5.161   3.996  0.6887  0.4439  0.2004
17698SOL    HW154771   9.189   5.230   4.062  0.8154 -0.3671  1.0573
17698SOL    HW254772   9.250   5.189   3.929  1.7870  0.4814  1.2345
17699SOL     OW54773   1.396   5.650   8.961  0.2181  0.1155 -0.3416
17699SOL    HW154774   1.349   5.714   9.013  0.1032 -0.4594  0.2735
17699SOL    HW254775   1.425   5.698   8.883  0.8441  1.1154  0.4951
17700SOL     OW54776   5.520   2.104   6.769 -0.6577  0.3518 -0.2702
17700SOL    HW154777   5.582   2.033   6.757 -1.9100 -0.4233 -2.3199
17700SOL    HW254778   5.437   2.061   6.790 -1.5058  1.1745 -1.8573
17701SOL     OW54779   1.861   0.892   4.814 -0.3819  0.0421  0.6259
17701SOL    HW154780   1.947   0.880   4.855 -0.3798  2.0487  1.2941
17701SOL    HW254781   1.807   0.928   4.884 -1.1147  1.0332 -0.4373
17702SOL     OW54782   0.655   2.035   1.565 -0.4943  0.2053  0.6238
17702SOL    HW154783   0.723   2.101   1.554  0.9038 -1.3534 -0.2430
17702SOL    HW254784   0.689   1.977   1.633 -1.3365 -0.1121  0.7781
17703SOL     OW54785   3.234   2.874   8.302  0.2086 -0.2126  0.3912
17703SOL    HW154786   3.268   2.870   8.392  0.7896 -0.3377  0.1704
17703SOL    HW254787   3.312   2.874   8.247 -0.0932  1.3277 -0.0696
17704SOL     OW54788   5.715   3.606   1.234 -0.2168 -0.2408 -0.3233
17704SOL    HW154789   5.703   3.632   1.143 -0.6606 -0.5861 -0.3654
17704SOL    HW254790   5.796   3.650   1.261  0.0302 -0.3042 -0.9458
17705SOL     OW54791   7.893   4.771   1.338  0.4721  0.1954  0.5926
17705SOL    HW154792   7.835   4.809   1.403  1.6879 -2.6379  3.4570
17705SOL    HW254793   7.964   4.835   1.329  0.3931  0.5173  2.2004
17706SOL     OW54794   3.705   6.885   4.524  0.1894  0.2362  0.8414
17706SOL    HW154795   3.675   6.976   4.520  1.0449  0.4573 -1.3509
17706SOL    HW254796   3.798   6.892   4.546  1.3244  0.1861 -3.4428
17707SOL     OW54797   8.403   0.676   3.857 -0.5356  0.1158 -0.0606
17707SOL    HW154798   8.362   0.602   3.814  0.9491 -0.8469  0.1361
17707SOL    HW254799   8.439   0.640   3.939  0.1860  1.0403  0.0467
17708SOL     OW54800   4.126   1.631   8.553 -0.0544  0.3906 -0.5481
17708SOL    HW154801   4.069   1.632   8.630  0.2654 -1.4564 -0.2506
17708SOL    HW254802   4.214   1.623   8.588  0.0300 -1.3007 -1.1023
17709SOL     OW54803   1.094   1.038   3.405  0.8459 -0.0980  0.7558
17709SOL    HW154804   1.064   0.950   3.425  0.0003  0.2057  0.8570
17709SOL    HW254805   1.175   1.025   3.356 -0.0093 -0.9743 -0.4797
17710SOL     OW54806   0.047   4.782   1.162 -0.6727 -0.3528 -0.0389
17710SOL    HW154807  -0.002   4.787   1.080 -1.2573 -0.0502  0.3242
17710SOL    HW254808   0.079   4.691   1.165 -4.3760 -1.7182  1.4775
17711SOL     OW54809   3.984   5.743   8.492 -0.6230 -0.0133 -0.0216
17711SOL    HW154810   4.012   5.765   8.581  0.5981  0.5722 -0.5475
17711SOL    HW254811   3.984   5.827   8.446  0.2723 -0.5380 -0.9922
17712SOL     OW54812   7.932   8.346   2.793 -0.0686 -0.2494  0.7951
17712SOL    HW154813   7.907   8.336   2.702  0.0165 -2.0839  0.9587
17712SOL    HW254814   8.016   8.392   2.791 -0.7360  0.9502  0.0219
17713SOL     OW54815   9.056   6.660   5.218 -0.6567 -0.6890 -0.4967
17713SOL    HW154816   9.129   6.685   5.161 -1.0649  1.2121 -0.2060
17713SOL    HW254817   9.095   6.597   5.280  0.5978 -0.1380 -0.6982
17714SOL     OW54818   5.802   6.709   5.116 -0.0629 -0.6942 -0.5467
17714SOL    HW154819   5.816   6.616   5.137 -0.3732 -0.4969  0.5741
17714SOL    HW254820   5.709   6.724   5.135 -0.1250 -0.2707 -1.1811
17715SOL     OW54821   7.019   1.581   8.445 -0.4459 -0.2580  0.0345
17715SOL    HW154822   6.947   1.572   8.382  0.5171 -0.1099 -1.0853
17715SOL    HW254823   7.087   1.627   8.398 -0.2004  1.0339  1.5906
17716SOL     OW54824   8.278   4.074   1.361  0.2011  0.6600 -0.1876
17716SOL    HW154825   8.286   4.169   1.363 -0.8878  0.7406  1.2573
17716SOL    HW254826   8.361   4.042   1.396  0.6037  1.0685 -0.7589
17717SOL     OW54827   2.807   3.441   5.619  0.4788 -0.5204 -0.2189
17717SOL    HW154828   2.897   3.443   5.651 -0.3148  0.5474  2.0815
17717SOL    HW254829   2.761   3.385   5.682 -0.9831  1.0694  0.1627
17718SOL     OW54830   2.479   5.003   0.655 -0.0852 -0.2405 -0.2953
17718SOL    HW154831   2.456   5.071   0.719 -0.3303 -0.0379 -0.5972
17718SOL    HW254832   2.537   5.047   0.593 -1.0012 -0.0364 -1.0353
17719SOL     OW54833   9.209   0.691   7.067 -0.0669 -0.1969  0.2181
17719SOL    HW154834   9.298   0.716   7.091 -0.6146  0.3939  1.6829
17719SOL    HW254835   9.217   0.601   7.035  1.2250  0.2776 -0.8409
17720SOL     OW54836   7.478   3.014   9.073 -0.3943  0.1932 -0.3377
17720SOL    HW154837   7.557   3.020   9.019 -0.2759  2.2505  0.0156
17720SOL    HW254838   7.503   3.053   9.157 -1.4358 -0.2327  0.1722
17721SOL     OW54839   2.831   0.950   4.902 -0.5756  0.0910 -0.1874
17721SOL    HW154840   2.895   0.944   4.973  1.6229 -2.8501 -2.3265
17721SOL    HW254841   2.876   0.999   4.833 -1.6884  0.4590 -0.6708
17722SOL     OW54842   4.460   4.875   2.334  0.0368 -0.0599  0.0177
17722SOL    HW154843   4.413   4.900   2.414  0.8439 -0.8951  0.7791
17722SOL    HW254844   4.447   4.948   2.274 -1.8978 -0.0990  0.3394
17723SOL     OW54845   1.594   6.032   4.568  0.1741  0.0573 -0.3747
17723SOL    HW154846   1.547   6.108   4.536  0.9399  0.6978  0.0134
17723SOL    HW254847   1.680   6.065   4.594  1.2358 -1.2724 -2.0422
17724SOL     OW54848   4.025   3.331   0.064  0.1330 -0.3215  0.0907
17724SOL    HW154849   4.041   3.371  -0.022 -0.5155 -0.4787 -0.1074
17724SOL    HW254850   3.990   3.245   0.043  1.7976 -1.1284  0.5135
17725SOL     OW54851   4.328   4.793   8.719 -0.1836 -0.7895  0.2718
17725SOL    HW154852   4.400   4.856   8.726 -0.5066 -0.5529  1.5015
17725SOL    HW254853   4.249   4.847   8.718 -0.3650 -1.0520 -1.0257
17726SOL     OW54854   3.435   3.699   1.619 -0.0312  0.1873 -0.0698
17726SOL    HW154855   3.377   3.764   1.658 -0.3516  0.4526 -0.9789
17726SOL    HW254856   3.523   3.730   1.641 -0.1839  0.9022 -0.4515
17727SOL     OW54857   3.567   3.599   0.815 -0.4111  0.0433 -0.4756
17727SOL    HW154858   3.621   3.550   0.877  0.4740  2.2571  0.5514
17727SOL    HW254859   3.626   3.664   0.777 -1.7311  0.8537 -1.2065
17728SOL     OW54860   0.128   1.181   0.662 -0.3965 -0.3812  0.3788
17728SOL    HW154861   0.111   1.216   0.574  2.7694  0.5046  0.0779
17728SOL    HW254862   0.158   1.092   0.647 -0.7829 -0.5558  0.6344
17729SOL     OW54863   1.910   7.314   7.240 -0.9903  0.4300  0.4517
17729SOL    HW154864   1.966   7.287   7.313 -0.3067  1.7996  0.4373
17729SOL    HW254865   1.930   7.252   7.170  0.3906  0.8169  0.4993
17730SOL     OW54866   2.315   6.561   2.065 -0.1207 -0.0219 -0.3090
17730SOL    HW154867   2.228   6.562   2.025 -0.0707 -0.9654 -0.4378
17730SOL    HW254868   2.322   6.475   2.106  0.4777  0.3183  0.3175
17731SOL     OW54869   3.540   4.428   3.705  0.1935 -0.2307  0.6334
17731SOL    HW154870   3.604   4.473   3.649  2.5055 -2.1984  1.6210
17731SOL    HW254871   3.540   4.479   3.786 -1.2550  1.1180 -0.1797
17732SOL     OW54872   7.419   3.157   5.140 -0.2716 -0.7597 -0.6268
17732SOL    HW154873   7.378   3.074   5.162 -0.2542 -0.8271 -0.8425
17732SOL    HW254874   7.509   3.149   5.173  0.4811 -1.8075 -2.8567
17733SOL     OW54875   5.906   2.442   4.832 -0.0532 -0.2213 -0.5061
17733SOL    HW154876   6.001   2.434   4.844 -0.4292 -0.4451  2.7289
17733SOL    HW254877   5.889   2.536   4.837 -0.5768 -0.4191  4.9239
17734SOL     OW54878   6.392   7.678   3.937  0.3705  0.5920 -0.6966
17734SOL    HW154879   6.308   7.673   3.891  0.0249 -0.2532  0.0087
17734SOL    HW254880   6.416   7.770   3.932 -1.3385  1.1235  0.3728
17735SOL     OW54881   4.948   2.862   6.087  0.1820 -0.1433  0.3426
17735SOL    HW154882   4.995   2.806   6.148  0.8648  0.3793  0.3019
17735SOL    HW254883   5.015   2.892   6.025 -0.1153  0.9693  0.5519
17736SOL     OW54884   2.473   6.386   2.779  0.3732  0.0305 -0.6928
17736SOL    HW154885   2.446   6.427   2.697  0.0695  1.0134 -0.1038
17736SOL    HW254886   2.543   6.442   2.812  0.6140 -0.4582 -0.3662
17737SOL     OW54887   1.406   6.888   1.707  0.6136  0.1647 -0.8098
17737SOL    HW154888   1.411   6.930   1.622  1.5963  2.4947  0.3453
17737SOL    HW254889   1.494   6.852   1.720  0.4086 -0.3544 -0.8686
17738SOL     OW54890   5.620   6.508   2.781 -0.2229  0.4781 -0.1257
17738SOL    HW154891   5.691   6.483   2.721  0.4345  1.7532  0.0988
17738SOL    HW254892   5.629   6.447   2.855 -0.0480 -0.0689 -0.5907
17739SOL     OW54893   0.723   0.169   0.879  0.2130 -0.4082 -0.4329
17739SOL    HW154894   0.801   0.154   0.826  0.0754  1.5110 -1.1951
17739SOL    HW254895   0.744   0.246   0.932 -1.0012 -0.1432 -0.3197
17740SOL     OW54896   5.667   7.299   6.998  0.7898  0.4026  0.7092
17740SOL    HW154897   5.629   7.227   7.048  0.6641 -1.5527 -2.0822
17740SOL    HW254898   5.760   7.298   7.022  0.6186 -0.1556  1.3552
17741SOL     OW54899   4.653   0.963   5.295  0.7609 -0.5624  0.1571
17741SOL    HW154900   4.657   0.904   5.370 -0.2265  1.2976  1.7366
17741SOL    HW254901   4.696   1.043   5.326  0.7460  0.0724 -1.4215
17742SOL     OW54902   3.412   2.700   6.457  0.5807  0.3791 -0.0042
17742SOL    HW154903   3.377   2.638   6.522 -1.3185  0.3715 -0.9932
17742SOL    HW254904   3.434   2.778   6.508 -1.6390  0.6642  0.5728
17743SOL     OW54905   2.570   4.778   5.073  0.0705  0.2332  0.6376
17743SOL    HW154906   2.525   4.858   5.047  1.2638  1.1925  1.4456
17743SOL    HW254907   2.501   4.714   5.088 -0.9062  1.1771  0.1714
17744SOL     OW54908   2.665   8.460   8.493 -0.0757  0.2716 -0.1034
17744SOL    HW154909   2.583   8.500   8.465 -0.0785  1.1388  1.1225
17744SOL    HW254910   2.730   8.529   8.486  0.1119  0.2256  1.0805
17745SOL     OW54911   4.253   6.378   4.136  0.2308  0.3016 -0.3463
17745SOL    HW154912   4.259   6.404   4.228  1.7193 -0.3471 -0.2363
17745SOL    HW254913   4.318   6.433   4.091 -0.1059  0.2434 -0.9128
17746SOL     OW54914   0.426   5.850   0.932 -0.4211  0.5057  0.2410
17746SOL    HW154915   0.360   5.840   0.864  0.2406 -2.4390 -0.0340
17746SOL    HW254916   0.509   5.857   0.885  0.0927 -2.0226  0.6795
17747SOL     OW54917   8.381   0.614   7.556  0.5947  0.4895  0.3488
17747SOL    HW154918   8.446   0.609   7.486  1.3659  0.1976  1.0705
17747SOL    HW254919   8.380   0.526   7.594 -1.4770  0.0000 -0.7458
17748SOL     OW54920   8.851   5.764   0.377  0.3011  0.4435  0.5106
17748SOL    HW154921   8.839   5.753   0.283  0.9224  2.8526  0.1129
17748SOL    HW254922   8.898   5.847   0.386  0.2279  0.2720  2.9533
17749SOL     OW54923   3.837   6.906   2.019  0.2076  0.0994  0.0675
17749SOL    HW154924   3.918   6.956   2.030  1.1318 -1.6983  1.7782
17749SOL    HW254925   3.841   6.839   2.087 -2.5467 -0.2688 -0.0805
17750SOL     OW54926   4.247   1.694   5.235 -0.5373  0.2928  0.6915
17750SOL    HW154927   4.237   1.602   5.260 -1.6705 -0.3402 -1.9473
17750SOL    HW254928   4.162   1.719   5.200  0.5854  1.4996 -1.2618
17751SOL     OW54929   3.586   8.090   5.731  0.3100 -0.6897  0.1232
17751SOL    HW154930   3.591   8.090   5.826 -1.8712 -1.2725  0.2743
17751SOL    HW254931   3.505   8.137   5.711  1.0816  0.0006 -1.4772
17752SOL     OW54932   6.752   1.311   5.047 -1.0311 -0.2689  0.3818
17752SOL    HW154933   6.778   1.395   5.009  1.4613 -1.1533  0.0623
17752SOL    HW254934   6.666   1.293   5.009  0.1564  0.2492 -2.6861
17753SOL     OW54935   3.691   4.365   6.583  0.3625 -0.1745 -0.8112
17753SOL    HW154936   3.704   4.459   6.573 -0.0701 -0.1429 -1.0877
17753SOL    HW254937   3.751   4.339   6.653 -0.7733  0.6147  0.4884
17754SOL     OW54938   4.778   2.091   8.830 -0.2570  0.3856  0.2794
17754SOL    HW154939   4.825   2.175   8.831  0.1224  0.2078 -1.0186
17754SOL    HW254940   4.703   2.105   8.887 -0.2589  1.6513 -0.0092
17755SOL     OW54941   5.321   6.375   1.245 -0.3387 -0.3131 -0.0831
17755SOL    HW154942   5.397   6.348   1.297  0.0130 -0.9342 -0.8970
17755SOL    HW254943   5.286   6.451   1.291  0.3676 -0.4408  0.6814
17756SOL     OW54944   2.830   3.397   8.463 -0.1512 -0.8769 -0.0047
17756SOL    HW154945   2.806   3.348   8.384  0.7037 -1.0341 -0.1714
17756SOL    HW254946   2.762   3.464   8.471  0.5700  0.0799 -1.6997
17757SOL     OW54947   7.621   7.019   6.841 -0.3151 -0.0444  0.3183
17757SOL    HW154948   7.577   7.104   6.844  1.1760  0.7084  1.9195
17757SOL    HW254949   7.593   6.976   6.922 -0.5820 -0.8387 -0.1975
17758SOL     OW54950   8.198   4.105   6.610  0.0333 -0.3024 -0.5445
17758SOL    HW154951   8.141   4.178   6.585  0.5991 -0.2833 -1.8102
17758SOL    HW254952   8.148   4.057   6.677 -0.3529  1.2182  0.2784
17759SOL     OW54953   8.095   6.274   2.003 -0.0492  0.0843  0.1276
17759SOL    HW154954   8.174   6.270   1.949 -0.1529  1.0484 -0.1106
17759SOL    HW254955   8.120   6.329   2.077 -0.5216  0.4525  0.0133
17760SOL     OW54956   2.467   2.694   3.508  0.5086  0.3187  0.0059
17760SOL    HW154957   2.378   2.702   3.476  0.4410 -0.0042  0.1106
17760SOL    HW254958   2.512   2.641   3.442  0.9998  1.6674 -0.7740
17761SOL     OW54959   7.814   1.371   4.396 -0.5066  0.3004  0.1700
17761SOL    HW154960   7.804   1.415   4.311 -0.9125 -0.4509 -0.1806
17761SOL    HW254961   7.903   1.336   4.395 -0.0998  1.3149  0.5497
17762SOL     OW54962   8.367   3.780   6.772 -0.3250 -0.4247  0.2787
17762SOL    HW154963   8.424   3.711   6.738 -1.9934 -1.3640 -0.6982
17762SOL    HW254964   8.418   3.821   6.841  1.7220 -0.9105 -0.8928
17763SOL     OW54965   0.309   5.206   0.887  0.6910  0.0779  0.8513
17763SOL    HW154966   0.224   5.249   0.880  1.5212  1.3845 -1.6907
17763SOL    HW254967   0.322   5.197   0.982 -1.0481  2.3769  1.3805
17764SOL     OW54968   5.299   8.916   0.272  0.1286  0.2356  0.5412
17764SOL    HW154969   5.213   8.954   0.252 -0.6788 -1.8765 -0.1403
17764SOL    HW254970   5.360   8.990   0.266 -1.5499  1.6365  0.4219
17765SOL     OW54971   3.672   4.464   2.981  0.0036  0.3145 -0.5696
17765SOL    HW154972   3.735   4.393   2.970 -1.1981 -0.6164 -1.5727
17765SOL    HW254973   3.617   4.437   3.054 -0.5424  0.1500 -1.0428
17766SOL     OW54974   8.677   4.453   8.012 -0.7169  0.0864 -0.1553
17766SOL    HW154975   8.737   4.417   7.947  0.2181 -0.1492  0.8313
17766SOL    HW254976   8.614   4.504   7.961  1.3165  1.7573 -1.0620
17767SOL     OW54977   0.078   6.412   4.120  0.0492 -0.0640 -0.2089
17767SOL    HW154978   0.084   6.370   4.034 -0.4717 -0.8517  0.1268
17767SOL    HW254979   0.084   6.505   4.101  1.0671 -0.2752 -0.9895
17768SOL     OW54980   5.864   2.863   3.986  0.0712 -0.3564 -0.4247
17768SOL    HW154981   5.881   2.901   3.900  2.8317 -0.3549  0.0780
17768SOL    HW254982   5.882   2.770   3.975  0.9280 -0.2751  0.2762
17769SOL     OW54983   0.987   2.262   1.844  0.2753  0.4407 -0.4225
17769SOL    HW154984   1.021   2.177   1.814  0.3457 -0.0619  1.0296
17769SOL    HW254985   0.923   2.287   1.777  2.1421  0.5177 -2.2483
17770SOL     OW54986   2.082   3.695   2.750  0.2799 -0.1478  0.3610
17770SOL    HW154987   2.052   3.609   2.720 -0.8952  0.0860  0.8683
17770SOL    HW254988   2.029   3.757   2.701 -0.2232  0.2609  1.4163
17771SOL     OW54989   6.876   5.360   1.350 -0.2276  0.0619 -0.2810
17771SOL    HW154990   6.911   5.425   1.289 -0.2505  0.8614  0.5555
17771SOL    HW254991   6.928   5.371   1.429 -0.3604 -0.8116 -0.0665
17772SOL     OW54992   6.930   6.198   1.553  0.5658 -0.0148 -0.2370
17772SOL    HW154993   6.942   6.163   1.642 -1.3704 -1.1559 -0.3870
17772SOL    HW254994   6.868   6.269   1.563 -1.3634 -1.5612 -0.9453
17773SOL     OW54995   6.958   2.524   2.225 -0.2607 -0.3388  0.0246
17773SOL    HW154996   7.001   2.571   2.297 -0.8353  0.9629 -0.4641
17773SOL    HW254997   6.984   2.571   2.146 -2.9288  0.7848 -0.2342
17774SOL     OW54998   8.204   1.186   5.917  0.2700  0.3283 -0.1377
17774SOL    HW154999   8.196   1.133   5.838 -0.5639 -0.1726  0.2794
17774SOL    HW255000   8.298   1.199   5.928  0.3533  1.0356 -1.6331
17775SOL     OW55001   1.876   0.434   6.418 -0.3897  0.2064 -0.1719
17775SOL    HW155002   1.824   0.405   6.493 -0.1115  3.1809  1.2574
17775SOL    HW255003   1.812   0.474   6.358 -0.3113  0.0078 -0.3865
17776SOL     OW55004   5.156   5.884   8.860  0.0084  0.1513  0.3997
17776SOL    HW155005   5.082   5.862   8.802 -1.1021 -0.5166  2.0288
17776SOL    HW255006   5.124   5.957   8.913  1.8442  2.3139 -1.3930
17777SOL     OW55007   8.202   6.762   3.842 -0.4446  0.0728 -0.2497
17777SOL    HW155008   8.217   6.757   3.748 -1.1183 -1.2581 -0.3017
17777SOL    HW255009   8.150   6.684   3.862 -2.5123  1.6804  0.7991
17778SOL     OW55010   5.266   5.178   8.374 -0.1567  0.7542 -0.0057
17778SOL    HW155011   5.279   5.086   8.397  2.1340  1.2990  1.0371
17778SOL    HW255012   5.245   5.177   8.281 -0.1842 -0.8094  0.0068
17779SOL     OW55013   7.100   3.389   2.845 -0.7812 -0.2538 -0.6856
17779SOL    HW155014   7.052   3.437   2.778  0.3082  0.3848 -1.0138
17779SOL    HW255015   7.187   3.430   2.847 -0.8781 -0.1070  1.2875
17780SOL     OW55016   7.429   7.405   4.139 -0.3815 -0.7165 -0.0603
17780SOL    HW155017   7.397   7.493   4.160  0.6403 -0.5806  0.9547
17780SOL    HW255018   7.522   7.406   4.162 -0.3057 -1.9948 -0.2444
17781SOL     OW55019   1.304   5.884   2.456  0.1978 -0.0649 -0.5418
17781SOL    HW155020   1.351   5.935   2.523  0.2908  1.5132 -1.7697
17781SOL    HW255021   1.267   5.810   2.504  0.0736  1.1531  1.3010
17782SOL     OW55022   4.966   6.728   0.563  0.4119  0.0633  0.2352
17782SOL    HW155023   4.952   6.650   0.617 -2.5086  0.6359  0.3830
17782SOL    HW255024   4.943   6.801   0.621  0.6887  0.9034 -0.7019
17783SOL     OW55025   7.879   4.472   0.430  0.4326 -0.6599  0.4381
17783SOL    HW155026   7.801   4.527   0.426  0.6517 -0.2688  1.4706
17783SOL    HW255027   7.912   4.471   0.340 -0.4630 -0.4012  0.1023
17784SOL     OW55028   7.458   1.381   5.360 -0.2663  0.1224 -0.0343
17784SOL    HW155029   7.475   1.445   5.430 -2.2316  0.9253 -0.2643
17784SOL    HW255030   7.378   1.336   5.388  1.0439 -2.2206  0.0836
17785SOL     OW55031   3.441   4.114   8.673  0.1219 -0.5954 -0.0883
17785SOL    HW155032   3.471   4.194   8.715  0.7494 -1.1504  0.5488
17785SOL    HW255033   3.520   4.059   8.669 -0.4159 -1.3764 -0.0280
17786SOL     OW55034   8.210   4.881   2.318  0.2043 -0.4298  0.3851
17786SOL    HW155035   8.220   4.951   2.254  0.6161  0.1504  1.0744
17786SOL    HW255036   8.117   4.878   2.337  0.1515 -0.2538  0.1482
17787SOL     OW55037   5.557   7.096   7.154  0.2859  0.5034  0.1794
17787SOL    HW155038   5.507   7.090   7.235 -0.9028  1.9092 -0.4374
17787SOL    HW255039   5.538   7.014   7.108  0.2824  0.0852  0.9099
17788SOL     OW55040   6.177   5.083   5.043 -0.0897 -0.5552 -0.1134
17788SOL    HW155041   6.260   5.055   5.081 -0.2098 -0.9037 -0.1040
17788SOL    HW255042   6.184   5.178   5.036 -0.0438 -0.5008  0.7235
17789SOL     OW55043   4.425   8.605   2.786 -0.7636  0.1809 -0.0618
17789SOL    HW155044   4.467   8.690   2.779  2.1247 -1.1946 -0.0604
17789SOL    HW255045   4.456   8.556   2.710 -0.2300 -1.7674  1.3689
17790SOL     OW55046   2.152   3.262   0.360  0.3684  0.3292 -0.3105
17790SOL    HW155047   2.124   3.330   0.299  0.9588  1.4247  0.6198
17790SOL    HW255048   2.123   3.293   0.446  2.3355  0.3713  0.3658
17791SOL     OW55049   5.064   6.340   2.689 -0.0157 -0.2748 -0.0708
17791SOL    HW155050   5.142   6.314   2.739 -0.3132 -1.3736 -0.1644
17791SOL    HW255051   5.011   6.389   2.751 -0.1923 -1.2831  0.5908
17792SOL     OW55052   6.652   0.443   6.538 -0.0987  0.2782  0.1541
17792SOL    HW155053   6.691   0.392   6.609 -3.1011 -1.0685  0.9415
17792SOL    HW255054   6.638   0.380   6.468 -0.8113  0.7050 -0.0972
17793SOL     OW55055   9.111   4.544   7.828  0.3001 -0.2559  0.1001
17793SOL    HW155056   9.062   4.521   7.749 -0.2094  2.7586 -0.5131
17793SOL    HW255057   9.181   4.602   7.797 -0.2763  1.4653  1.9116
17794SOL     OW55058   2.937   4.611   8.685 -0.2607  0.3813 -0.1376
17794SOL    HW155059   2.907   4.701   8.671 -0.9793  0.5560  2.3960
17794SOL    HW255060   2.856   4.560   8.693  0.1470 -0.3677 -0.6502
17795SOL     OW55061   0.116   3.497   0.931  0.0931  0.2084  0.6481
17795SOL    HW155062   0.175   3.569   0.952  0.7262  0.1996 -1.0438
17795SOL    HW255063   0.054   3.533   0.867  1.3807 -1.1274 -1.4286
17796SOL     OW55064   0.421   1.200   5.262  0.0715  0.2827  0.2435
17796SOL    HW155065   0.419   1.233   5.352  0.5666 -0.5372  0.5659
17796SOL    HW255066   0.343   1.237   5.221  0.1643  1.1468  0.8399
17797SOL     OW55067   1.453   3.589   2.907 -0.0247 -0.1835  1.0847
17797SOL    HW155068   1.460   3.506   2.859  3.5198 -0.9643  2.7842
17797SOL    HW255069   1.381   3.575   2.968 -0.5741 -1.3990  0.1837
17798SOL     OW55070   7.387   2.435   7.691  0.5568  0.4608 -0.6258
17798SOL    HW155071   7.296   2.406   7.705  0.5258  0.4236 -0.9072
17798SOL    HW255072   7.406   2.410   7.601  1.3152 -0.7852 -0.1346
17799SOL     OW55073   0.769   2.695   2.811  0.1256  0.0761 -0.0894
17799SOL    HW155074   0.840   2.757   2.830  0.1322 -0.1708  0.7040
17799SOL    HW255075   0.762   2.696   2.715 -0.4862  1.9770 -0.0462
17800SOL     OW55076   1.185   1.364   4.407  0.7482  0.0588 -0.5720
17800SOL    HW155077   1.130   1.346   4.484  0.1275 -2.6349 -1.6057
17800SOL    HW255078   1.126   1.409   4.346  0.4901 -0.2492 -0.5511
17801SOL     OW55079   3.534   7.187   0.182 -0.1310  0.4609 -1.1149
17801SOL    HW155080   3.443   7.165   0.200 -0.3549  0.6749 -1.9465
17801SOL    HW255081   3.549   7.156   0.093  0.5041  0.7432 -1.1121
17802SOL     OW55082   1.551   6.395   4.816 -0.0734 -0.0190  0.0778
17802SOL    HW155083   1.498   6.320   4.843 -0.7683  0.1234 -0.8776
17802SOL    HW255084   1.610   6.410   4.890 -1.5939  0.0373  1.2931
17803SOL     OW55085   1.107   0.557   7.542 -0.0548  0.3556  0.4510
17803SOL    HW155086   1.152   0.532   7.461 -2.3815  0.7618 -1.0136
17803SOL    HW255087   1.082   0.649   7.528 -1.8002 -0.0123  0.9696
17804SOL     OW55088   2.596   1.502   1.611  0.6542  0.3044  0.5212
17804SOL    HW155089   2.654   1.476   1.540 -0.8530 -0.9766 -0.2863
17804SOL    HW255090   2.579   1.595   1.596 -0.1692 -0.1104 -1.1852
17805SOL     OW55091   5.807   5.538   5.827 -0.0027  0.3558  0.5445
17805SOL    HW155092   5.742   5.602   5.796  0.6791  1.2510  0.9367
17805SOL    HW255093   5.890   5.571   5.793  0.4962  0.2885  1.6845
17806SOL     OW55094   8.070   7.018   0.811  0.4756 -1.0332  0.1989
17806SOL    HW155095   8.000   7.081   0.831  0.4194 -1.0563  0.0783
17806SOL    HW255096   8.088   6.975   0.894  1.3397 -0.0205  0.5461
17807SOL     OW55097   3.552   7.425   2.751  0.1095  0.5720  0.1856
17807SOL    HW155098   3.551   7.330   2.760  1.1596  0.5631  0.2155
17807SOL    HW255099   3.470   7.453   2.790 -1.2192 -0.4916 -1.7339
17808SOL     OW55100   7.335   1.419   4.142  0.2100  0.4801 -0.0712
17808SOL    HW155101   7.291   1.481   4.201  1.9495  1.1218  0.5971
17808SOL    HW255102   7.387   1.475   4.084 -1.4033 -0.1487 -2.1902
17809SOL     OW55103   1.962   6.161   7.245 -0.3183  0.1947 -0.7329
17809SOL    HW155104   1.964   6.116   7.329 -1.9582  0.0322 -0.7737
17809SOL    HW255105   1.949   6.253   7.268  3.2131  0.7475 -0.6376
17810SOL     OW55106   3.036   0.115   6.136 -0.1420 -0.2132  0.1005
17810SOL    HW155107   2.943   0.134   6.129 -0.3368 -1.9096 -2.1839
17810SOL    HW255108   3.071   0.187   6.190 -2.5182  1.1094 -0.0728
17811SOL     OW55109   4.440   0.763   8.679 -0.0379  0.2132 -0.9907
17811SOL    HW155110   4.524   0.732   8.644 -0.4827 -3.1563  0.7906
17811SOL    HW255111   4.375   0.708   8.637 -1.0353  0.0992  0.6598
17812SOL     OW55112   4.789   1.859   1.677 -0.1128  0.1374  0.0691
17812SOL    HW155113   4.754   1.794   1.737  0.5351 -2.5710 -2.3666
17812SOL    HW255114   4.881   1.834   1.667  0.2732  1.7609 -0.5128
17813SOL     OW55115   0.552   2.511   0.643 -0.4957  0.2749  0.2944
17813SOL    HW155116   0.569   2.553   0.727  0.6939 -1.3277  0.8834
17813SOL    HW255117   0.596   2.567   0.579 -2.5035  2.2250  0.5342
17814SOL     OW55118   2.121   6.117   1.032  0.0504 -0.3620 -0.0195
17814SOL    HW155119   2.207   6.111   1.075 -0.2183  2.3126  1.0083
17814SOL    HW255120   2.058   6.109   1.103 -0.4021  3.8881  0.1784
17815SOL     OW55121   3.565   3.182   4.786 -0.0179 -0.5747 -0.1196
17815SOL    HW155122   3.519   3.221   4.711 -0.8317  0.5430  0.9273
17815SOL    HW255123   3.601   3.100   4.753 -0.7089 -0.2843 -1.6239
17816SOL     OW55124   2.341   7.443   4.476 -0.0467 -0.0921 -0.2687
17816SOL    HW155125   2.368   7.352   4.491 -0.5978 -0.1522  0.4159
17816SOL    HW255126   2.396   7.494   4.534  2.2387  0.3094 -2.6983
17817SOL     OW55127   5.602   6.665   1.116 -0.6165 -0.0584  0.3295
17817SOL    HW155128   5.605   6.675   1.211 -1.7296 -1.2314  0.4995
17817SOL    HW255129   5.675   6.606   1.096  0.2883  1.0409  0.3195
17818SOL     OW55130   6.901   2.882   0.577 -0.2625 -0.3821 -0.0667
17818SOL    HW155131   6.929   2.944   0.509 -2.4061  0.0219 -0.6089
17818SOL    HW255132   6.925   2.925   0.659 -1.1512  0.9033 -0.4616
17819SOL     OW55133   4.514   4.354   1.000 -0.3309 -0.1939  0.6967
17819SOL    HW155134   4.423   4.338   1.025  0.1003 -0.6761  1.9785
17819SOL    HW255135   4.550   4.406   1.072  0.4745 -0.1841  0.2924
17820SOL     OW55136   4.411   8.554   8.821 -0.2377  0.3689  0.2769
17820SOL    HW155137   4.335   8.515   8.865  0.9270 -0.3709  1.7108
17820SOL    HW255138   4.430   8.495   8.749 -0.8749  0.4269  0.0589
17821SOL     OW55139   6.787   3.170   4.913 -0.6070 -0.1670 -0.1028
17821SOL    HW155140   6.867   3.214   4.883 -0.8547 -0.0470 -0.5850
17821SOL    HW255141   6.746   3.136   4.834 -0.2778 -1.5262  0.2984
17822SOL     OW55142   4.884   6.044   7.870  0.0217 -0.2511 -0.4620
17822SOL    HW155143   4.926   6.130   7.863  2.6094 -1.4539 -0.1709
17822SOL    HW255144   4.917   5.996   7.794  0.1691 -1.6477  0.4911
17823SOL     OW55145   3.098   7.255   0.750 -0.2455 -0.0385  0.0130
17823SOL    HW155146   3.182   7.299   0.761 -0.2500  0.1799 -0.8051
17823SOL    HW255147   3.114   7.165   0.779  0.4969 -0.2234 -0.9652
17824SOL     OW55148   3.114   6.888   7.741 -0.0157 -0.3115 -0.5162
17824SOL    HW155149   3.203   6.897   7.775  0.5287 -0.9991 -1.7396
17824SOL    HW255150   3.111   6.947   7.665 -0.9161  0.4582  0.0924
17825SOL     OW55151   5.907   1.432   5.557 -0.6554 -0.0371 -0.2889
17825SOL    HW155152   5.841   1.429   5.487  0.3852 -1.1128 -1.2433
17825SOL    HW255153   5.913   1.341   5.587  1.0492 -0.1182 -0.8481
17826SOL     OW55154   3.133   5.836   9.285  0.5427  0.3488 -0.3405
17826SOL    HW155155   3.107   5.926   9.264 -1.5465 -0.6098 -2.0827
17826SOL    HW255156   3.050   5.790   9.300  1.5497 -1.4260 -0.0364
17827SOL     OW55157   1.663   2.152   5.846  0.1746 -0.4096 -0.6891
17827SOL    HW155158   1.690   2.073   5.799  1.1505  0.0470 -0.9084
17827SOL    HW255159   1.737   2.212   5.836 -0.8062  0.7536 -1.0490
17828SOL     OW55160   2.673   3.509   3.509  0.4860  0.2370 -0.5534
17828SOL    HW155161   2.596   3.558   3.538  0.2394 -0.5703  0.1618
17828SOL    HW255162   2.743   3.537   3.568  0.4064 -0.0854 -0.3074
17829SOL     OW55163   2.315   0.725   1.129  0.4493 -0.1563  0.0959
17829SOL    HW155164   2.334   0.641   1.087 -0.2113 -1.4860  2.3596
17829SOL    HW255165   2.224   0.744   1.106  0.5120 -0.2025 -0.1889
17830SOL     OW55166   4.836   2.518   7.116 -0.5259  0.1913  0.2831
17830SOL    HW155167   4.861   2.578   7.187  1.4710 -0.9541  0.5953
17830SOL    HW255168   4.910   2.520   7.056 -0.7646 -1.3476 -0.0869
17831SOL     OW55169   8.916   2.684   0.188  0.2371  0.0429 -0.0707
17831SOL    HW155170   8.982   2.751   0.205  0.9441 -0.3863 -1.0809
17831SOL    HW255171   8.959   2.602   0.215 -0.7646  0.0355  1.5433
17832SOL     OW55172   5.854   2.961   1.533 -0.4700 -0.3662  0.4119
17832SOL    HW155173   5.828   2.961   1.625 -1.0296 -0.9756  0.2645
17832SOL    HW255174   5.811   3.038   1.496 -1.3290 -0.8549  0.3775
17833SOL     OW55175   1.812   6.019   2.731 -0.1350 -0.5616  0.3922
17833SOL    HW155176   1.820   6.094   2.790 -0.8201  1.0115 -1.4428
17833SOL    HW255177   1.858   5.948   2.775  1.5862  1.2730  1.6217
17834SOL     OW55178   8.566   3.348   2.766  0.2654  0.1346  0.8585
17834SOL    HW155179   8.638   3.390   2.811  1.2509  1.2260 -1.6378
17834SOL    HW255180   8.495   3.412   2.767  0.0435 -0.1148  1.4409
17835SOL     OW55181   1.479   7.134   7.184  0.4039 -0.7019  0.4652
17835SOL    HW155182   1.407   7.071   7.181 -0.6552  0.5051 -0.3132
17835SOL    HW255183   1.443   7.209   7.233  1.1147 -0.0871  0.0614
17836SOL     OW55184   1.510   5.428   0.304  0.5770  0.7229  0.2883
17836SOL    HW155185   1.599   5.441   0.270  0.1138  2.0828 -0.4683
17836SOL    HW255186   1.481   5.346   0.264  1.5301  0.2075  0.6369
17837SOL     OW55187   7.853   2.794   4.324 -0.3350  0.2985  0.3686
17837SOL    HW155188   7.929   2.737   4.317 -0.9535 -0.3345 -1.4008
17837SOL    HW255189   7.878   2.859   4.389  1.1570 -0.7694  0.8887
17838SOL     OW55190   3.439   2.527   7.538 -0.3715  0.1999  0.1515
17838SOL    HW155191   3.408   2.485   7.458  2.1135  2.3500 -2.0099
17838SOL    HW255192   3.501   2.465   7.576 -0.0966 -0.0202 -0.6503
17839SOL     OW55193   1.700   7.917   8.686  0.5838 -0.3079 -0.2239
17839SOL    HW155194   1.628   7.875   8.733 -1.0534  1.5211 -1.0062
17839SOL    HW255195   1.734   7.981   8.748  2.0646 -1.6865  0.4140
17840SOL     OW55196   2.375   6.628   8.052  0.0687 -0.0312 -0.1703
17840SOL    HW155197   2.311   6.611   7.983 -0.5320  1.5600 -0.0380
17840SOL    HW255198   2.435   6.692   8.014  1.1007 -0.8921 -0.0050
17841SOL     OW55199   5.312   5.223   5.089 -0.3546 -0.3161  0.0840
17841SOL    HW155200   5.319   5.154   5.022  0.3483 -1.4320  1.2878
17841SOL    HW255201   5.377   5.288   5.062 -0.5140 -0.4556 -0.6670
17842SOL     OW55202   3.367   7.803   0.080  0.1696  0.0199 -0.6111
17842SOL    HW155203   3.413   7.830   0.000  0.4583  0.6218 -0.2412
17842SOL    HW255204   3.396   7.865   0.147 -0.3006 -0.3025 -0.1046
17843SOL     OW55205   3.803   0.546   8.133 -0.5870 -0.2364 -0.2065
17843SOL    HW155206   3.844   0.576   8.215  0.2672 -0.4828 -0.5358
17843SOL    HW255207   3.877   0.533   8.074 -1.2513  0.5284 -1.2183
17844SOL     OW55208   5.371   5.742   2.437  0.1821 -0.0680 -0.1381
17844SOL    HW155209   5.417   5.684   2.498 -1.3641 -1.0733  0.1115
17844SOL    HW255210   5.378   5.698   2.352  0.2626  0.1086 -0.2219
17845SOL     OW55211   4.451   8.041   3.312  0.1820 -0.7104 -0.1394
17845SOL    HW155212   4.508   8.108   3.275 -1.1898  0.8368  0.4768
17845SOL    HW255213   4.503   7.961   3.310  1.8142  0.3477 -0.9881
17846SOL     OW55214   4.921   2.307   3.448 -0.2679  0.1629  0.1144
17846SOL    HW155215   4.969   2.384   3.478 -0.5018  0.7551 -0.9741
17846SOL    HW255216   4.941   2.302   3.354 -2.6845  0.7122 -0.4592
17847SOL     OW55217   3.527   2.029   3.689  0.2367  0.0796  0.3066
17847SOL    HW155218   3.495   1.941   3.710 -0.0526  0.1281  0.0764
17847SOL    HW255219   3.494   2.046   3.601  1.0297  0.0730  0.0087
17848SOL     OW55220   8.375   6.233   1.417 -0.0685 -0.3801  0.1844
17848SOL    HW155221   8.424   6.166   1.368 -0.1530 -0.2460 -0.0858
17848SOL    HW255222   8.355   6.300   1.352  1.5183  0.7446  0.8273
17849SOL     OW55223   5.770   4.487   0.272 -0.6756 -0.3107 -0.1831
17849SOL    HW155224   5.796   4.442   0.192 -0.0920  0.2594 -0.3189
17849SOL    HW255225   5.778   4.581   0.251 -1.3747 -0.1499  0.2563
17850SOL     OW55226   9.245   6.173   4.537 -0.1710 -0.3047 -0.3968
17850SOL    HW155227   9.228   6.189   4.444  2.6419 -0.9302 -1.0708
17850SOL    HW255228   9.212   6.085   4.552 -0.8024 -0.1347 -0.7561
17851SOL     OW55229   7.945   2.035   4.335 -0.1483  0.2303  0.5444
17851SOL    HW155230   7.962   2.052   4.427 -0.1880  2.7795  0.1146
17851SOL    HW255231   7.850   2.029   4.328 -0.1940  0.9279  0.5355
17852SOL     OW55232   2.198   3.281   1.222 -0.3059 -0.0564  0.1770
17852SOL    HW155233   2.238   3.330   1.150  1.7436 -0.9238  0.6918
17852SOL    HW255234   2.158   3.348   1.277 -0.6450  0.7280 -1.0012
17853SOL     OW55235   8.412   3.375   8.188 -0.3301  0.4668  0.1700
17853SOL    HW155236   8.359   3.386   8.109  0.6109 -0.9389 -0.6905
17853SOL    HW255237   8.455   3.460   8.200 -0.7485  0.7976 -0.6305
17854SOL     OW55238   5.554   2.217   1.096 -0.0733  0.9040  0.5214
17854SOL    HW155239   5.557   2.308   1.126 -2.0648  1.1560 -0.0062
17854SOL    HW255240   5.589   2.220   1.007 -0.6412  1.2473  0.3060
17855SOL     OW55241   1.579   4.359   1.213 -0.3825 -0.5988  0.0677
17855SOL    HW155242   1.558   4.331   1.302  0.3107 -1.2713  0.0219
17855SOL    HW255243   1.663   4.404   1.220 -0.9615  0.5131 -0.0398
17856SOL     OW55244   8.447   1.508   7.955 -0.1101  1.3004 -0.2789
17856SOL    HW155245   8.487   1.594   7.970  0.5034  1.2379 -1.4405
17856SOL    HW255246   8.472   1.486   7.865  2.4809 -1.5342  1.0001
17857SOL     OW55247   7.680   5.266   7.037 -0.4614  0.3578  0.2805
17857SOL    HW155248   7.678   5.358   7.064 -1.6092  0.1313  1.0184
17857SOL    HW255249   7.590   5.248   7.009 -0.0327 -0.3024 -0.6662
17858SOL     OW55250   2.744   6.487   0.167 -0.6186  0.2176  0.1710
17858SOL    HW155251   2.788   6.409   0.200 -0.3419  0.5646  0.6217
17858SOL    HW255252   2.656   6.457   0.145  0.1887 -0.7708 -1.8681
17859SOL     OW55253   2.480   2.245   9.289 -0.4722 -0.5747 -0.5724
17859SOL    HW155254   2.526   2.181   9.234  0.2948  2.8119 -4.0557
17859SOL    HW255255   2.549   2.292   9.334 -0.8262  0.4804 -1.1303
17860SOL     OW55256   0.144   4.598   8.050  0.3178  0.1393  0.3219
17860SOL    HW155257   0.123   4.510   8.018  0.4743 -0.1315  0.9417
17860SOL    HW255258   0.059   4.634   8.078  0.5732 -0.7888  2.4157
17861SOL     OW55259   5.313   4.283   5.661  0.1778 -0.1472 -0.6127
17861SOL    HW155260   5.349   4.222   5.597 -0.6964 -0.3402 -0.9265
17861SOL    HW255261   5.220   4.260   5.667  0.2952 -0.2900  0.9042
17862SOL     OW55262   4.560   1.635   8.973  0.2810 -0.7078 -0.5415
17862SOL    HW155263   4.618   1.604   9.043 -2.3529 -0.8364  1.6776
17862SOL    HW255264   4.548   1.558   8.917  2.6423 -0.5211 -1.3795
17863SOL     OW55265   3.603   4.698   0.133 -0.1223 -0.2900 -0.1982
17863SOL    HW155266   3.526   4.735   0.091 -0.2009 -0.0837  0.1288
17863SOL    HW255267   3.570   4.622   0.181 -0.0927 -0.3006 -0.1948
17864SOL     OW55268   2.408   5.944   7.240 -0.2399 -0.3055 -0.1758
17864SOL    HW155269   2.320   5.937   7.204  0.1262  1.0544 -1.3932
17864SOL    HW255270   2.455   5.868   7.207 -1.2736 -1.6785  1.4502
17865SOL     OW55271   7.444   3.462   4.630 -0.1986  0.5182 -0.6215
17865SOL    HW155272   7.476   3.400   4.695 -1.4945  1.2647  0.7742
17865SOL    HW255273   7.351   3.441   4.621 -0.5109  1.8533 -0.5835
17866SOL     OW55274   0.199   9.164   6.499 -0.3101  0.0920 -0.3369
17866SOL    HW155275   0.272   9.102   6.493 -0.1079  0.1345  1.4523
17866SOL    HW255276   0.127   9.113   6.536 -0.1431  0.8852  1.1342
17867SOL     OW55277   6.878   2.880   6.337  0.1435 -0.3231 -0.0505
17867SOL    HW155278   6.813   2.822   6.377  0.7024  0.4289  2.0411
17867SOL    HW255279   6.841   2.967   6.345  0.9738  0.0086  0.2624
17868SOL     OW55280   0.549   6.092   8.129  0.6602 -0.0133 -0.0217
17868SOL    HW155281   0.478   6.069   8.069  1.0101  0.9423 -0.8118
17868SOL    HW255282   0.512   6.078   8.216  0.1344 -1.3750 -0.4419
17869SOL     OW55283   1.362   2.437   8.332  0.6186 -0.0884  0.2733
17869SOL    HW155284   1.282   2.477   8.366  1.6326  2.0717  0.2207
17869SOL    HW255285   1.377   2.481   8.248 -0.2845 -3.3114 -1.6299
17870SOL     OW55286   9.289   9.084   3.222 -0.0548  0.1146  0.3953
17870SOL    HW155287   9.204   9.102   3.182  0.7761 -0.1379 -1.5495
17870SOL    HW255288   9.333   9.169   3.223  0.2013 -0.0100  0.0617
17871SOL     OW55289   4.793   6.447   0.309  0.4350 -0.2463  0.0337
17871SOL    HW155290   4.736   6.376   0.281  0.3856  0.3029 -1.2968
17871SOL    HW255291   4.861   6.404   0.361 -0.0683 -1.1562 -0.0493
17872SOL     OW55292   3.110   3.273   4.045 -0.0213 -0.6339 -0.2486
17872SOL    HW155293   3.014   3.268   4.046 -0.0280 -0.4696 -0.0495
17872SOL    HW255294   3.128   3.352   3.993 -0.0268  0.1237  0.8728
17873SOL     OW55295   5.494   8.051   1.302 -0.2169  0.0496 -0.0546
17873SOL    HW155296   5.428   7.994   1.342 -0.7859  0.0132 -1.0195
17873SOL    HW255297   5.577   8.020   1.338 -0.8056  0.7639  1.9730
17874SOL     OW55298   1.545   1.267   2.401 -0.3901 -0.1564 -0.2091
17874SOL    HW155299   1.593   1.346   2.427  0.0467 -0.4943  0.0131
17874SOL    HW255300   1.514   1.286   2.312  0.0150  0.1248 -0.2931
17875SOL     OW55301   2.397   4.258   0.522 -0.4504  0.0918 -0.6132
17875SOL    HW155302   2.375   4.238   0.430 -0.2187 -0.7097 -0.4979
17875SOL    HW255303   2.358   4.344   0.537 -0.7179  0.1169 -1.3910
17876SOL     OW55304   3.449   6.028   2.954  0.0656  0.8323 -0.4790
17876SOL    HW155305   3.514   5.962   2.979  0.2992  1.1349 -0.2831
17876SOL    HW255306   3.483   6.110   2.992 -0.4648  0.9759 -0.3141
17877SOL     OW55307   5.943   2.862   3.449 -0.1187  0.3538  0.3074
17877SOL    HW155308   6.020   2.865   3.392 -0.0768  1.1559  0.3908
17877SOL    HW255309   5.974   2.821   3.529  0.2275  0.6639  0.3360
17878SOL     OW55310   7.293   5.386   3.420 -0.5377  0.0130 -0.2708
17878SOL    HW155311   7.283   5.317   3.355 -0.0810 -2.0969  1.8432
17878SOL    HW255312   7.360   5.353   3.480 -1.5812  1.5034  1.7915
17879SOL     OW55313   4.816   4.374   5.515  0.3104  0.1920  0.6168
17879SOL    HW155314   4.753   4.443   5.535  0.6972  0.8695 -0.4571
17879SOL    HW255315   4.788   4.340   5.430  0.5936 -0.4358  0.7697
17880SOL     OW55316   7.181   1.757   6.075 -0.4613 -0.0118 -0.2986
17880SOL    HW155317   7.215   1.668   6.065  0.8169  0.2529  1.3993
17880SOL    HW255318   7.105   1.760   6.016 -1.0089 -2.4614  0.1911
17881SOL     OW55319   3.360   7.287   0.814 -0.5653 -0.3095 -0.1586
17881SOL    HW155320   3.394   7.203   0.846 -1.2056 -1.0490 -1.4045
17881SOL    HW255321   3.413   7.353   0.859  0.3864 -1.3929  0.3249
17882SOL     OW55322   6.124   0.169   8.908  0.5734 -0.0895 -0.1850
17882SOL    HW155323   6.037   0.183   8.945  0.8521  0.7593  0.1649
17882SOL    HW255324   6.119   0.083   8.867 -0.9865  0.7455 -1.8125
17883SOL     OW55325   8.821   7.244   0.553 -0.4407  0.3380 -0.4048
17883SOL    HW155326   8.837   7.187   0.629  0.0579  1.4822  0.3556
17883SOL    HW255327   8.733   7.279   0.568 -0.7527 -0.2224 -0.8792
17884SOL     OW55328   5.831   5.046   9.088 -0.4138  0.2178  0.0944
17884SOL    HW155329   5.920   5.033   9.055 -0.1933 -2.9536  1.6530
17884SOL    HW255330   5.780   5.069   9.011  1.6597  1.5714 -0.9162
17885SOL     OW55331   0.307   3.462   3.531 -0.4377  0.3009 -0.0796
17885SOL    HW155332   0.313   3.512   3.450  1.0626 -1.3055 -1.0014
17885SOL    HW255333   0.341   3.521   3.599  0.4824  0.8580 -1.0105
17886SOL     OW55334   5.852   3.765   8.693  0.4918 -0.1091  0.1685
17886SOL    HW155335   5.943   3.752   8.720  0.9068  0.4818 -0.9455
17886SOL    HW255336   5.840   3.860   8.692 -0.2975 -0.1904  0.8250
17887SOL     OW55337   2.627   5.487   6.442 -0.2700  0.3612  0.0167
17887SOL    HW155338   2.721   5.484   6.426 -0.0953  0.8166  0.8798
17887SOL    HW255339   2.620   5.529   6.528 -1.1682 -1.2152  0.7242
17888SOL     OW55340   1.727   0.757   6.763 -0.2359 -0.4427  0.2573
17888SOL    HW155341   1.784   0.704   6.708  1.0533  1.4563 -0.3073
17888SOL    HW255342   1.756   0.740   6.852 -1.0269 -2.0350  0.2197
17889SOL     OW55343   8.976   6.357   2.510  0.1123 -0.3196  0.3857
17889SOL    HW155344   9.021   6.417   2.570  0.2256 -0.3122  0.2952
17889SOL    HW255345   8.891   6.398   2.494  0.5029  0.2310 -0.3176
17890SOL     OW55346   4.277   6.418   8.606  0.9296 -0.0885 -0.3076
17890SOL    HW155347   4.357   6.454   8.569 -1.4902  2.2027 -3.6157
17890SOL    HW255348   4.227   6.387   8.530 -2.6176  1.3280  1.3028
17891SOL     OW55349   1.753   7.711   4.050 -0.1691  0.4062  0.2771
17891SOL    HW155350   1.710   7.652   3.987 -1.4887  0.9288  0.6644
17891SOL    HW255351   1.846   7.700   4.033 -0.4759 -0.0408 -1.2545
17892SOL     OW55352   2.616   1.933   8.622 -0.1446 -0.1972  0.6620
17892SOL    HW155353   2.652   1.973   8.701 -1.1732  0.0786  0.9946
17892SOL    HW255354   2.610   2.004   8.560  2.6447 -0.8146 -0.4002
17893SOL     OW55355   2.478   6.113   1.772  0.4317  0.5652 -0.0684
17893SOL    HW155356   2.436   6.148   1.693 -1.9134 -2.2552 -0.1907
17893SOL    HW255357   2.434   6.157   1.845 -0.9327 -0.4173 -0.2700
17894SOL     OW55358   3.239   5.674   7.830  0.2860  0.2585 -0.0469
17894SOL    HW155359   3.313   5.615   7.815  1.2196  0.9394  1.8035
17894SOL    HW255360   3.237   5.729   7.751  1.3073 -0.2241 -0.4212
17895SOL     OW55361   4.517   4.389   1.821 -0.0927  0.0848 -0.0319
17895SOL    HW155362   4.484   4.420   1.737  0.8515 -0.2846 -0.5430
17895SOL    HW255363   4.610   4.374   1.807 -0.1280 -0.9866  0.7833
17896SOL     OW55364   7.670   2.547   4.636  0.2333 -0.2609 -0.1795
17896SOL    HW155365   7.717   2.517   4.558  0.1624 -0.7820 -0.0216
17896SOL    HW255366   7.712   2.630   4.658  0.3577 -0.1901 -0.6821
17897SOL     OW55367   5.632   6.774   4.758  0.0551  0.2379 -0.3111
17897SOL    HW155368   5.618   6.799   4.849  0.7399  1.1560 -0.4579
17897SOL    HW255369   5.592   6.687   4.751  2.1432 -0.9068  1.4897
17898SOL     OW55370   3.454   2.828   2.418 -0.1596 -0.1767  0.0153
17898SOL    HW155371   3.377   2.775   2.437 -0.7395  0.5908 -0.1506
17898SOL    HW255372   3.520   2.765   2.387 -0.2656 -1.0104  1.4644
17899SOL     OW55373   6.043   4.137   9.249 -0.4450  0.0124 -0.0185
17899SOL    HW155374   6.076   4.175   9.167  1.5991  1.4154  1.3940
17899SOL    HW255375   6.053   4.042   9.237 -0.1805  0.1987 -1.3905
17900SOL     OW55376   5.859   8.193   5.259 -0.1022  0.5202 -0.4561
17900SOL    HW155377   5.949   8.165   5.244  0.3466  1.4615  0.4206
17900SOL    HW255378   5.854   8.209   5.353 -1.1153  0.6928 -0.5354
17901SOL     OW55379   8.035   1.283   1.714  0.3019 -0.5045  0.1953
17901SOL    HW155380   8.029   1.372   1.748 -1.8418 -0.1729 -0.9646
17901SOL    HW255381   7.986   1.229   1.777 -0.2523 -0.5005 -0.2191
17902SOL     OW55382   5.189   0.132   8.322  0.0293 -0.8320  0.3387
17902SOL    HW155383   5.221   0.221   8.304  1.7228 -1.1183  1.8301
17902SOL    HW255384   5.148   0.105   8.240  1.6939  0.3978 -0.9415
17903SOL     OW55385   5.445   1.483   4.823  0.4533 -0.8569 -0.3353
17903SOL    HW155386   5.366   1.486   4.770  0.8261  1.8334 -0.8176
17903SOL    HW255387   5.418   1.518   4.908  1.2600  0.8379 -0.7488
17904SOL     OW55388   3.971   7.847   5.363  0.1208  0.0714  0.1238
17904SOL    HW155389   3.959   7.752   5.352 -1.0598  0.4879 -2.8862
17904SOL    HW255390   4.062   7.862   5.338 -0.0338 -0.1371 -0.5879
17905SOL     OW55391   6.653   3.695   7.603 -0.0181 -0.5116  0.1954
17905SOL    HW155392   6.701   3.634   7.546  1.6395 -2.5293  3.5448
17905SOL    HW255393   6.573   3.648   7.627 -0.1318 -0.1770  0.4834
17906SOL     OW55394   8.410   5.315   4.224  0.5490 -0.0408  0.0365
17906SOL    HW155395   8.394   5.228   4.260  0.4327 -0.0481 -0.0318
17906SOL    HW255396   8.323   5.348   4.202  0.6388 -0.1657 -0.5276
17907SOL     OW55397   3.348   3.823   8.622  0.1837 -0.1623  0.0831
17907SOL    HW155398   3.346   3.895   8.685  0.5749 -2.1918  2.5350
17907SOL    HW255399   3.283   3.761   8.655  1.7610 -2.1344 -0.4091
17908SOL     OW55400   3.677   8.044   7.841  0.3987 -0.0071  0.2949
17908SOL    HW155401   3.626   8.092   7.775  0.2329 -1.4757 -0.6828
17908SOL    HW255402   3.626   8.053   7.922 -1.1145 -0.8740 -0.5165
17909SOL     OW55403   3.487   2.043   3.376  0.3601  0.4294  0.2253
17909SOL    HW155404   3.424   2.000   3.319 -0.4975  0.7051  0.9581
17909SOL    HW255405   3.571   2.003   3.353 -0.2010 -0.5472 -0.1484
17910SOL     OW55406   0.675   4.400   3.154  0.4758 -0.2586  0.0249
17910SOL    HW155407   0.640   4.339   3.090  0.2855 -0.3069  0.1744
17910SOL    HW255408   0.637   4.372   3.238 -1.2072  1.2770 -0.1965
17911SOL     OW55409   6.922   4.633   9.219 -0.1787  0.0893 -0.6674
17911SOL    HW155410   6.899   4.726   9.218 -0.0699  0.1478  0.8170
17911SOL    HW255411   7.016   4.632   9.237 -0.0274 -0.2863 -1.4825
17912SOL     OW55412   0.177   6.415   4.934 -0.0748 -0.4754  0.6131
17912SOL    HW155413   0.177   6.440   4.842 -3.8277  0.6839  0.8128
17912SOL    HW255414   0.192   6.321   4.934  0.7538 -0.3566 -1.1433
17913SOL     OW55415   4.781   0.251   8.705 -0.1449 -0.8517 -0.2532
17913SOL    HW155416   4.805   0.265   8.613 -1.1904 -0.8434 -0.5390
17913SOL    HW255417   4.704   0.308   8.717  1.8357  1.5548  1.4853
17914SOL     OW55418   3.678   4.847   3.943  0.3647  0.1400 -0.3826
17914SOL    HW155419   3.748   4.807   3.890  2.4238  0.6533  1.8716
17914SOL    HW255420   3.705   4.833   4.033 -1.9002  1.3917  0.5285
17915SOL     OW55421   2.178   2.991   8.404 -0.0527 -0.1201  0.0624
17915SOL    HW155422   2.236   3.052   8.358 -1.6653  0.7832 -0.8214
17915SOL    HW255423   2.200   3.001   8.496  0.6105  0.8204 -0.1985
17916SOL     OW55424   3.509   4.099   2.446  0.4708 -0.1445 -0.1475
17916SOL    HW155425   3.528   4.128   2.357  2.4674 -1.8543 -0.3114
17916SOL    HW255426   3.507   4.180   2.497  1.2692  0.6936 -1.4046
17917SOL     OW55427   6.091   7.796   7.439 -0.2786 -0.4472 -0.0487
17917SOL    HW155428   6.121   7.853   7.368  0.6869 -0.5693  0.2503
17917SOL    HW255429   6.023   7.846   7.483  0.1895  0.2639 -0.1211
17918SOL     OW55430   4.679   4.789   5.657  0.0127 -0.0427 -0.1408
17918SOL    HW155431   4.600   4.833   5.689  0.2920  0.8924 -0.7114
17918SOL    HW255432   4.647   4.717   5.603 -0.4458  0.5840 -0.7062
17919SOL     OW55433   0.024   5.633   0.871 -0.0794  0.2356  0.6955
17919SOL    HW155434   0.039   5.541   0.893 -0.3811  0.7045  3.0078
17919SOL    HW255435  -0.054   5.632   0.815 -0.6919 -0.8313  1.5511
17920SOL     OW55436   1.360   6.952   1.071 -0.0458 -0.2108  0.1602
17920SOL    HW155437   1.414   7.028   1.093 -0.3306  0.2502 -0.7240
17920SOL    HW255438   1.423   6.881   1.058  0.2457 -0.0424  0.6286
17921SOL     OW55439   5.669   0.577   1.150 -0.2576 -0.1199  0.6296
17921SOL    HW155440   5.721   0.502   1.178  0.4930  0.4167  0.7098
17921SOL    HW255441   5.579   0.546   1.150  0.0556 -1.0465  0.5645
17922SOL     OW55442   3.856   4.500   7.691 -0.2958 -0.0880 -0.1103
17922SOL    HW155443   3.882   4.408   7.694  0.0697  0.0376  1.0796
17922SOL    HW255444   3.900   4.535   7.614 -0.5824 -0.9528 -0.6715
17923SOL     OW55445   0.380   0.930   5.731  0.6127  0.1068 -0.3684
17923SOL    HW155446   0.422   0.863   5.785 -0.7630 -0.4562  0.0341
17923SOL    HW255447   0.422   0.921   5.646 -1.6420 -3.4437 -1.2491
17924SOL     OW55448   3.088   5.857   4.426 -0.1687 -0.5155  0.5038
17924SOL    HW155449   3.157   5.852   4.493  1.0273  2.4017 -0.4682
17924SOL    HW255450   3.130   5.899   4.351 -2.3347 -1.0170 -1.0198
17925SOL     OW55451   2.941   3.267   4.478 -0.2911  0.3648  0.2945
17925SOL    HW155452   2.960   3.280   4.571  0.9417  2.3018 -0.2122
17925SOL    HW255453   3.019   3.299   4.432 -0.2492 -2.0122 -1.3610
17926SOL     OW55454   2.198   3.222   1.796  0.3488  0.4387 -0.3380
17926SOL    HW155455   2.197   3.149   1.734  1.7626  0.5373 -0.4744
17926SOL    HW255456   2.128   3.201   1.858  0.4452 -0.7972 -0.6362
17927SOL     OW55457   8.810   3.609   3.798 -0.1923 -0.4060 -0.3367
17927SOL    HW155458   8.820   3.532   3.742  0.3627  0.2897 -1.2214
17927SOL    HW255459   8.816   3.575   3.887 -0.3890 -1.4399 -0.7098
17928SOL     OW55460   0.813   1.259   0.882  0.2658  0.0735  0.1661
17928SOL    HW155461   0.754   1.184   0.891  0.4437 -0.1680 -0.6777
17928SOL    HW255462   0.755   1.335   0.875  0.0834  0.0013  0.8277
17929SOL     OW55463   6.898   8.628   1.122  0.2416 -0.2745  0.7555
17929SOL    HW155464   6.841   8.552   1.113  1.0284 -0.6840 -0.9774
17929SOL    HW255465   6.961   8.620   1.050 -0.5637  2.7746 -0.3766
17930SOL     OW55466   2.960   8.294   0.687 -0.1134 -0.1180 -0.4440
17930SOL    HW155467   2.928   8.246   0.764 -2.8016  1.4584 -0.5170
17930SOL    HW255468   3.003   8.227   0.633  0.7059 -1.4770  1.8081
17931SOL     OW55469   8.537   1.012   0.706  0.2952 -0.0073 -0.3097
17931SOL    HW155470   8.550   1.106   0.698  0.0269  0.2027  1.5231
17931SOL    HW255471   8.459   0.994   0.654 -1.2078  1.2224  1.4434
17932SOL     OW55472   0.945   4.183   6.494  0.3071  0.4703  0.3026
17932SOL    HW155473   0.947   4.230   6.577  0.5298 -0.3861  0.7887
17932SOL    HW255474   0.982   4.245   6.430  0.9821  0.8092  1.0121
17933SOL     OW55475   5.191   6.007   6.218 -0.0834  0.0429 -0.2094
17933SOL    HW155476   5.253   6.056   6.272 -1.2139 -2.8852  4.0433
17933SOL    HW255477   5.230   5.919   6.213 -2.0362 -0.8126 -0.6527
17934SOL     OW55478   4.382   2.262   1.714 -0.5739  0.1816  0.1923
17934SOL    HW155479   4.400   2.351   1.683  0.6286 -0.5633 -1.3057
17934SOL    HW255480   4.314   2.230   1.655 -0.7957 -0.0053  0.5468
17935SOL     OW55481   3.243   4.360   3.925  0.6544 -0.8782 -0.3439
17935SOL    HW155482   3.247   4.372   3.831  0.5545 -0.2571 -0.2739
17935SOL    HW255483   3.166   4.304   3.939 -0.2641  0.3136 -0.5245
17936SOL     OW55484   7.335   3.219   2.418 -0.1267 -0.3595 -0.5133
17936SOL    HW155485   7.305   3.130   2.404 -0.5250 -0.1577 -0.9291
17936SOL    HW255486   7.290   3.271   2.352  3.3123 -0.4727 -3.0557
17937SOL     OW55487   2.851   8.391   3.359  0.2422  0.6052  0.0899
17937SOL    HW155488   2.923   8.449   3.334 -0.7189  2.1982  1.0110
17937SOL    HW255489   2.849   8.325   3.289  0.8437  2.1091 -1.3688
17938SOL     OW55490   3.106   3.985   7.527  0.4545 -0.5909 -0.1336
17938SOL    HW155491   3.113   4.068   7.481 -0.3217 -0.7242 -0.4970
17938SOL    HW255492   3.094   4.009   7.619 -3.0136 -0.2036 -0.6129
17939SOL     OW55493   2.138   2.671   8.432 -0.5375  0.1030  0.4854
17939SOL    HW155494   2.147   2.766   8.440 -1.0862  0.4550 -2.4168
17939SOL    HW255495   2.130   2.656   8.338  2.2926 -3.0677  0.6690
17940SOL     OW55496   0.282   5.982   1.681  0.0052  0.2507  0.2683
17940SOL    HW155497   0.233   6.057   1.713  2.5938  2.3299 -0.4379
17940SOL    HW255498   0.274   5.987   1.585  1.2563  0.4292  0.1552
17941SOL     OW55499   0.619   8.920   3.547 -0.2618 -0.1334  0.4846
17941SOL    HW155500   0.659   8.950   3.628 -1.0981  1.8543  0.1883
17941SOL    HW255501   0.614   8.999   3.492 -2.5530 -0.8072 -0.3163
17942SOL     OW55502   9.065   5.409   3.899 -0.2668  0.0316  0.0431
17942SOL    HW155503   8.990   5.350   3.886 -0.4878  0.1614  0.7176
17942SOL    HW255504   9.110   5.408   3.815  0.4291 -2.0568  0.4014
17943SOL     OW55505   8.797   6.406   0.656  0.4328 -0.4055  0.1031
17943SOL    HW155506   8.792   6.380   0.564 -0.7311 -1.8534  0.5604
17943SOL    HW255507   8.814   6.500   0.654 -1.7839 -0.0118 -1.5917
17944SOL     OW55508   6.280   3.461   7.603  0.6706 -0.0417  0.0191
17944SOL    HW155509   6.301   3.376   7.643  0.1651  0.7898  2.0779
17944SOL    HW255510   6.293   3.525   7.673  0.2578  1.5093 -1.2919
17945SOL     OW55511   7.401   5.403   6.542  0.3987  0.6336  0.4579
17945SOL    HW155512   7.306   5.412   6.539  0.1829 -1.5174 -0.1531
17945SOL    HW255513   7.427   5.402   6.450  0.9366  0.5854  0.6101
17946SOL     OW55514   4.781   3.372   2.273 -0.6007  0.0184 -0.5937
17946SOL    HW155515   4.764   3.278   2.283 -1.1523  0.1622 -0.1141
17946SOL    HW255516   4.753   3.393   2.184 -1.4684 -0.0658 -0.3449
17947SOL     OW55517   3.493   7.810   5.890 -0.1217  0.5558 -0.4702
17947SOL    HW155518   3.560   7.777   5.830  0.5285 -0.0313  0.5664
17947SOL    HW255519   3.542   7.863   5.953 -0.2568 -1.8881  1.7841
17948SOL     OW55520   0.402   5.775   2.287 -0.0354 -0.3296  0.9225
17948SOL    HW155521   0.428   5.703   2.230 -1.8283 -0.6267  0.4329
17948SOL    HW255522   0.323   5.742   2.331 -0.0945  0.8341  1.7043
17949SOL     OW55523   9.252   1.434   8.256  0.2850 -0.1113 -0.2864
17949SOL    HW155524   9.275   1.503   8.194  3.2231  1.6268  2.5647
17949SOL    HW255525   9.198   1.477   8.322  0.4856 -0.9602  0.4566
17950SOL     OW55526   2.614   9.192   7.955  0.0477 -0.6297  0.6146
17950SOL    HW155527   2.619   9.282   7.924  1.8536 -0.8792  0.1088
17950SOL    HW255528   2.521   9.175   7.965 -0.2739  1.7106  1.9732
17951SOL     OW55529   3.858   5.649   1.266  0.6579  0.0949 -0.2354
17951SOL    HW155530   3.878   5.737   1.298 -0.6851 -0.2464  1.5930
17951SOL    HW255531   3.859   5.658   1.170  2.4263  1.6510 -0.1135
17952SOL     OW55532   8.774   0.195   0.778  0.4354  0.4897  0.5405
17952SOL    HW155533   8.757   0.110   0.817 -0.5521 -0.0383 -1.0110
17952SOL    HW255534   8.701   0.250   0.808  0.7114  0.6134  0.9914
17953SOL     OW55535   1.181   0.974   2.535  0.2302 -0.4833 -0.4913
17953SOL    HW155536   1.184   0.936   2.623 -1.2366 -1.8282 -1.0065
17953SOL    HW255537   1.241   0.921   2.483 -0.3048 -0.8481 -0.7383
17954SOL     OW55538   6.187   3.100   8.309 -0.1427 -0.1476 -0.1859
17954SOL    HW155539   6.203   3.176   8.253 -1.6159 -0.3746 -0.9490
17954SOL    HW255540   6.247   3.033   8.278 -1.8542 -0.7100 -2.4289
17955SOL     OW55541   1.568   4.814   4.957 -0.7101  0.2354  0.2030
17955SOL    HW155542   1.565   4.764   4.875 -0.9412 -1.9604  1.5181
17955SOL    HW255543   1.661   4.831   4.972 -0.7410  1.6860 -1.1026
17956SOL     OW55544   2.246   6.106   7.716 -0.4765 -0.6586 -0.8860
17956SOL    HW155545   2.258   6.026   7.768 -2.2859 -0.1673  0.3097
17956SOL    HW255546   2.313   6.100   7.648  0.8171 -2.1465  0.4759
17957SOL     OW55547   6.573   2.021   8.030 -0.1693  0.2484 -0.1818
17957SOL    HW155548   6.502   1.997   8.090  0.0381 -1.5248 -0.6350
17957SOL    HW255549   6.620   2.091   8.076  0.8788 -2.0712  2.3757
17958SOL     OW55550   8.369   9.258   5.253 -0.8307  0.1344  0.5327
17958SOL    HW155551   8.361   9.179   5.199  0.8061  0.2728  0.0579
17958SOL    HW255552   8.342   9.230   5.341 -2.0334 -0.4795 -0.0170
17959SOL     OW55553   1.192   2.049   2.675  0.1247 -0.5794  0.6252
17959SOL    HW155554   1.141   1.971   2.650  0.3566 -0.4442 -0.2570
17959SOL    HW255555   1.137   2.122   2.648  0.1989 -0.4329  0.8748
17960SOL     OW55556   5.029   6.043   1.336  0.2077 -0.3322  0.1325
17960SOL    HW155557   5.117   6.072   1.359  0.7947 -0.5786 -1.7527
17960SOL    HW255558   5.028   5.949   1.353 -0.3686  0.0309  2.1846
17961SOL     OW55559   8.237   1.534   3.002  0.0993  0.0627 -0.0264
17961SOL    HW155560   8.168   1.473   2.978 -0.4130 -0.0689  1.7138
17961SOL    HW255561   8.201   1.584   3.075  2.3739 -1.0434  1.9514
17962SOL     OW55562   4.020   8.791   5.049 -0.2192 -0.3663  0.4639
17962SOL    HW155563   3.981   8.874   5.078 -1.6578 -0.4824 -1.0270
17962SOL    HW255564   3.982   8.725   5.107  1.3000  0.0450  1.9712
17963SOL     OW55565   4.904   3.597   0.192 -0.0807 -0.0333 -0.4368
17963SOL    HW155566   4.810   3.585   0.181 -0.0475 -0.2791 -0.4550
17963SOL    HW255567   4.937   3.615   0.104 -0.3176  1.5097 -0.2231
17964SOL     OW55568   6.160   6.771   5.073  0.0607 -0.2670  0.7901
17964SOL    HW155569   6.109   6.696   5.104 -1.9959  0.1537 -1.4888
17964SOL    HW255570   6.150   6.770   4.978  1.5891  1.7917  0.5655
17965SOL     OW55571   5.504   1.825   3.363 -1.0046 -0.5495 -0.0914
17965SOL    HW155572   5.447   1.781   3.300  0.1967  0.0302 -1.6055
17965SOL    HW255573   5.553   1.888   3.311  0.8417 -0.8484  1.2375
17966SOL     OW55574   0.096   5.671   8.047  0.3395  0.3012  0.2014
17966SOL    HW155575   0.001   5.684   8.041  0.4227  0.9525  0.3150
17966SOL    HW255576   0.105   5.584   8.086 -0.2158  0.7451  1.3506
17967SOL     OW55577   3.635   3.185   1.296  0.1536 -0.0154 -1.0150
17967SOL    HW155578   3.721   3.217   1.267  0.1993  1.6914  0.8685
17967SOL    HW255579   3.578   3.261   1.287 -0.4344 -0.2400  0.6829
17968SOL     OW55580   3.863   1.202   0.830  0.0154 -0.6538  0.2807
17968SOL    HW155581   3.925   1.136   0.860 -0.5639 -1.0060  0.7212
17968SOL    HW255582   3.889   1.221   0.740  1.1550 -0.3271  0.6671
17969SOL     OW55583   2.917   3.195   8.638  0.4255 -0.2789 -0.9246
17969SOL    HW155584   2.932   3.124   8.576 -0.2288  0.0866 -1.4977
17969SOL    HW255585   2.938   3.275   8.589 -0.6715  0.0488 -0.8659
17970SOL     OW55586   8.070   1.426   0.477  0.3828 -0.2055 -0.0900
17970SOL    HW155587   8.070   1.518   0.505  1.3395 -0.5155  0.9324
17970SOL    HW255588   8.115   1.427   0.393  0.0746  0.3121 -0.2541
17971SOL     OW55589   3.246   7.143   4.590 -0.0684  1.1374  0.7155
17971SOL    HW155590   3.278   7.138   4.500  0.0304  1.0694  0.7533
17971SOL    HW255591   3.151   7.153   4.582 -0.2638 -0.5597  0.6251
17972SOL     OW55592   5.150   5.744   3.398 -0.9711 -0.0280  0.0913
17972SOL    HW155593   5.054   5.752   3.394 -1.0042 -0.2641  0.4055
17972SOL    HW255594   5.173   5.768   3.487 -0.8457 -1.0317  0.3390
17973SOL     OW55595   9.140   6.924   6.812 -0.7424  0.0578 -0.1671
17973SOL    HW155596   9.092   7.003   6.836  0.1710  0.5315  0.0950
17973SOL    HW255597   9.151   6.876   6.894 -2.3385 -0.9470 -0.4936
17974SOL     OW55598   8.498   5.197   7.625 -0.1537 -0.4931  0.2901
17974SOL    HW155599   8.534   5.260   7.562  1.0221  0.5524  1.9485
17974SOL    HW255600   8.571   5.138   7.643  0.0705  0.2601  1.9527
17975SOL     OW55601   1.111   8.541   3.105  0.0695  0.0943 -0.2015
17975SOL    HW155602   1.047   8.576   3.043  0.8839  0.0600 -1.0669
17975SOL    HW255603   1.059   8.512   3.180 -1.1168 -1.5654 -1.6332
17976SOL     OW55604   6.756   3.893   5.276 -0.1896  0.6558  0.0627
17976SOL    HW155605   6.740   3.878   5.183 -0.9124 -0.8185  0.4082
17976SOL    HW255606   6.675   3.933   5.309 -0.8448 -1.0012  0.5228
17977SOL     OW55607   9.075   1.372   0.602 -0.1629  0.3288  0.1181
17977SOL    HW155608   8.984   1.390   0.580  0.2183  1.5232 -0.5083
17977SOL    HW255609   9.125   1.414   0.532  0.8164 -1.6971 -0.4447
17978SOL     OW55610   0.639   9.120   1.221  0.3416 -0.0631 -0.0039
17978SOL    HW155611   0.604   9.061   1.288  1.1511 -0.5724 -0.0230
17978SOL    HW255612   0.619   9.208   1.254  0.2314 -0.3201  0.6259
17979SOL     OW55613   0.428   1.216   8.638 -0.2864 -0.3920  0.0976
17979SOL    HW155614   0.371   1.198   8.563  1.0103 -0.9742 -0.7709
17979SOL    HW255615   0.459   1.129   8.665 -1.5701 -0.2871  1.9859
17980SOL     OW55616   7.936   7.607   0.691 -0.2112  0.6641  0.5633
17980SOL    HW155617   7.950   7.654   0.774 -1.7017 -0.6416  1.5628
17980SOL    HW255618   7.842   7.593   0.687 -0.1466  0.7283 -1.3772
17981SOL     OW55619   3.972   2.335   6.447  0.7231 -0.2489  0.0596
17981SOL    HW155620   3.932   2.255   6.414  0.4771 -0.8834  1.8430
17981SOL    HW255621   3.975   2.323   6.542  2.8361  0.8671  0.1591
17982SOL     OW55622   0.128   7.968   1.526 -0.4723 -0.6260  0.2501
17982SOL    HW155623   0.212   7.996   1.489 -1.3804 -1.3238 -2.4532
17982SOL    HW255624   0.147   7.883   1.565  0.3229 -0.2494  0.7138
17983SOL     OW55625   8.858   3.765   2.158  0.1993  0.1257 -0.0766
17983SOL    HW155626   8.832   3.725   2.241 -1.8172  0.5049 -0.5072
17983SOL    HW255627   8.779   3.810   2.127  1.7496  2.4298 -0.7762
17984SOL     OW55628   3.802   1.752   2.397  0.5782  0.5831  1.3687
17984SOL    HW155629   3.715   1.729   2.367  0.9855  0.8461 -0.0399
17984SOL    HW255630   3.801   1.848   2.403  1.1021  0.6735  0.2499
17985SOL     OW55631   1.027   3.501   6.136 -0.6267  0.4498  0.6848
17985SOL    HW155632   1.004   3.592   6.149  0.9481  1.0951 -0.8217
17985SOL    HW255633   0.972   3.453   6.198 -1.5785  2.3890  1.3814
17986SOL     OW55634   6.290   7.466   3.776 -0.0599 -0.6616 -0.5024
17986SOL    HW155635   6.258   7.397   3.834  0.3249 -0.9874 -0.6768
17986SOL    HW255636   6.376   7.435   3.747  0.1737 -0.0398 -0.4623
17987SOL     OW55637   0.423   9.129   1.819  0.4599  0.3294 -0.3140
17987SOL    HW155638   0.464   9.214   1.832 -0.7407  1.2351 -2.2777
17987SOL    HW255639   0.352   9.145   1.757 -0.4066 -1.9219  0.0256
17988SOL     OW55640   1.628   6.595   7.185  0.0499 -0.2803  0.4572
17988SOL    HW155641   1.550   6.647   7.167  0.6159  0.7349  0.9268
17988SOL    HW255642   1.594   6.506   7.198 -0.8647 -0.1324 -0.8014
17989SOL     OW55643   9.152   6.382   0.678  0.0907 -0.2907 -0.0590
17989SOL    HW155644   9.242   6.362   0.705  0.8002  2.7371 -0.0357
17989SOL    HW255645   9.098   6.353   0.752  1.1724 -0.8146  0.5372
17990SOL     OW55646   7.606   7.604   2.704 -0.0716 -0.3695  0.4574
17990SOL    HW155647   7.517   7.610   2.669  0.3014 -0.4714 -0.5051
17990SOL    HW255648   7.600   7.536   2.772 -0.2764 -1.8565 -1.0214
17991SOL     OW55649   7.694   1.098   5.976  0.7151 -0.7144  0.1112
17991SOL    HW155650   7.712   1.142   6.059  0.3954 -0.1497 -0.1206
17991SOL    HW255651   7.720   1.160   5.908  0.8783 -1.1340 -0.2174
17992SOL     OW55652   0.451   2.188   0.150 -0.5227  0.2125 -0.6495
17992SOL    HW155653   0.460   2.283   0.156 -1.0759  0.3316 -1.6192
17992SOL    HW255654   0.483   2.166   0.062 -0.8022 -0.4477 -0.5913
17993SOL     OW55655   5.369   8.487   0.418  0.2943  0.3515 -0.2718
17993SOL    HW155656   5.433   8.450   0.478  0.0116 -1.5539 -1.1020
17993SOL    HW255657   5.285   8.480   0.464 -0.0978 -2.1522 -1.2562
17994SOL     OW55658   3.397   7.621   1.441 -0.2613 -0.2074  0.2582
17994SOL    HW155659   3.403   7.608   1.346  0.6635  1.7865  0.0301
17994SOL    HW255660   3.304   7.608   1.461 -1.0448  2.3934 -1.4196
17995SOL     OW55661   7.129   0.876   2.825 -0.0579 -0.1660  0.5078
17995SOL    HW155662   7.219   0.863   2.794 -0.0387 -0.6962  0.7834
17995SOL    HW255663   7.138   0.894   2.918 -0.3000 -1.1562  0.7300
17996SOL     OW55664   1.873   7.224   6.119 -0.4090 -0.5803 -0.3845
17996SOL    HW155665   1.964   7.210   6.145 -1.1433 -2.4092  1.2986
17996SOL    HW255666   1.840   7.292   6.178 -0.3889 -0.5336 -0.4263
17997SOL     OW55667   8.273   0.272   2.107  0.7864 -0.5311 -0.3799
17997SOL    HW155668   8.177   0.277   2.110  0.9030  1.0711  2.9543
17997SOL    HW255669   8.291   0.192   2.057 -2.2693 -0.6099 -1.4765
17998SOL     OW55670   6.658   6.744   8.484  0.1522 -0.2823 -0.0279
17998SOL    HW155671   6.661   6.820   8.426  0.6927 -1.2167 -1.2446
17998SOL    HW255672   6.706   6.772   8.563  2.6851 -0.2405 -1.5351
17999SOL     OW55673   8.272   1.777   5.009 -0.1509 -0.2195 -0.2998
17999SOL    HW155674   8.206   1.708   5.019 -1.4821  0.9283 -0.9854
17999SOL    HW255675   8.350   1.731   4.978 -1.4346 -1.2371 -2.0849
18000SOL     OW55676   7.082   4.054   7.183  0.5665 -0.2688  0.3032
18000SOL    HW155677   7.084   3.971   7.135 -1.6953  0.4110 -1.0383
18000SOL    HW255678   7.029   4.035   7.261 -0.1382 -0.0421 -0.1156
18001SOL     OW55679   8.927   5.157   3.873  0.2537 -0.0948 -0.3238
18001SOL    HW155680   9.013   5.151   3.914  1.2096  0.4789 -2.1897
18001SOL    HW255681   8.884   5.075   3.897  1.2026 -0.2701  0.8559
18002SOL     OW55682   4.520   5.956   5.350 -0.1858  0.0210  0.2483
18002SOL    HW155683   4.477   6.002   5.278 -2.2472 -2.8418 -0.4559
18002SOL    HW255684   4.603   5.927   5.314 -1.3963 -1.7689 -1.1710
18003SOL     OW55685   3.203   1.492   5.316  0.2479  0.3386 -0.1095
18003SOL    HW155686   3.204   1.402   5.348  3.8365 -0.0528 -1.1388
18003SOL    HW255687   3.188   1.484   5.221 -2.0084  0.9934  0.1771
18004SOL     OW55688   9.277   5.778   1.994 -0.0794 -0.3173 -0.1437
18004SOL    HW155689   9.370   5.797   2.006  0.1306 -2.1927  1.3769
18004SOL    HW255690   9.275   5.725   1.914 -0.2964  2.9373 -2.3713
18005SOL     OW55691   5.694   8.520   0.105  0.2184 -0.0960 -0.2904
18005SOL    HW155692   5.696   8.446   0.166 -0.0548  0.3331  0.2387
18005SOL    HW255693   5.770   8.573   0.129  0.9083 -0.6428 -1.2263
18006SOL     OW55694   1.469   6.553   1.635  0.3237 -0.3692  0.2052
18006SOL    HW155695   1.541   6.571   1.695  1.0952  1.3770 -1.2017
18006SOL    HW255696   1.390   6.578   1.684  0.7758 -0.9267  1.2253
18007SOL     OW55697   2.539   4.620   1.492 -0.7027  0.4430  0.5516
18007SOL    HW155698   2.617   4.564   1.490 -2.0496 -1.5054  1.1023
18007SOL    HW255699   2.564   4.697   1.441  1.4072 -0.3830  0.2766
18008SOL     OW55700   1.361   2.030   5.966  0.5845 -0.4562 -0.0891
18008SOL    HW155701   1.308   2.080   5.904 -1.1296 -2.9421 -0.6758
18008SOL    HW255702   1.314   2.037   6.049  0.0573 -1.5360 -0.2954
18009SOL     OW55703   0.328   2.996   8.388 -0.7256  0.1384  0.8750
18009SOL    HW155704   0.390   3.061   8.356 -0.1100 -0.5802  0.5684
18009SOL    HW255705   0.280   3.040   8.458  0.2270  0.6809  1.2020
18010SOL     OW55706   2.269   2.121   8.971 -0.2751 -0.1827  0.2314
18010SOL    HW155707   2.303   2.209   8.958 -0.7493  0.1984  1.5273
18010SOL    HW255708   2.279   2.079   8.886  0.9087  0.7866 -0.1249
18011SOL     OW55709   0.146   6.705   5.221  0.6192  0.2543 -0.2848
18011SOL    HW155710   0.102   6.717   5.305  1.8666 -3.3471  0.9859
18011SOL    HW255711   0.082   6.734   5.156 -1.4409  0.4295  1.7555
18012SOL     OW55712   2.281   2.938   8.657  0.3345  0.4927 -0.4643
18012SOL    HW155713   2.263   2.992   8.734  2.0009  0.3141  0.0756
18012SOL    HW255714   2.296   2.850   8.693  2.1288  0.6132 -0.8639
18013SOL     OW55715   1.776   6.706   1.748 -0.1771 -0.3137 -0.1416
18013SOL    HW155716   1.731   6.732   1.829 -0.8257  0.6971 -0.8126
18013SOL    HW255717   1.763   6.780   1.689 -1.4679 -1.9002 -1.8843
18014SOL     OW55718   3.296   8.647   1.702 -0.0109  0.4565  0.3746
18014SOL    HW155719   3.212   8.672   1.665 -1.3441 -1.0008  2.3134
18014SOL    HW255720   3.297   8.684   1.790  1.2745  0.2744  0.4569
18015SOL     OW55721   5.425   7.286   7.463 -1.0231  0.1949  0.0818
18015SOL    HW155722   5.411   7.193   7.442 -0.9398  0.6604 -2.1678
18015SOL    HW255723   5.466   7.322   7.385 -2.1566  2.3955  0.4568
18016SOL     OW55724   8.806   9.116   3.543 -0.0197  0.0913 -0.2386
18016SOL    HW155725   8.859   9.108   3.622 -0.6439  1.1367  0.2856
18016SOL    HW255726   8.731   9.058   3.558 -0.8768  1.3823  0.5535
18017SOL     OW55727   7.040   4.560   4.679 -0.0691 -0.0654  0.1871
18017SOL    HW155728   7.088   4.643   4.678 -1.7317  0.9211 -1.0025
18017SOL    HW255729   7.066   4.516   4.598  0.9999 -0.8421  0.9360
18018SOL     OW55730   2.615   3.229   2.053 -0.4694 -0.3172 -0.1995
18018SOL    HW155731   2.523   3.256   2.051 -0.1998  0.6679  0.1591
18018SOL    HW255732   2.664   3.308   2.028  0.3054 -0.6809  0.1447
18019SOL     OW55733   6.420   3.366   1.760  0.0777  0.0725 -0.1405
18019SOL    HW155734   6.442   3.286   1.808  0.6831  2.3478  3.5526
18019SOL    HW255735   6.327   3.356   1.738 -0.5350 -0.5762  2.5798
18020SOL     OW55736   2.875   8.742   8.126 -0.2292  0.3095 -0.7133
18020SOL    HW155737   2.891   8.675   8.193  0.9318  0.0690 -1.2268
18020SOL    HW255738   2.810   8.800   8.166 -1.5349 -1.3282 -0.4003
18021SOL     OW55739   3.008   2.712   8.334 -0.1085 -0.2173 -0.3990
18021SOL    HW155740   3.077   2.768   8.299 -0.5044  0.8154  0.4314
18021SOL    HW255741   2.983   2.656   8.261  0.0930  0.8891 -1.3304
18022SOL     OW55742   1.231   4.462   1.407 -0.2787 -0.1395 -0.1140
18022SOL    HW155743   1.229   4.430   1.497  1.7675  1.4817  0.5380
18022SOL    HW255744   1.160   4.526   1.403 -1.3399 -1.2849 -0.1071
18023SOL     OW55745   7.460   5.604   4.708  0.3787 -0.3775  0.1348
18023SOL    HW155746   7.496   5.655   4.781 -0.8913  0.2213  0.3543
18023SOL    HW255747   7.440   5.519   4.747  0.8624 -0.4648  0.1918
18024SOL     OW55748   7.879   6.937   6.827  0.0884  0.0571  0.6784
18024SOL    HW155749   7.858   6.844   6.818  1.0200  0.0363 -1.5338
18024SOL    HW255750   7.794   6.982   6.824 -0.1758 -0.5318 -1.1844
18025SOL     OW55751   4.857   7.213   8.594  0.3270  0.6776  0.4619
18025SOL    HW155752   4.806   7.294   8.603  0.0479  0.3595  1.8124
18025SOL    HW255753   4.907   7.207   8.675  1.7870  0.4657 -0.4390
18026SOL     OW55754   8.846   4.998   4.214  0.1046 -0.4998 -0.0705
18026SOL    HW155755   8.853   5.056   4.290 -0.2308  0.4947 -0.7800
18026SOL    HW255756   8.811   4.917   4.249 -0.4793  0.1074  0.7736
18027SOL     OW55757   2.768   9.146   2.760  0.0447 -0.1897  0.6105
18027SOL    HW155758   2.710   9.078   2.794 -2.2316  1.1340 -0.4663
18027SOL    HW255759   2.764   9.136   2.665  1.4007  0.0980  0.5049
18028SOL     OW55760   1.805   7.611   4.539  0.4141 -0.2582 -0.4753
18028SOL    HW155761   1.782   7.677   4.604  0.7380 -2.1583  1.6281
18028SOL    HW255762   1.762   7.641   4.458 -0.2018  2.0070  0.6519
18029SOL     OW55763   3.626   5.389   3.539 -0.9787  0.0218  0.2131
18029SOL    HW155764   3.589   5.345   3.616  0.2455 -0.5710  0.4910
18029SOL    HW255765   3.553   5.438   3.501 -1.6100  0.3114  1.7485
18030SOL     OW55766   2.638   5.136   4.286 -0.1212  0.7799 -0.0877
18030SOL    HW155767   2.640   5.158   4.379  0.9096  1.6315 -0.2982
18030SOL    HW255768   2.547   5.113   4.268 -0.6703  2.2619  0.7591
18031SOL     OW55769   7.872   8.634   1.755 -0.6385  0.1894  0.6508
18031SOL    HW155770   7.846   8.688   1.681 -4.5658 -0.1357  1.7057
18031SOL    HW255771   7.944   8.580   1.722 -1.0273  1.4093 -2.3068
18032SOL     OW55772   3.760   9.126   0.882  0.4254  0.0537  0.3826
18032SOL    HW155773   3.774   9.220   0.870  2.2612 -0.1107  1.0834
18032SOL    HW255774   3.739   9.094   0.794 -0.3273  1.1273  0.1616
18033SOL     OW55775   7.430   5.609   5.490  0.4246  0.0090  0.2176
18033SOL    HW155776   7.399   5.519   5.479  1.2898 -0.1924 -0.6397
18033SOL    HW255777   7.467   5.610   5.578  0.3807 -0.4643  0.2480
18034SOL     OW55778   1.588   1.104   8.495 -0.0400  0.3231  0.0819
18034SOL    HW155779   1.631   1.021   8.477  0.4154  0.7997 -1.1264
18034SOL    HW255780   1.652   1.156   8.543  0.2828  0.5587 -0.5878
18035SOL     OW55781   1.436   0.382   2.919 -0.6464 -0.1802  0.4227
18035SOL    HW155782   1.406   0.361   3.007  0.8448 -0.0153  0.9851
18035SOL    HW255783   1.431   0.299   2.871 -1.1591 -0.3387  0.7489
18036SOL     OW55784   2.526   6.135   7.045 -0.2917  0.5370  0.3136
18036SOL    HW155785   2.485   6.080   7.111 -1.0331 -0.5698 -1.0368
18036SOL    HW255786   2.470   6.213   7.041 -1.5038 -0.3706 -0.5628
18037SOL     OW55787   2.887   3.628   8.115  0.3969  0.0721  0.2575
18037SOL    HW155788   2.960   3.685   8.137  0.2435  0.7560 -0.9297
18037SOL    HW255789   2.813   3.662   8.166  1.1833 -1.4407  2.4876
18038SOL     OW55790   7.722   9.207   0.585 -0.3172  0.1559  0.1983
18038SOL    HW155791   7.805   9.241   0.617 -1.2229  1.2819  1.4247
18038SOL    HW255792   7.657   9.244   0.644 -1.5925 -1.6338 -0.0472
18039SOL     OW55793   0.409   6.470   0.083 -0.5193 -0.0407 -0.0288
18039SOL    HW155794   0.340   6.491   0.020 -0.1416  1.0063 -0.0978
18039SOL    HW255795   0.477   6.426   0.031  0.0089  1.2571 -0.4572
18040SOL     OW55796   5.560   6.480   6.011 -0.0509  0.1483 -0.7155
18040SOL    HW155797   5.506   6.506   5.936  2.8672  1.1003 -2.5300
18040SOL    HW255798   5.636   6.537   6.007  2.0685 -2.4945  0.6657
18041SOL     OW55799   5.813   4.177   0.951  0.1573 -0.4392  0.7993
18041SOL    HW155800   5.816   4.244   1.019  0.2928  0.5150 -0.1362
18041SOL    HW255801   5.803   4.226   0.869  0.6254 -1.5423  0.0701
18042SOL     OW55802   4.817   8.020   4.935  0.2251 -0.8280 -0.3325
18042SOL    HW155803   4.869   7.960   4.987 -0.0011 -0.0734  0.7762
18042SOL    HW255804   4.834   8.106   4.972 -1.0658 -0.4566 -0.5555
18043SOL     OW55805   5.758   9.226   6.534 -0.0613  0.2789  0.2440
18043SOL    HW155806   5.808   9.148   6.559 -2.6315 -1.9692 -1.3629
18043SOL    HW255807   5.729   9.264   6.617  1.9059  0.0206  1.0779
18044SOL     OW55808   0.844   3.707   0.420  0.5086  0.1232 -0.0885
18044SOL    HW155809   0.939   3.700   0.410  0.5149 -1.8033  0.9628
18044SOL    HW255810   0.814   3.750   0.340  2.2383  0.6092 -0.5027
18045SOL     OW55811   3.812   1.033   2.764 -0.2618 -0.3782 -0.3340
18045SOL    HW155812   3.801   1.085   2.685 -1.8375 -1.6166 -0.9707
18045SOL    HW255813   3.736   1.055   2.818 -0.7491 -1.6852 -0.4505
18046SOL     OW55814   4.441   5.397   8.819 -0.5199  0.3123  0.4121
18046SOL    HW155815   4.353   5.397   8.781 -1.5063 -0.1555  2.6101
18046SOL    HW255816   4.455   5.306   8.846  0.5506  0.4362  0.2861
18047SOL     OW55817   3.183   2.572   7.143  0.6377  0.6186  0.1331
18047SOL    HW155818   3.194   2.642   7.078 -5.3292  0.5806 -1.1980
18047SOL    HW255819   3.135   2.614   7.215  0.5268 -1.1645  1.1232
18048SOL     OW55820   1.847   5.087   7.947 -0.0870 -0.4784 -0.2302
18048SOL    HW155821   1.918   5.152   7.944 -1.0764  0.6375  0.2211
18048SOL    HW255822   1.825   5.081   8.040  2.3134 -4.0420  0.2021
18049SOL     OW55823   0.097   0.327   8.970  0.6131  0.2517 -1.0088
18049SOL    HW155824   0.108   0.385   9.045 -1.0072  0.0201 -0.5774
18049SOL    HW255825   0.165   0.260   8.981  0.2289  0.0720  0.3898
18050SOL     OW55826   5.424   7.917   9.293 -0.1633 -0.4771  0.3760
18050SOL    HW155827   5.365   7.909   9.218 -0.6336  2.3546  0.3884
18050SOL    HW255828   5.512   7.902   9.257 -0.4217  0.5301 -0.6775
18051SOL     OW55829   9.070   0.680   4.610 -0.3601 -0.7127 -0.0533
18051SOL    HW155830   9.004   0.640   4.554 -1.1088 -0.7788  0.8729
18051SOL    HW255831   9.136   0.612   4.622  1.0831  0.1063 -2.8908
18052SOL     OW55832   6.828   3.718   3.671 -0.3037  0.2335  0.0132
18052SOL    HW155833   6.782   3.640   3.702 -1.0925  0.3601 -0.8188
18052SOL    HW255834   6.764   3.763   3.616  0.4910  0.9212 -0.3568
18053SOL     OW55835   2.189   2.904   0.429 -0.4526  0.1058  0.1918
18053SOL    HW155836   2.198   2.929   0.521  0.3837 -2.4293  0.8525
18053SOL    HW255837   2.278   2.886   0.400 -0.9543 -1.5700 -0.3603
18054SOL     OW55838   4.419   8.733   4.653  0.5791  0.1600  0.5869
18054SOL    HW155839   4.412   8.802   4.719  0.1414 -0.3242  1.0521
18054SOL    HW255840   4.379   8.657   4.694  0.3413 -0.1581 -0.2224
18055SOL     OW55841   3.298   1.051   1.667 -0.1367  0.2127 -0.4220
18055SOL    HW155842   3.337   1.133   1.696 -2.9064  2.1254 -1.9511
18055SOL    HW255843   3.214   1.047   1.713  0.0589 -1.8866 -0.1914
18056SOL     OW55844   4.458   2.551   1.765  0.3464 -0.7251  0.1249
18056SOL    HW155845   4.370   2.585   1.750 -0.0770 -1.3602  1.1273
18056SOL    HW255846   4.480   2.580   1.853  1.1947 -0.4577 -0.1770
18057SOL     OW55847   6.969   2.905   8.364 -0.0635  0.4988  0.3081
18057SOL    HW155848   7.048   2.885   8.415 -0.6132  1.3711  1.5339
18057SOL    HW255849   6.917   2.962   8.422 -1.7201 -0.3089 -0.3486
18058SOL     OW55850   5.795   7.029   0.566 -0.2520  0.3478  0.2586
18058SOL    HW155851   5.828   7.053   0.479 -1.2740 -0.7991 -0.4533
18058SOL    HW255852   5.720   7.087   0.580 -0.6480 -0.0909 -0.0234
18059SOL     OW55853   4.730   5.710   1.796  0.5063 -0.0994 -0.0129
18059SOL    HW155854   4.817   5.718   1.837 -0.0918  0.7223  1.1463
18059SOL    HW255855   4.739   5.753   1.711  0.7189  1.8458  0.9457
18060SOL     OW55856   1.281   3.715   5.317  0.0220 -0.3083  0.6685
18060SOL    HW155857   1.196   3.690   5.281  0.6907 -1.8808  0.1312
18060SOL    HW255858   1.262   3.744   5.406 -0.9355 -1.9128  1.0179
18061SOL     OW55859   0.636   1.623   8.439 -0.1002  0.1662  0.1634
18061SOL    HW155860   0.563   1.604   8.380 -0.8977  0.6488  0.9778
18061SOL    HW255861   0.639   1.548   8.498  0.1759  0.0612  0.0139
18062SOL     OW55862   0.044   8.593   0.511 -0.3845  0.2897  0.4000
18062SOL    HW155863  -0.010   8.524   0.473 -0.1079  0.0917  0.3636
18062SOL    HW255864   0.116   8.547   0.553  0.8944  0.6356 -1.3448
18063SOL     OW55865   5.925   8.295   3.565  0.1025 -0.1311  0.1910
18063SOL    HW155866   5.998   8.315   3.506  0.9606 -2.9289  0.2558
18063SOL    HW255867   5.852   8.347   3.531  1.0821 -0.2525 -2.2023
18064SOL     OW55868   5.333   8.151   5.671 -0.5154 -0.1560  0.0247
18064SOL    HW155869   5.290   8.212   5.612 -1.5341  0.8231  1.7601
18064SOL    HW255870   5.426   8.176   5.668 -0.7869  0.8547 -0.0204
18065SOL     OW55871   2.017   9.229   1.108 -0.5287  0.2898 -0.5671
18065SOL    HW155872   1.984   9.216   1.197 -0.1055  0.6691 -0.3518
18065SOL    HW255873   1.973   9.162   1.056  0.1784 -0.7773  0.1686
18066SOL     OW55874   1.460   1.464   8.910 -0.1284  0.6512 -0.0507
18066SOL    HW155875   1.389   1.415   8.950 -0.2156 -0.1854 -1.2130
18066SOL    HW255876   1.497   1.516   8.982  0.1299 -1.2773  1.2390
18067SOL     OW55877   9.226   1.852   0.687 -0.1439 -0.5402 -0.1823
18067SOL    HW155878   9.307   1.859   0.737  0.1098 -0.8991 -0.5401
18067SOL    HW255879   9.221   1.759   0.663 -0.4879 -0.4540 -0.4451
18068SOL     OW55880   1.569   8.195   7.463 -0.4584  0.0317 -0.5041
18068SOL    HW155881   1.654   8.175   7.423 -0.0678 -0.3024  0.4937
18068SOL    HW255882   1.541   8.113   7.501 -1.6283 -0.0634 -1.5432
18069SOL     OW55883   4.833   2.520   2.768 -0.1804 -0.1171  0.3330
18069SOL    HW155884   4.741   2.503   2.789 -0.7486 -0.7216 -2.3817
18069SOL    HW255885   4.872   2.433   2.762  0.1334  0.0608 -0.2393
18070SOL     OW55886   2.776   0.857   9.043 -0.5639 -0.3387 -0.2717
18070SOL    HW155887   2.832   0.912   8.988 -2.8065 -0.1409 -2.4412
18070SOL    HW255888   2.836   0.818   9.107  2.1902 -0.7333 -2.9640
18071SOL     OW55889   1.646   4.728   3.378 -0.3281  0.1351 -0.6206
18071SOL    HW155890   1.570   4.772   3.416 -0.9788 -0.6926 -0.9394
18071SOL    HW255891   1.621   4.712   3.287  0.4881  0.4432 -0.9008
18072SOL     OW55892   6.001   0.503   3.002 -0.4170  0.4800  0.1524
18072SOL    HW155893   6.024   0.410   3.001 -1.5617  0.1872  0.0426
18072SOL    HW255894   6.083   0.548   3.023  0.4474 -0.4627 -1.1312
18073SOL     OW55895   1.931   0.896   8.510 -0.4139 -0.6663  0.3018
18073SOL    HW155896   1.990   0.838   8.558 -0.0403 -0.5524 -0.0234
18073SOL    HW255897   1.971   0.982   8.517  0.7264 -0.9761 -1.9558
18074SOL     OW55898   8.702   7.703   0.831  0.4022  0.1745  0.2556
18074SOL    HW155899   8.777   7.732   0.884  0.5542  1.3293 -0.5546
18074SOL    HW255900   8.665   7.785   0.796 -1.9460 -0.2908  1.5710
18075SOL     OW55901   7.711   6.580   0.147 -0.2544  0.5452  0.1238
18075SOL    HW155902   7.695   6.662   0.193 -1.5149 -0.9524  2.4286
18075SOL    HW255903   7.628   6.559   0.105  0.0619  0.4328 -0.4546
18076SOL     OW55904   3.836   6.676   5.200  0.0802  0.0842 -1.0882
18076SOL    HW155905   3.789   6.599   5.234 -1.5971  0.9867 -1.3106
18076SOL    HW255906   3.859   6.652   5.111  0.4632 -0.5488 -0.8256
18077SOL     OW55907   5.359   0.968   0.761 -0.1208 -0.1739  0.3823
18077SOL    HW155908   5.355   1.050   0.810 -0.9397  0.2934 -0.4687
18077SOL    HW255909   5.373   0.901   0.828 -0.2600  0.5676  1.1577
18078SOL     OW55910   7.586   8.124   5.727  0.3897 -0.5343  0.3261
18078SOL    HW155911   7.577   8.041   5.680 -1.1838  0.4370 -1.1402
18078SOL    HW255912   7.542   8.108   5.811  0.4984 -1.3148  0.2433
18079SOL     OW55913   1.906   7.454   0.695  0.2211 -0.5043  0.0198
18079SOL    HW155914   1.962   7.447   0.773  0.9508  0.6201 -0.3978
18079SOL    HW255915   1.823   7.414   0.722  0.2503  0.4692  1.6000
18080SOL     OW55916   2.478   2.480   9.140 -0.0596 -0.2939 -0.3935
18080SOL    HW155917   2.568   2.491   9.169 -0.2807  1.3152 -0.2631
18080SOL    HW255918   2.452   2.394   9.174  0.3857  0.6123  2.3780
18081SOL     OW55919   1.417   3.933   5.474 -0.4003 -0.0292 -0.2544
18081SOL    HW155920   1.423   3.932   5.378  2.0786  0.6985 -0.1561
18081SOL    HW255921   1.371   4.014   5.495  1.1895  1.0420 -0.7856
18082SOL     OW55922   3.612   8.502   3.742 -0.2429  0.3019 -0.3205
18082SOL    HW155923   3.580   8.442   3.810  0.8967  0.8245  0.6994
18082SOL    HW255924   3.704   8.479   3.731  0.1089  1.6039 -0.1853
18083SOL     OW55925   5.800   4.527   1.786  0.0050  0.6327  0.0245
18083SOL    HW155926   5.731   4.571   1.735  0.8787 -0.7107 -2.3906
18083SOL    HW255927   5.866   4.595   1.801 -1.0636  1.4946  0.9054
18084SOL     OW55928   0.664   5.811   0.406  0.1180 -0.1239  0.3357
18084SOL    HW155929   0.748   5.841   0.371 -0.5206  2.2849  0.7581
18084SOL    HW255930   0.672   5.716   0.410  2.6155  0.0297 -0.1579
18085SOL     OW55931   7.044   7.400   2.743  0.2847 -0.2484 -0.0304
18085SOL    HW155932   7.087   7.356   2.670  1.1501 -0.1414  0.4048
18085SOL    HW255933   7.032   7.490   2.713  1.0687 -0.0843  0.1278
18086SOL     OW55934   4.720   7.223   2.144  0.6291 -0.4844  0.1360
18086SOL    HW155935   4.673   7.142   2.167 -0.1307  0.1075  0.7174
18086SOL    HW255936   4.736   7.216   2.050  0.0605 -1.0495  0.0780
18087SOL     OW55937   4.527   1.930   1.645  0.1199 -0.1984  0.2463
18087SOL    HW155938   4.518   1.978   1.563 -0.3932 -1.0753 -0.2242
18087SOL    HW255939   4.622   1.929   1.662  0.2065  0.1815 -0.2172
18088SOL     OW55940   2.738   2.637   1.921  0.3239  0.4614 -0.4373
18088SOL    HW155941   2.695   2.555   1.946 -0.9699  0.5901 -2.1962
18088SOL    HW255942   2.770   2.672   2.004  0.4421 -1.5571  0.4144
18089SOL     OW55943   7.015   6.625   5.035 -0.2133  0.5378  0.0407
18089SOL    HW155944   6.954   6.630   5.109 -0.1055  0.1440  0.1610
18089SOL    HW255945   7.028   6.716   5.008 -1.6641  0.5512 -0.6654
18090SOL     OW55946   6.615   6.061   3.631 -0.1471 -0.2906  0.4658
18090SOL    HW155947   6.664   5.995   3.680 -0.7102 -1.3990 -0.4404
18090SOL    HW255948   6.621   6.033   3.540 -1.2700  0.3318  0.1835
18091SOL     OW55949   7.617   6.953   2.205 -0.8515 -0.5435  0.1675
18091SOL    HW155950   7.633   7.026   2.265 -0.5174  0.3116 -0.9519
18091SOL    HW255951   7.704   6.922   2.182 -0.9831 -0.9379  0.2067
18092SOL     OW55952   7.832   5.769   3.909 -0.5232  0.6156 -0.1275
18092SOL    HW155953   7.793   5.830   3.972 -0.1808 -0.0710  0.7629
18092SOL    HW255954   7.811   5.807   3.823  0.4702  2.4865  0.4092
18093SOL     OW55955   7.511   1.206   4.194  0.3328 -0.1263  0.1014
18093SOL    HW155956   7.543   1.215   4.284  0.9791 -0.3208 -0.1126
18093SOL    HW255957   7.444   1.274   4.186 -1.1989 -1.4402  1.4070
18094SOL     OW55958   0.439   5.978   8.806  0.2327 -0.1644  0.5486
18094SOL    HW155959   0.501   6.000   8.875  0.6563 -0.3482  0.2230
18094SOL    HW255960   0.418   5.886   8.821  0.8355 -0.3871  0.0264
18095SOL     OW55961   2.299   8.228   7.354 -0.2774  0.6875  0.0885
18095SOL    HW155962   2.256   8.304   7.392 -0.6316 -0.1447  1.3783
18095SOL    HW255963   2.377   8.215   7.408  0.1313  0.5223 -0.5317
18096SOL     OW55964   2.806   6.887   0.100  0.0165 -0.1041 -0.2128
18096SOL    HW155965   2.752   6.825   0.050 -0.2126 -0.2503  0.2082
18096SOL    HW255966   2.877   6.833   0.136  0.1705 -0.0026 -0.3653
18097SOL     OW55967   7.120   2.067   2.073 -0.1966 -0.3242 -0.1041
18097SOL    HW155968   7.120   1.978   2.037  1.7241 -0.0585 -0.8107
18097SOL    HW255969   7.102   2.123   1.998  2.4252  0.1264 -0.4555
18098SOL     OW55970   1.273   8.061   0.747  0.4884 -0.1230 -0.3035
18098SOL    HW155971   1.289   8.090   0.657 -0.1675 -0.0858 -0.4106
18098SOL    HW255972   1.260   7.967   0.740 -1.2900  0.1262 -0.4876
18099SOL     OW55973   7.625   4.379   0.845  0.3647  0.7414 -0.2096
18099SOL    HW155974   7.560   4.328   0.796  0.3213 -0.1765  0.8030
18099SOL    HW255975   7.708   4.337   0.826  0.0218 -1.4962  2.8390
18100SOL     OW55976   4.563   7.407   0.281 -0.1606  0.5196  0.4335
18100SOL    HW155977   4.572   7.326   0.330 -0.1781  0.6885  0.7191
18100SOL    HW255978   4.469   7.427   0.285 -0.2734  0.1406 -0.3033
18101SOL     OW55979   1.423   3.549   7.809 -0.0428 -0.1806 -0.3508
18101SOL    HW155980   1.334   3.583   7.819 -0.2076 -0.7794  0.2062
18101SOL    HW255981   1.464   3.563   7.894  0.0340 -0.9569 -0.2558
18102SOL     OW55982   1.999   1.362   3.836 -0.0052 -0.8508  0.2714
18102SOL    HW155983   2.089   1.344   3.863 -0.0068  0.9813  1.6163
18102SOL    HW255984   1.986   1.309   3.757  2.2273 -1.1538  0.0869
18103SOL     OW55985   7.760   6.489   3.112  0.2121 -0.6206 -0.2791
18103SOL    HW155986   7.707   6.455   3.040  0.9767 -2.7287  0.1146
18103SOL    HW255987   7.697   6.520   3.176 -0.5904 -3.1443  0.2057
18104SOL     OW55988   3.085   6.397   3.737 -0.2532  0.0041  0.5304
18104SOL    HW155989   3.128   6.393   3.822 -1.5797 -0.1150  1.2150
18104SOL    HW255990   3.145   6.353   3.678  0.6176 -0.0487  1.4353
18105SOL     OW55991   2.174   1.701   5.757 -0.7463 -0.3204 -0.4465
18105SOL    HW155992   2.100   1.686   5.815 -0.1468  0.8595  0.6330
18105SOL    HW255993   2.138   1.751   5.684 -0.3681  3.2088  1.7076
18106SOL     OW55994   5.912   5.938   2.128 -0.2160  0.2803  0.0743
18106SOL    HW155995   5.957   5.935   2.212 -0.2611 -0.1191  0.0829
18106SOL    HW255996   5.975   5.979   2.069  0.6725 -1.4997 -0.2318
18107SOL     OW55997   2.023   4.253   0.494  0.3932 -0.2857  0.4587
18107SOL    HW155998   2.045   4.302   0.414  0.4302  1.0727  1.2895
18107SOL    HW255999   2.010   4.320   0.560  1.3386 -1.4431  1.8546
18108SOL     OW56000   4.822   6.824   6.318  0.1511 -0.0426 -0.2265
18108SOL    HW156001   4.775   6.751   6.278 -0.2618  1.2118 -2.1078
18108SOL    HW256002   4.912   6.815   6.285  0.2217 -0.0047 -0.0441
18109SOL     OW56003   9.257   4.628   2.804  0.1213 -0.1147  0.2623
18109SOL    HW156004   9.305   4.549   2.828 -0.7858 -0.5702  0.6283
18109SOL    HW256005   9.324   4.694   2.788  0.8764 -0.9174  0.1219
18110SOL     OW56006   7.947   9.055   4.378  0.4742 -0.0222 -0.2792
18110SOL    HW156007   7.976   9.080   4.466 -1.2212  1.6963 -0.1609
18110SOL    HW256008   7.944   9.138   4.329 -2.0132 -0.4313 -0.8846
18111SOL     OW56009   3.662   0.323   3.060  0.4328  0.6191 -0.4774
18111SOL    HW156010   3.597   0.319   2.989 -0.4175  1.9239  0.2170
18111SOL    HW256011   3.672   0.232   3.088  1.3553 -0.0468 -2.7663
18112SOL     OW56012   5.702   6.346   2.989 -0.1675 -0.0187  0.1333
18112SOL    HW156013   5.787   6.305   3.006 -0.3335 -0.4978 -0.1781
18112SOL    HW256014   5.678   6.385   3.073 -0.7215 -1.8877  0.8816
18113SOL     OW56015   7.839   4.988   7.949 -0.1605  0.4333 -0.0311
18113SOL    HW156016   7.816   4.901   7.916  0.7023  0.3400 -0.3769
18113SOL    HW256017   7.863   5.038   7.871 -0.6950  1.0012  0.1633
18114SOL     OW56018   5.896   8.778   4.310  0.2587 -0.7036  0.3077
18114SOL    HW156019   5.949   8.766   4.231  0.4665  0.6387  0.2401
18114SOL    HW256020   5.948   8.739   4.380  0.8675 -0.3111  0.0738
18115SOL     OW56021   6.363   2.428   8.729 -0.0380  0.1338  0.1319
18115SOL    HW156022   6.377   2.509   8.680  1.3498  0.8600  1.6699
18115SOL    HW256023   6.287   2.446   8.785  1.5829  1.1912  2.0706
18116SOL     OW56024   5.816   6.722   8.613 -0.0805 -0.4668 -0.7038
18116SOL    HW156025   5.759   6.660   8.660  1.6500 -2.3940 -1.0855
18116SOL    HW256026   5.819   6.688   8.524 -0.4157  1.1140 -1.3299
18117SOL     OW56027   5.701   6.498   8.765 -0.5892 -0.1507 -0.8187
18117SOL    HW156028   5.788   6.486   8.802  0.2374  0.7688 -2.4218
18117SOL    HW256029   5.641   6.485   8.839  0.7549 -3.3523 -0.2185
18118SOL     OW56030   4.068   5.692   4.703 -0.1099  0.0885  0.0015
18118SOL    HW156031   4.093   5.754   4.634  0.6732 -0.4996 -0.2536
18118SOL    HW256032   3.980   5.719   4.729  0.0150  0.9750 -0.4821
18119SOL     OW56033   1.100   6.563   2.270 -0.2332 -0.1369  0.3624
18119SOL    HW156034   1.189   6.569   2.304 -0.4321 -1.7589  1.1908
18119SOL    HW256035   1.072   6.654   2.258  1.7853  0.3850 -0.5928
18120SOL     OW56036   5.140   3.287   5.940  1.0849 -0.9338  0.0336
18120SOL    HW156037   5.079   3.326   6.003  2.9695  0.8144  0.7991
18120SOL    HW256038   5.118   3.328   5.856  0.4561 -1.1586  0.0882
18121SOL     OW56039   4.669   8.305   0.403 -0.0057 -0.0682 -0.8289
18121SOL    HW156040   4.681   8.392   0.441 -2.5087 -0.2452  0.4163
18121SOL    HW256041   4.713   8.246   0.464 -0.2473  0.0990 -0.4910
18122SOL     OW56042   8.159   4.988   8.292  0.5581  0.6037  0.3095
18122SOL    HW156043   8.130   4.924   8.227 -0.1615  2.0244 -0.8061
18122SOL    HW256044   8.215   5.048   8.243 -1.6436  2.8925  0.4481
18123SOL     OW56045   0.737   4.058   5.229 -0.0847  0.2529  0.2931
18123SOL    HW156046   0.672   3.995   5.198 -0.0646  0.6193 -0.5198
18123SOL    HW256047   0.756   4.112   5.152  2.3493 -0.8353  0.0886
18124SOL     OW56048   3.381   7.483   1.188 -0.7353 -0.1829 -0.0735
18124SOL    HW156049   3.475   7.467   1.179 -0.3029  0.8868  2.1134
18124SOL    HW256050   3.340   7.403   1.153  0.9470 -0.4735 -1.4577
18125SOL     OW56051   7.118   7.079   5.700  0.1437  0.4767  0.0079
18125SOL    HW156052   7.131   7.000   5.752  1.0233  0.8137  0.3120
18125SOL    HW256053   7.206   7.114   5.686 -0.2321  1.4009 -0.1317
18126SOL     OW56054   6.829   3.120   1.659 -0.4619 -0.4451 -0.0831
18126SOL    HW156055   6.836   3.099   1.752 -2.4298 -2.5917 -0.3520
18126SOL    HW256056   6.870   3.046   1.614 -2.6813 -1.1798 -0.9716
18127SOL     OW56057   1.907   7.234   0.128  0.4323  0.3544 -0.1431
18127SOL    HW156058   1.983   7.292   0.139 -0.4942  1.7752 -1.0012
18127SOL    HW256059   1.831   7.291   0.143 -0.5111 -0.6338 -1.0141
18128SOL     OW56060   7.481   0.375   1.564  0.1954  0.7242 -0.4167
18128SOL    HW156061   7.507   0.342   1.478 -0.1461 -1.9787  0.4942
18128SOL    HW256062   7.507   0.468   1.562  2.1676  0.1801 -2.6242
18129SOL     OW56063   2.620   7.759   7.558  0.9962 -0.3215  0.1587
18129SOL    HW156064   2.585   7.767   7.647 -0.1335  1.4918 -0.4226
18129SOL    HW256065   2.707   7.800   7.562  1.4081 -1.2559  0.6904
18130SOL     OW56066   4.263   0.624   8.537  0.0273 -0.4122  0.2520
18130SOL    HW156067   4.202   0.556   8.567  1.0968 -1.3246  0.3623
18130SOL    HW256068   4.323   0.579   8.478  0.5569  0.5095  0.0734
18131SOL     OW56069   5.222   0.065   5.697 -0.4538 -0.5169 -0.5904
18131SOL    HW156070   5.265  -0.010   5.656 -0.5424 -0.0286 -1.6005
18131SOL    HW256071   5.279   0.140   5.676 -0.5746 -0.2363  0.0624
18132SOL     OW56072   8.378   8.390   1.517  0.3125  0.1245  0.0805
18132SOL    HW156073   8.358   8.457   1.582  0.9912  0.9507 -0.5549
18132SOL    HW256074   8.340   8.309   1.553 -1.7523  1.1165  0.1650
18133SOL     OW56075   8.987   0.768   7.814  0.3577  0.4268 -0.2098
18133SOL    HW156076   8.913   0.719   7.779 -0.2180 -0.0962  1.6773
18133SOL    HW256077   8.995   0.844   7.756 -1.2021  0.1306 -0.8395
18134SOL     OW56078   1.622   7.644   7.189 -0.1344 -0.6456  0.0352
18134SOL    HW156079   1.717   7.635   7.181 -0.2030 -0.7371 -0.6597
18134SOL    HW256080   1.587   7.566   7.146 -0.4911 -1.3616  1.5658
18135SOL     OW56081   4.031   6.747   2.669 -0.0849  0.2950 -0.5404
18135SOL    HW156082   4.122   6.725   2.650  0.0690 -0.3256  0.8376
18135SOL    HW256083   4.032   6.778   2.759 -1.2776  0.0164 -0.4225
18136SOL     OW56084   3.718   2.560   9.207  0.1907 -0.1208  0.8807
18136SOL    HW156085   3.683   2.492   9.150  1.4422 -1.4917  1.7073
18136SOL    HW256086   3.737   2.633   9.149 -1.9716 -0.1453  0.1099
18137SOL     OW56087   5.006   9.215   4.884  0.7808 -0.7827  0.2972
18137SOL    HW156088   4.928   9.172   4.848  0.1288  1.2939 -0.8743
18137SOL    HW256089   5.071   9.208   4.815  0.4179  0.7739 -0.2168
18138SOL     OW56090   5.949   1.569   3.242 -0.8202 -0.0942  0.4417
18138SOL    HW156091   5.901   1.491   3.271  0.2358 -0.7024  0.5889
18138SOL    HW256092   6.026   1.573   3.299  0.6184 -0.5881 -1.4001
18139SOL     OW56093   1.002   4.532   7.196 -0.8205 -0.1608 -0.1656
18139SOL    HW156094   0.914   4.493   7.197  0.3227 -2.8794 -1.1909
18139SOL    HW256095   0.986   4.626   7.194 -3.8266 -0.6230 -3.4664
18140SOL     OW56096   3.976   6.625   0.243  0.4657 -0.3817 -0.1032
18140SOL    HW156097   4.063   6.614   0.205  1.2017  1.2228  1.0510
18140SOL    HW256098   3.962   6.545   0.294  0.5556 -1.3771 -1.5889
18141SOL     OW56099   7.410   7.190   6.772 -0.4528  0.0670  0.0745
18141SOL    HW156100   7.356   7.257   6.814 -0.9533  0.2141 -0.8063
18141SOL    HW256101   7.357   7.158   6.699  1.7083  2.0703 -2.4647
18142SOL     OW56102   7.703   4.905   7.231 -0.1641 -0.4434 -0.2004
18142SOL    HW156103   7.703   4.886   7.137  0.2915  2.7451 -0.9171
18142SOL    HW256104   7.795   4.907   7.255 -0.2158  0.0612 -0.0191
18143SOL     OW56105   5.650   8.989   6.074 -0.6972 -0.0401  0.2319
18143SOL    HW156106   5.633   9.054   6.142 -2.8641  0.0839 -0.3967
18143SOL    HW256107   5.613   8.908   6.108  1.4361 -0.8308  0.7403
18144SOL     OW56108   2.243   3.045   1.064  0.0273  0.3627  0.0550
18144SOL    HW156109   2.181   2.973   1.057 -1.4375  1.5577  0.5279
18144SOL    HW256110   2.229   3.080   1.152 -1.0581  2.8086 -1.0624
18145SOL     OW56111   7.812   4.026   8.857 -0.8177  0.0212 -1.1833
18145SOL    HW156112   7.825   4.017   8.763  1.4850  1.9269 -1.0893
18145SOL    HW256113   7.840   3.942   8.893  1.4103  0.4198 -1.9306
18146SOL     OW56114   4.452   6.613   8.568  0.4349  0.3855  0.4180
18146SOL    HW156115   4.544   6.629   8.547 -0.2595  2.5451 -1.2196
18146SOL    HW256116   4.424   6.692   8.615 -0.9495  0.4239 -0.4493
18147SOL     OW56117   2.550   2.959   3.471  0.8573  0.4800  0.4383
18147SOL    HW156118   2.491   2.914   3.531  1.8061  1.2194  1.9489
18147SOL    HW256119   2.624   2.899   3.461  0.4301  0.0975 -0.4723
18148SOL     OW56120   1.772   0.374   6.735  0.0358 -0.3572  0.2582
18148SOL    HW156121   1.816   0.295   6.704  1.9188 -0.2172  2.4239
18148SOL    HW256122   1.842   0.428   6.770 -1.6638  0.6688  2.1626
18149SOL     OW56123   0.538   5.640   5.540  0.1745 -0.0837 -1.2130
18149SOL    HW156124   0.579   5.710   5.590  0.3588 -1.1552  0.1764
18149SOL    HW256125   0.445   5.646   5.560  0.5404 -2.0727  1.3092
18150SOL     OW56126   0.993   5.236   2.006 -0.2238  0.9116 -0.2500
18150SOL    HW156127   0.903   5.211   2.024 -0.2552  0.5892 -0.8277
18150SOL    HW256128   1.021   5.285   2.084 -0.2765 -0.6191  0.7347
18151SOL     OW56129   4.766   8.961   1.325 -0.6154 -0.1100 -0.7448
18151SOL    HW156130   4.831   9.009   1.274 -0.0461 -0.0839 -0.0119
18151SOL    HW256131   4.812   8.882   1.354 -0.8049  0.0729  0.0640
18152SOL     OW56132   2.836   7.366   8.718  0.4996 -0.4359  0.2239
18152SOL    HW156133   2.856   7.457   8.736 -2.4092  0.1843  0.6847
18152SOL    HW256134   2.853   7.355   8.624 -0.4003  0.9715 -0.1170
18153SOL     OW56135   4.211   8.732   7.434 -0.2265  0.5579  0.9200
18153SOL    HW156136   4.242   8.789   7.505 -0.3968  0.8063  0.7970
18153SOL    HW256137   4.119   8.716   7.455 -0.1491  0.2298  1.0162
18154SOL     OW56138   6.128   7.694   2.523 -0.1325  0.8178  0.1188
18154SOL    HW156139   6.107   7.623   2.462 -0.2903 -0.2652  1.4105
18154SOL    HW256140   6.049   7.704   2.576  0.1797  1.4148  0.4774
18155SOL     OW56141   1.897   2.096   2.488 -0.3379  0.0422 -0.7948
18155SOL    HW156142   1.831   2.121   2.552  1.5561  0.5002  1.0527
18155SOL    HW256143   1.859   2.021   2.442 -1.5122 -0.6894  1.2779
18156SOL     OW56144   5.076   5.471   7.381  0.3189  0.2228  0.6672
18156SOL    HW156145   5.153   5.458   7.325  2.5596  0.7034  3.5307
18156SOL    HW256146   5.008   5.504   7.321  2.1263 -0.7849 -2.0305
18157SOL     OW56147   6.585   6.071   7.585 -0.2491  0.1989 -0.0379
18157SOL    HW156148   6.498   6.111   7.583  0.1717  1.1159 -0.1406
18157SOL    HW256149   6.629   6.113   7.659  0.4786  0.5243 -0.6529
18158SOL     OW56150   1.310   0.905   3.246  0.7870  0.5258 -0.1050
18158SOL    HW156151   1.380   0.948   3.196  1.4692 -1.1991 -0.6867
18158SOL    HW256152   1.241   0.889   3.181 -0.5013  2.9594  0.6448
18159SOL     OW56153   8.878   5.256   0.789 -0.3096 -0.0440 -0.1704
18159SOL    HW156154   8.901   5.341   0.826  0.3783  0.1958 -1.1042
18159SOL    HW256155   8.801   5.228   0.837  0.3315  0.4360  1.1477
18160SOL     OW56156   5.075   0.223   8.697 -0.3670 -0.4568  0.9499
18160SOL    HW156157   4.981   0.240   8.698 -0.3064  0.3023 -1.9539
18160SOL    HW256158   5.095   0.196   8.786 -3.1824  0.1846  1.8351
18161SOL     OW56159   5.833   0.483   4.325  0.1493 -0.3786 -1.1578
18161SOL    HW156160   5.805   0.565   4.366  3.0380 -0.5514  1.3492
18161SOL    HW256161   5.902   0.508   4.265 -0.4450 -0.7676 -2.0253
18162SOL     OW56162   3.178   1.560   6.948 -0.1517 -0.6273 -0.3513
18162SOL    HW156163   3.146   1.611   7.022  0.2697  1.0701 -1.3257
18162SOL    HW256164   3.223   1.623   6.892  3.3209 -2.5992  0.0457
18163SOL     OW56165   2.861   9.096   7.973  0.2863  0.0210 -0.5348
18163SOL    HW156166   2.854   9.045   8.054  0.0982  0.1745 -0.4539
18163SOL    HW256167   2.774   9.135   7.962 -0.1307 -1.1791 -1.6012
18164SOL     OW56168   4.421   8.016   3.658 -0.1140  0.5918  0.0660
18164SOL    HW156169   4.357   8.072   3.614  0.3653  1.6090  0.6311
18164SOL    HW256170   4.498   8.018   3.601 -1.0535 -1.7918 -1.3417
18165SOL     OW56171   8.173   1.232   5.409  0.0840  0.0079 -0.4667
18165SOL    HW156172   8.179   1.223   5.504 -1.0590 -1.2626 -0.4972
18165SOL    HW256173   8.252   1.191   5.376 -0.8159 -2.0536 -0.1650
18166SOL     OW56174   4.634   4.876   4.211 -0.5084  0.0317  0.1524
18166SOL    HW156175   4.721   4.900   4.245  0.3509  0.6401 -2.3947
18166SOL    HW256176   4.582   4.956   4.221 -0.3611  0.1025  0.3710
18167SOL     OW56177   3.067   3.971   5.532  0.0573 -0.0872 -0.3360
18167SOL    HW156178   3.088   3.905   5.598 -1.4926 -1.3374 -1.0369
18167SOL    HW256179   3.046   3.920   5.453 -2.5214  1.1322 -0.5096
18168SOL     OW56180   4.456   5.169   2.463  0.1423  0.3211  0.3595
18168SOL    HW156181   4.515   5.235   2.500  0.0835  0.9560 -0.6588
18168SOL    HW256182   4.443   5.106   2.534  1.3886  0.6120  0.8604
18169SOL     OW56183   6.857   4.173   2.317 -0.0779 -0.1536 -0.6237
18169SOL    HW156184   6.943   4.206   2.344 -1.0298  1.7265  0.2108
18169SOL    HW256185   6.823   4.240   2.259 -1.1822 -0.6709 -0.5910
18170SOL     OW56186   0.672   5.022   8.867 -0.3216  0.4144 -0.3071
18170SOL    HW156187   0.636   4.979   8.944 -0.1823  0.0737 -0.4283
18170SOL    HW256188   0.689   5.112   8.895  2.4886 -0.4223  0.9755
18171SOL     OW56189   5.969   5.033   1.703  0.4071  0.1807 -0.4075
18171SOL    HW156190   5.967   4.938   1.702  1.4554  0.1567 -0.8173
18171SOL    HW256191   6.060   5.055   1.723  0.4207  1.0936 -1.4319
18172SOL     OW56192   4.688   4.902   4.547 -0.2798  0.1512 -0.1011
18172SOL    HW156193   4.710   4.813   4.519  0.7878 -0.6479  3.0622
18172SOL    HW256194   4.773   4.945   4.558 -0.7011  0.7972  0.7002
18173SOL     OW56195   1.755   3.740   6.256  0.7067  0.5595 -0.2998
18173SOL    HW156196   1.689   3.742   6.186  0.5020  1.2909 -0.0921
18173SOL    HW256197   1.730   3.664   6.310  2.3394 -1.5626 -2.4158
18174SOL     OW56198   8.744   2.173   1.543  0.0386  0.1010  0.0728
18174SOL    HW156199   8.820   2.131   1.582  0.5509 -1.9145 -2.9461
18174SOL    HW256200   8.717   2.239   1.607  2.5389 -1.1333  2.4685
18175SOL     OW56201   3.773   1.349   1.179 -0.2657 -0.4463  0.2773
18175SOL    HW156202   3.712   1.413   1.216 -1.8297 -0.4557 -2.1843
18175SOL    HW256203   3.858   1.393   1.181 -1.0341  1.0919  0.1174
18176SOL     OW56204   4.204   6.351   2.587 -0.1388 -0.1394 -0.2360
18176SOL    HW156205   4.180   6.258   2.585 -1.2200  0.1466 -2.9358
18176SOL    HW256206   4.288   6.355   2.541  1.1771 -0.0742  2.1061
18177SOL     OW56207   0.478   5.616   3.209  0.2915  0.1995 -0.5639
18177SOL    HW156208   0.556   5.571   3.242 -1.0399 -0.6810  1.4916
18177SOL    HW256209   0.437   5.554   3.149 -2.0921 -1.9383  3.0220
18178SOL     OW56210   8.682   2.141   0.085  0.4139 -0.4955 -0.1793
18178SOL    HW156211   8.647   2.052   0.078 -0.2935 -0.4075  1.8399
18178SOL    HW256212   8.621   2.194   0.033  0.4075 -1.0594 -0.7669
18179SOL     OW56213   1.147   4.819   0.468  0.2894  0.3215 -0.1737
18179SOL    HW156214   1.122   4.728   0.454  0.2147  0.4117 -0.6255
18179SOL    HW256215   1.138   4.860   0.382 -0.6752  0.9993  0.2450
18180SOL     OW56216   0.114   8.408   3.463  0.1014 -0.0112 -0.4669
18180SOL    HW156217   0.088   8.401   3.555  1.9958  0.7639  0.1549
18180SOL    HW256218   0.164   8.328   3.447  2.7643  1.4585  0.2208
18181SOL     OW56219   8.078   5.945   5.936 -0.2801 -0.0364  0.5278
18181SOL    HW156220   7.997   5.995   5.948 -0.8119 -0.7463 -0.0371
18181SOL    HW256221   8.102   5.917   6.024 -1.5329 -1.1680  0.5151
18182SOL     OW56222   3.918   7.220   5.543  0.2794 -0.4728 -0.0328
18182SOL    HW156223   3.823   7.223   5.557  0.1635 -1.7243 -0.4839
18182SOL    HW256224   3.930   7.160   5.470  1.5178 -1.5752  1.0444
18183SOL     OW56225   4.110   7.293   1.921 -0.3006  0.5522 -0.1748
18183SOL    HW156226   4.093   7.229   1.989  1.7975  0.2412  0.0741
18183SOL    HW256227   4.117   7.377   1.968  0.6935  0.4028 -0.0390
18184SOL     OW56228   5.533   3.541   3.020  0.2762 -0.1656 -0.6457
18184SOL    HW156229   5.502   3.494   2.943 -1.0216 -3.5054  1.7417
18184SOL    HW256230   5.609   3.490   3.049 -0.2012  0.0945  1.1241
18185SOL     OW56231   4.387   3.327   7.619  0.4988  0.2376 -0.2977
18185SOL    HW156232   4.300   3.352   7.590 -0.1203  0.1417  1.4241
18185SOL    HW256233   4.443   3.399   7.591 -0.0926  0.2255 -1.5467
18186SOL     OW56234   5.112   0.089   5.088 -0.6697 -0.2768 -0.0821
18186SOL    HW156235   5.124   0.034   5.165  2.9602 -0.2744 -0.5930
18186SOL    HW256236   5.079   0.030   5.021  1.7267 -1.5609 -0.1769
18187SOL     OW56237   3.362   5.045   3.509  0.3943  0.3418  0.3138
18187SOL    HW156238   3.414   5.052   3.429 -0.0447  0.3849  0.0358
18187SOL    HW256239   3.386   5.122   3.560  1.1221  0.0087  0.4913
18188SOL     OW56240   2.810   4.547   8.134 -0.7940  0.0538 -0.4787
18188SOL    HW156241   2.754   4.624   8.130 -0.2458  0.5567  1.1281
18188SOL    HW256242   2.750   4.473   8.129 -1.5481  0.5863  0.4519
18189SOL     OW56243   1.843   6.799   1.367 -0.3970 -0.6832  0.3739
18189SOL    HW156244   1.857   6.745   1.289  0.9553 -1.0149  0.8345
18189SOL    HW256245   1.897   6.759   1.435  0.2834  0.9707  0.8480
18190SOL     OW56246   9.096   1.283   2.642 -0.0770  0.0658 -0.0863
18190SOL    HW156247   9.052   1.339   2.578  0.7409  0.2572 -0.4811
18190SOL    HW256248   9.038   1.285   2.719 -1.7413 -1.2617 -1.2846
18191SOL     OW56249   1.564   7.633   1.873  0.3288  0.0133  0.8134
18191SOL    HW156250   1.632   7.570   1.897  0.0472  0.1206  1.8902
18191SOL    HW256251   1.605   7.718   1.885 -0.1272  0.0894  1.8937
18192SOL     OW56252   7.082   5.768   8.879  0.2955 -0.2098  0.2077
18192SOL    HW156253   7.136   5.690   8.865 -0.1174 -0.3678 -0.5146
18192SOL    HW256254   6.995   5.734   8.899  0.6734  0.0304  2.3262
18193SOL     OW56255   5.835   2.290   4.225 -0.3117 -0.2971 -0.1544
18193SOL    HW156256   5.930   2.284   4.219 -0.0932  0.6371  1.8079
18193SOL    HW256257   5.808   2.207   4.264 -0.0184  0.4462  1.6878
18194SOL     OW56258   7.054   4.974   2.412 -0.2305  0.4326 -0.4301
18194SOL    HW156259   6.960   4.960   2.429 -0.1770 -1.8901 -1.7353
18194SOL    HW256260   7.077   5.051   2.464 -2.3428 -0.3312  1.7392
18195SOL     OW56261   6.867   8.577   0.329 -0.1040 -0.0752  0.1444
18195SOL    HW156262   6.853   8.521   0.405 -0.4041  1.6594  1.4156
18195SOL    HW256263   6.786   8.627   0.322  0.3014  0.4712 -0.7265
18196SOL     OW56264   4.250   4.994   0.001 -0.2120  0.5803  0.0910
18196SOL    HW156265   4.214   5.039   0.078  0.2587  1.3233 -0.1196
18196SOL    HW256266   4.281   5.065  -0.056 -0.6607  0.0443 -0.8389
18197SOL     OW56267   6.116   4.438   2.853 -0.4340  0.0345 -0.8540
18197SOL    HW156268   6.162   4.395   2.781 -0.7024 -1.0441 -0.4044
18197SOL    HW256269   6.112   4.371   2.921 -0.0404  1.0939  0.2234
18198SOL     OW56270   8.811   9.021   7.919 -0.1683 -0.2147 -0.6639
18198SOL    HW156271   8.781   8.961   7.987  0.0878  0.0032 -0.3551
18198SOL    HW256272   8.803   8.971   7.838 -0.6199 -0.4232 -0.4931
18199SOL     OW56273   0.359   6.810   5.377  0.3033 -0.0962  0.0109
18199SOL    HW156274   0.331   6.822   5.468  1.7436 -1.1066  0.6002
18199SOL    HW256275   0.277   6.806   5.328 -0.4714  1.2573  1.1551
18200SOL     OW56276   9.200   4.905   2.992  0.5222  0.3551 -0.6561
18200SOL    HW156277   9.187   4.813   2.967 -3.4163  0.0608  2.0106
18200SOL    HW256278   9.234   4.900   3.082  0.6622  1.5214 -0.6476
18201SOL     OW56279   8.581   4.697   4.102 -0.3798  0.6721  0.3318
18201SOL    HW156280   8.584   4.602   4.119 -2.2563  0.5346  0.0626
18201SOL    HW256281   8.511   4.729   4.159 -1.7266  1.4140 -1.7039
18202SOL     OW56282   0.483   1.027   4.750  0.5596 -0.0125 -0.1636
18202SOL    HW156283   0.424   1.044   4.677  1.9602  0.4500 -1.2216
18202SOL    HW256284   0.427   0.998   4.822 -0.7047 -1.7748 -1.8407
18203SOL     OW56285   0.588   4.135   1.939 -0.4242 -0.1161 -0.2729
18203SOL    HW156286   0.587   4.231   1.949  0.1248 -0.2126  0.7434
18203SOL    HW256287   0.559   4.102   2.024  0.3399 -0.8817 -0.3087
18204SOL     OW56288   8.933   7.559   3.099  0.2367  0.4640  0.4832
18204SOL    HW156289   8.952   7.512   3.181 -2.3214 -0.0916  0.7980
18204SOL    HW256290   8.838   7.553   3.090  0.1911  3.0236 -1.0406
18205SOL     OW56291   1.950   1.792   9.064  0.0525  0.4753 -0.4843
18205SOL    HW156292   2.023   1.745   9.023 -0.9650 -0.5162 -1.2070
18205SOL    HW256293   1.962   1.883   9.037 -0.1504 -0.0291 -2.3284
18206SOL     OW56294   3.351   5.304   0.878 -0.1999  0.7874 -0.3536
18206SOL    HW156295   3.407   5.307   0.801 -1.0891  0.6589 -1.0210
18206SOL    HW256296   3.356   5.392   0.915  1.7531  0.3175  0.5666
18207SOL     OW56297   6.093   7.317   5.444 -0.0592  0.5832  0.0431
18207SOL    HW156298   6.189   7.312   5.444 -0.1488 -1.2455 -0.4189
18207SOL    HW256299   6.071   7.337   5.535  0.7494  0.9491  0.1668
18208SOL     OW56300   6.140   6.374   3.903 -0.1477 -0.2247 -0.2101
18208SOL    HW156301   6.199   6.370   3.828  0.2116 -0.8832  0.0963
18208SOL    HW256302   6.198   6.363   3.979 -0.3663  1.4977  0.2265
18209SOL     OW56303   4.578   7.427   2.293 -0.4031 -0.4286 -0.0852
18209SOL    HW156304   4.609   7.510   2.258 -1.1305  0.3554  1.0913
18209SOL    HW256305   4.611   7.361   2.232 -0.1709  0.7507 -1.2543
18210SOL     OW56306   6.587   1.663   2.069 -0.3315  0.1442  0.2887
18210SOL    HW156307   6.628   1.703   1.992 -0.3381 -1.4313 -0.5442
18210SOL    HW256308   6.654   1.670   2.137  0.1371  0.4295 -0.1913
18211SOL     OW56309   3.040   4.028   1.086 -0.0327  0.3035  0.5602
18211SOL    HW156310   3.130   3.995   1.089 -0.3099 -0.4794  0.5096
18211SOL    HW256311   3.037   4.083   1.008  0.6736  1.1545  1.1331
18212SOL     OW56312   6.594   2.297   4.973 -0.6357 -0.3255 -0.0815
18212SOL    HW156313   6.520   2.289   4.913 -1.5180 -0.8521  1.0479
18212SOL    HW256314   6.591   2.387   5.003  1.0863  0.5668 -2.4013
18213SOL     OW56315   7.741   8.072   2.760 -0.1044  0.7364  0.2315
18213SOL    HW156316   7.646   8.071   2.749 -0.2752  0.7391  1.6592
18213SOL    HW256317   7.775   8.047   2.674 -1.4266 -1.0446  0.1907
18214SOL     OW56318   6.845   5.704   4.481 -0.3370  0.0138 -1.0791
18214SOL    HW156319   6.792   5.769   4.527 -1.0693 -1.5973  0.4198
18214SOL    HW256320   6.784   5.632   4.464  1.2519 -1.7372  0.3685
18215SOL     OW56321   8.232   6.038   7.299 -0.2558  0.0046  0.1694
18215SOL    HW156322   8.227   6.100   7.226 -1.4446  0.8033  0.9193
18215SOL    HW256323   8.255   6.092   7.375  2.1279 -0.9832  0.1988
18216SOL     OW56324   4.746   7.071   9.099 -0.6641  0.7610 -0.2216
18216SOL    HW156325   4.698   7.048   9.178 -2.2941 -0.6692 -1.6070
18216SOL    HW256326   4.825   7.017   9.102 -0.8870  0.4623  0.2775
18217SOL     OW56327   0.842   4.603   4.164  0.4365 -0.2755  0.5372
18217SOL    HW156328   0.890   4.657   4.228 -0.8194 -0.7217  1.8830
18217SOL    HW256329   0.779   4.554   4.217 -0.7093 -0.5632 -1.0772
18218SOL     OW56330   7.401   7.661   0.358 -0.1347 -0.1425 -0.1441
18218SOL    HW156331   7.306   7.647   0.350  0.1789 -2.1828 -0.5523
18218SOL    HW256332   7.411   7.756   0.353 -2.0294  0.0155 -1.6812
18219SOL     OW56333   5.312   5.733   6.204  0.3341  0.2380 -0.2384
18219SOL    HW156334   5.396   5.705   6.169 -0.4408 -2.0709 -0.2997
18219SOL    HW256335   5.247   5.677   6.162 -1.0448  0.5772  1.3452
18220SOL     OW56336   1.566   2.856   5.259 -0.0728 -0.2581  0.0659
18220SOL    HW156337   1.569   2.760   5.252  0.0600 -0.3120  0.7968
18220SOL    HW256338   1.599   2.887   5.175  0.5044 -0.8597  0.0657
18221SOL     OW56339   8.323   7.229   1.051 -0.2060  0.0172  0.2419
18221SOL    HW156340   8.253   7.253   0.991  0.0747  2.6267  0.9000
18221SOL    HW256341   8.367   7.311   1.072  3.9533 -1.6615 -1.2121
18222SOL     OW56342   1.502   7.218   3.338  0.0612  0.0819 -0.0102
18222SOL    HW156343   1.416   7.244   3.305 -0.0946 -2.3155 -1.6184
18222SOL    HW256344   1.486   7.194   3.430 -0.9039  0.0644 -0.1781
18223SOL     OW56345   1.463   1.216   5.398 -0.1352  0.0201  0.2525
18223SOL    HW156346   1.390   1.252   5.348  0.4363  1.2476  0.2779
18223SOL    HW256347   1.486   1.285   5.460 -0.1205 -1.0563  1.4610
18224SOL     OW56348   5.550   2.649   8.464 -0.0435  0.2392 -0.3557
18224SOL    HW156349   5.639   2.679   8.480 -0.2625 -0.1558  1.6625
18224SOL    HW256350   5.494   2.721   8.494 -0.4668 -0.5684  0.8065
18225SOL     OW56351   1.619   7.540   6.636 -0.4415  0.4899  0.0403
18225SOL    HW156352   1.585   7.454   6.612 -1.0877  1.3116 -2.1077
18225SOL    HW256353   1.665   7.526   6.719 -1.1706 -1.7619  0.0798
18226SOL     OW56354   3.419   5.109   8.945  0.2424  0.8591 -0.1368
18226SOL    HW156355   3.324   5.105   8.949  0.0122  2.1945 -2.9527
18226SOL    HW256356   3.449   5.050   9.014 -2.6197 -1.4102 -0.7508
18227SOL     OW56357   1.853   5.638   8.398  0.4467 -0.5779  0.6671
18227SOL    HW156358   1.847   5.639   8.302 -0.6159 -0.8888  0.7152
18227SOL    HW256359   1.891   5.722   8.421  3.5115 -1.6601 -0.1681
18228SOL     OW56360   7.626   7.926   4.796 -0.3017 -0.2691  0.1008
18228SOL    HW156361   7.682   7.855   4.826 -0.9100 -0.5277  0.6575
18228SOL    HW256362   7.636   7.927   4.701 -0.7646 -1.5086  0.0313
18229SOL     OW56363   0.062   3.264   4.807 -0.3236  0.2580 -0.2764
18229SOL    HW156364   0.044   3.258   4.713 -2.6272 -0.7779  0.1922
18229SOL    HW256365   0.116   3.188   4.827 -0.1803  0.2529 -0.6875
18230SOL     OW56366   0.423   0.036   3.582  0.0172  0.0204  0.7585
18230SOL    HW156367   0.419  -0.001   3.494  1.2809 -0.8042  1.0315
18230SOL    HW256368   0.353  -0.008   3.630 -1.6805  1.5998 -0.2313
18231SOL     OW56369   7.091   4.944   8.103  0.0412 -0.1652 -0.5842
18231SOL    HW156370   7.140   4.888   8.163  0.1795 -0.6142 -1.1066
18231SOL    HW256371   7.152   4.962   8.032 -0.0412  0.5665 -0.4709
18232SOL     OW56372   6.633   4.256   9.043  0.5373 -0.3129  0.6033
18232SOL    HW156373   6.672   4.185   8.992  0.0399  0.7468 -1.3270
18232SOL    HW256374   6.545   4.224   9.065 -0.5350  0.4908 -2.1720
18233SOL     OW56375   2.923   2.884   0.689  0.7814 -0.0935  0.4322
18233SOL    HW156376   3.012   2.909   0.666  1.1784 -0.1703  1.8695
18233SOL    HW256377   2.918   2.894   0.784 -0.7527 -0.0484  0.3660
18234SOL     OW56378   7.729   4.026   5.332  0.2090 -0.3222  0.2170
18234SOL    HW156379   7.658   4.074   5.374 -0.3465  0.2458 -1.3462
18234SOL    HW256380   7.798   4.023   5.398 -0.3138  1.3561  0.8592
18235SOL     OW56381   0.780   5.923   6.067  0.6807 -0.6713 -0.1544
18235SOL    HW156382   0.748   5.900   6.154 -2.8779 -0.4890 -1.3687
18235SOL    HW256383   0.855   5.980   6.084 -0.8110  0.5138  2.8075
18236SOL     OW56384   2.025   5.717   1.989  0.5858 -0.1183 -0.2115
18236SOL    HW156385   2.037   5.629   1.954 -2.4158 -0.3419 -0.8718
18236SOL    HW256386   2.060   5.775   1.921  0.7659 -0.7555 -0.6637
18237SOL     OW56387   5.244   3.307   0.135 -0.5927  0.2188  0.1245
18237SOL    HW156388   5.230   3.225   0.087 -0.3640  0.0774  0.2979
18237SOL    HW256389   5.230   3.283   0.227  0.1649  0.2158  0.2400
18238SOL     OW56390   5.667   3.509   2.106 -0.1621 -0.3882  0.0524
18238SOL    HW156391   5.645   3.421   2.077 -1.5506  0.3136 -1.1072
18238SOL    HW256392   5.707   3.550   2.030  0.0949  0.1166  0.4566
18239SOL     OW56393   5.707   3.594   6.035  0.9938  0.5518 -0.7960
18239SOL    HW156394   5.735   3.674   6.080 -0.9980  2.1832 -2.3044
18239SOL    HW256395   5.770   3.583   5.964  1.0505  1.0229 -0.8206
18240SOL     OW56396   1.084   0.285   2.066  0.7810  0.1037 -0.0403
18240SOL    HW156397   1.107   0.319   1.980  0.3252  1.2678  0.2872
18240SOL    HW256398   1.013   0.223   2.050  1.1001 -0.1316 -0.5573
18241SOL     OW56399   2.370   4.854   9.029 -0.1827  1.2120 -0.3847
18241SOL    HW156400   2.284   4.859   9.070  0.3743  2.0949  0.6824
18241SOL    HW256401   2.354   4.807   8.946 -1.2989 -0.5634  0.8001
18242SOL     OW56402   4.532   8.151   4.439  0.5085  0.0712  0.1067
18242SOL    HW156403   4.616   8.113   4.465 -0.1536 -0.4310  1.5528
18242SOL    HW256404   4.547   8.183   4.350  2.5190  0.8387  0.6825
18243SOL     OW56405   7.690   7.391   5.417  0.0550 -0.1268  0.2441
18243SOL    HW156406   7.624   7.456   5.394  0.9099  1.1222  1.2657
18243SOL    HW256407   7.742   7.380   5.338  0.8699  1.6167  0.5162
18244SOL     OW56408   0.716   8.104   0.556  0.3862  0.1785 -0.3314
18244SOL    HW156409   0.727   8.054   0.636  1.7183  0.2833 -0.4472
18244SOL    HW256410   0.653   8.052   0.504  0.6181 -0.6098  0.1649
18245SOL     OW56411   7.511   0.575   8.553  0.0663  0.1830  0.6252
18245SOL    HW156412   7.501   0.538   8.466 -0.1862  1.3963  0.1357
18245SOL    HW256413   7.502   0.670   8.541 -0.5073  0.3265  2.0347
18246SOL     OW56414   7.761   1.797   4.562 -0.7681  0.2185  0.0356
18246SOL    HW156415   7.669   1.825   4.558 -1.1522 -0.7599  1.9366
18246SOL    HW256416   7.802   1.859   4.622 -0.3754  0.0785 -0.0892
18247SOL     OW56417   2.578   5.205   0.012  0.2657  0.5438  0.4216
18247SOL    HW156418   2.498   5.253   0.032  0.0125  0.5095 -0.4908
18247SOL    HW256419   2.567   5.120   0.056 -1.2720 -0.3967 -1.6688
18248SOL     OW56420   0.890   7.793   1.947 -0.5874  0.0158 -0.1549
18248SOL    HW156421   0.809   7.745   1.926 -1.5018  0.4565  2.1854
18248SOL    HW256422   0.868   7.885   1.930 -1.4119  0.4046  2.7243
18249SOL     OW56423   2.674   2.582   1.540 -0.2111  0.2908 -0.0613
18249SOL    HW156424   2.582   2.563   1.524  0.1060  0.0754 -1.7219
18249SOL    HW256425   2.720   2.502   1.516  0.6892  1.4564 -2.3797
18250SOL     OW56426   5.843   8.172   1.152  0.3307  0.5230 -0.3197
18250SOL    HW156427   5.752   8.185   1.128 -0.6338 -1.8189  1.8783
18250SOL    HW256428   5.874   8.258   1.179 -1.8915  0.8881  1.1374
18251SOL     OW56429   8.947   1.158   4.886 -0.1796 -0.0195 -0.2644
18251SOL    HW156430   8.880   1.159   4.954 -0.4925  0.0799 -0.5721
18251SOL    HW256431   8.968   1.065   4.874  0.6017  0.0213  0.6710
18252SOL     OW56432   0.462   1.382   0.472  0.1234 -0.1589 -0.0663
18252SOL    HW156433   0.548   1.341   0.477 -0.3201 -0.9800  1.0353
18252SOL    HW256434   0.420   1.340   0.396  1.4364  1.7326 -1.8827
18253SOL     OW56435   6.386   7.659   8.836 -0.6636 -0.0156  0.5703
18253SOL    HW156436   6.374   7.703   8.752 -1.0398  0.0053  0.6369
18253SOL    HW256437   6.353   7.571   8.822  0.2065 -0.3217  0.4002
18254SOL     OW56438   8.326   0.019   8.089 -0.0750  0.4980  0.2453
18254SOL    HW156439   8.275  -0.017   8.016  0.6790  0.0670 -0.0746
18254SOL    HW256440   8.392  -0.048   8.108  0.2282  0.9470  0.8082
18255SOL     OW56441   2.128   9.270   8.495 -0.7433  0.0529  0.2231
18255SOL    HW156442   2.135   9.204   8.426  1.5285  0.1284  0.3516
18255SOL    HW256443   2.062   9.332   8.462 -0.0726 -0.1849 -1.6441
18256SOL     OW56444   4.536   4.968   1.770  0.0806 -0.0689 -0.2748
18256SOL    HW156445   4.531   5.030   1.697 -1.4206  0.0391 -0.1129
18256SOL    HW256446   4.449   4.927   1.772  0.0020  0.1196  1.5963
18257SOL     OW56447   9.142   4.864   0.112 -0.2420 -0.0297  0.2579
18257SOL    HW156448   9.163   4.940   0.167 -1.2543 -0.4155  1.2023
18257SOL    HW256449   9.133   4.792   0.175  0.2291 -0.8265 -0.5866
18258SOL     OW56450   3.379   0.928   5.739  0.7178  0.0897 -0.3347
18258SOL    HW156451   3.420   0.861   5.794  2.0695 -0.5363 -2.0544
18258SOL    HW256452   3.412   0.910   5.651 -1.5014  0.9927 -1.3857
18259SOL     OW56453   4.270   5.301   3.404  0.1299 -0.5769  0.0030
18259SOL    HW156454   4.299   5.294   3.495  1.4382  0.9180 -0.2817
18259SOL    HW256455   4.264   5.211   3.373  0.4806 -1.0548  1.3133
18260SOL     OW56456   9.229   0.802   6.724  0.2063 -0.0801  0.5328
18260SOL    HW156457   9.277   0.773   6.802  1.0576 -0.7165 -0.2192
18260SOL    HW256458   9.270   0.754   6.652  1.0349  2.2885 -0.6320
18261SOL     OW56459   7.415   2.897   7.744  0.4784 -0.5646  0.3012
18261SOL    HW156460   7.479   2.882   7.813  0.7115  1.0925  0.4646
18261SOL    HW256461   7.332   2.911   7.791  0.4044 -0.6360  0.1917
18262SOL     OW56462   9.278   5.960   2.314 -0.1176  0.7487 -0.9061
18262SOL    HW156463   9.312   5.984   2.400  0.6240 -0.1909 -0.9376
18262SOL    HW256464   9.278   6.042   2.265 -1.2387  1.4434  0.2071
18263SOL     OW56465   8.590   6.023   4.456 -0.2845 -0.3323  0.4213
18263SOL    HW156466   8.555   5.935   4.443  0.4493 -0.6557  0.6151
18263SOL    HW256467   8.666   6.010   4.514 -0.5042  0.4875  0.8970
18264SOL     OW56468   6.248   4.639   2.471  0.2860 -0.2154 -0.8114
18264SOL    HW156469   6.175   4.660   2.529  1.3186  4.2443 -0.8857
18264SOL    HW256470   6.300   4.575   2.519 -2.4808 -1.8378  0.1367
18265SOL     OW56471   7.914   6.575   1.935  0.2420 -0.2355  0.1259
18265SOL    HW156472   7.866   6.656   1.923  0.2860 -0.5985 -2.7945
18265SOL    HW256473   7.847   6.509   1.953 -0.1213 -0.1810 -0.9856
18266SOL     OW56474   3.085   4.594   6.092  0.3078  0.0375  0.1648
18266SOL    HW156475   3.154   4.540   6.130  2.3995  2.4737  0.0409
18266SOL    HW256476   3.117   4.613   6.003 -0.9728  0.4243 -0.2173
18267SOL     OW56477   7.448   6.478   6.718  0.0943 -0.2346 -0.1356
18267SOL    HW156478   7.438   6.572   6.699 -1.2340  0.0819  2.0457
18267SOL    HW256479   7.395   6.435   6.651 -0.6723  0.6379 -0.1007
18268SOL     OW56480   1.108   9.202   9.166  0.3195 -0.0361  0.2868
18268SOL    HW156481   1.014   9.207   9.150  0.1447 -0.3852  1.1991
18268SOL    HW256482   1.139   9.292   9.155  0.2389 -0.2780 -2.1522
18269SOL     OW56483   5.116   8.121   4.193 -0.3056 -0.1114  0.4766
18269SOL    HW156484   5.081   8.034   4.212 -0.5036  0.0543  0.8571
18269SOL    HW256485   5.210   8.114   4.213 -0.2271 -0.3760  0.0403
18270SOL     OW56486   1.393   4.881   3.334  0.3442 -0.2339 -0.0450
18270SOL    HW156487   1.316   4.856   3.282  1.6404 -1.5222 -1.3928
18270SOL    HW256488   1.428   4.957   3.289 -1.8850  2.3232  2.3604
18271SOL     OW56489   2.152   7.742   3.695 -0.3836  0.2000  0.4685
18271SOL    HW156490   2.173   7.656   3.658 -0.6405  0.8187 -1.1427
18271SOL    HW256491   2.227   7.796   3.672 -0.0017  0.2924  1.9063
18272SOL     OW56492   1.122   2.217   0.919 -0.0784 -0.3648 -0.7093
18272SOL    HW156493   1.198   2.160   0.904  0.2203  0.1835 -1.2960
18272SOL    HW256494   1.052   2.175   0.869  0.2681  0.0499 -1.5503
18273SOL     OW56495   1.875   3.494   0.317  0.0051 -0.0370  0.6086
18273SOL    HW156496   1.869   3.587   0.340 -0.9337  0.4452 -1.4713
18273SOL    HW256497   1.796   3.455   0.355 -1.8143  0.8555 -2.0725
18274SOL     OW56498   5.638   6.035   3.733 -0.1124  0.0590 -0.2855
18274SOL    HW156499   5.646   6.093   3.809  0.8504 -0.5983  0.1279
18274SOL    HW256500   5.627   5.948   3.771  1.0883 -0.3698 -0.8941
18275SOL     OW56501   5.925   0.965   7.245  0.0754 -0.3298  0.2446
18275SOL    HW156502   5.950   0.914   7.322 -0.0314 -0.0785  0.4465
18275SOL    HW256503   5.920   0.900   7.174 -1.0738 -0.7666  0.7190
18276SOL     OW56504   4.534   2.829   3.617  0.0103  0.0749  0.1473
18276SOL    HW156505   4.573   2.755   3.570 -0.1331 -1.4062  2.3185
18276SOL    HW256506   4.441   2.807   3.622 -0.0441  0.4375  0.7260
18277SOL     OW56507   8.081   0.570   6.156 -0.6935  0.3069  0.2397
18277SOL    HW156508   8.169   0.595   6.128 -0.1947 -0.7483  0.8766
18277SOL    HW256509   8.078   0.592   6.249 -0.8942 -0.2328  0.3625
18278SOL     OW56510   2.739   5.568   2.810 -0.1108  0.2072  0.7797
18278SOL    HW156511   2.834   5.580   2.814 -0.1392  0.9943 -0.6433
18278SOL    HW256512   2.728   5.478   2.779  0.1511 -0.3445  2.2446
18279SOL     OW56513   1.699   7.314   4.962 -0.5270  0.3388 -0.2954
18279SOL    HW156514   1.631   7.345   5.021 -0.8489  0.5277 -0.7649
18279SOL    HW256515   1.659   7.315   4.876 -0.4438 -1.0865 -0.3696
18280SOL     OW56516   4.199   2.599   1.659 -0.1645 -0.5294  0.9892
18280SOL    HW156517   4.151   2.592   1.576  0.4426 -0.2519  0.6082
18280SOL    HW256518   4.174   2.685   1.693  0.6697 -0.0406  0.3955
18281SOL     OW56519   7.961   6.926   2.103 -0.3592  0.1636  0.1611
18281SOL    HW156520   7.964   7.017   2.130  0.1092  0.0585  0.4755
18281SOL    HW256521   8.008   6.924   2.019  1.4608 -0.1316  1.1672
18282SOL     OW56522   7.135   5.156   2.909 -0.1895  0.5497  0.0562
18282SOL    HW156523   7.164   5.106   2.985  0.2812  0.6092 -0.0838
18282SOL    HW256524   7.210   5.156   2.850 -0.6949  0.1256 -0.5970
18283SOL     OW56525   9.037   0.192   7.923 -0.2040  0.1387 -0.3321
18283SOL    HW156526   9.066   0.122   7.981 -0.9265 -0.5033 -0.7380
18283SOL    HW256527   9.114   0.213   7.870  0.7051  1.3105  1.4038
18284SOL     OW56528   1.855   6.200   7.727  0.7529 -0.1388 -0.5573
18284SOL    HW156529   1.816   6.126   7.775  0.9860 -0.9898 -1.6558
18284SOL    HW256530   1.812   6.277   7.763 -0.1815 -0.8864 -0.0409
18285SOL     OW56531   7.248   5.942   3.900  0.4284 -0.1839  0.0831
18285SOL    HW156532   7.295   5.926   3.982  0.0556  1.1977  0.5709
18285SOL    HW256533   7.163   5.977   3.927 -0.9091 -2.5705 -0.7768
18286SOL     OW56534   7.141   3.580   2.524  0.4825  0.3330  0.2039
18286SOL    HW156535   7.232   3.549   2.525  0.5005  0.4036  0.7392
18286SOL    HW256536   7.144   3.662   2.476  1.2028  1.8845  2.8157
18287SOL     OW56537   2.303   1.377   4.114  0.0729 -0.1192  0.1925
18287SOL    HW156538   2.346   1.463   4.115  0.7540 -0.4708  1.6233
18287SOL    HW256539   2.328   1.339   4.030  2.0337 -0.0461  0.7251
18288SOL     OW56540   0.491   1.876   3.507  0.0318  0.2561 -0.0244
18288SOL    HW156541   0.555   1.893   3.576  0.5608  0.9654 -0.6777
18288SOL    HW256542   0.504   1.784   3.485  1.2989  0.5623 -0.6136
18289SOL     OW56543   2.098   6.512   7.916  0.0771 -0.1102 -0.3932
18289SOL    HW156544   2.080   6.599   7.950  1.9293  0.5892 -1.1197
18289SOL    HW256545   2.048   6.506   7.835 -0.6979 -0.0311  0.0816
18290SOL     OW56546   2.965   6.873   7.135  0.1036 -0.5253  0.2291
18290SOL    HW156547   2.901   6.939   7.162 -0.2563 -0.8554  0.1892
18290SOL    HW256548   3.039   6.924   7.103 -0.1352 -0.1380  0.2834
18291SOL     OW56549   1.611   0.554   0.575  0.0008  0.0052 -0.1640
18291SOL    HW156550   1.575   0.522   0.493  0.5636 -0.2578 -0.3099
18291SOL    HW256551   1.610   0.478   0.633 -0.0514  0.0944 -0.0494
18292SOL     OW56552   4.680   8.351   6.142  0.0592  0.1286  0.3028
18292SOL    HW156553   4.660   8.258   6.147 -0.0921  0.1040 -0.7320
18292SOL    HW256554   4.604   8.390   6.099  1.5379  0.2439 -2.2895
18293SOL     OW56555   7.530   8.778   3.134  0.3900  0.1701  0.2881
18293SOL    HW156556   7.493   8.721   3.068  0.1628  0.2141  0.3775
18293SOL    HW256557   7.455   8.809   3.185  0.4853  0.7269  0.0986
18294SOL     OW56558   7.457   4.125   0.171  0.2437 -0.0942 -0.1078
18294SOL    HW156559   7.441   4.219   0.175 -0.5020 -0.1287 -1.7808
18294SOL    HW256560   7.517   4.114   0.097  0.4209 -0.9221  0.1514
18295SOL     OW56561   3.502   7.039   9.215  0.3465  0.1779  0.0106
18295SOL    HW156562   3.431   7.080   9.165 -1.5961 -2.2584  0.6457
18295SOL    HW256563   3.582   7.072   9.175 -1.0323  4.7373  0.6057
18296SOL     OW56564   0.865   6.710   8.111 -0.4713  0.7953 -0.0063
18296SOL    HW156565   0.892   6.676   8.026  3.6710  0.3675  1.3675
18296SOL    HW256566   0.832   6.634   8.158  1.0512  0.2045  0.1455
18297SOL     OW56567   6.931   3.301   0.023 -0.2246  0.0184 -0.0493
18297SOL    HW156568   6.895   3.371  -0.031 -0.3329 -0.2984 -0.3904
18297SOL    HW256569   6.895   3.221  -0.014  0.0587 -0.2337  0.2120
18298SOL     OW56570   4.368   6.946   1.126 -0.0967  0.1412 -0.1838
18298SOL    HW156571   4.285   6.921   1.085 -0.6050  0.2893  0.7433
18298SOL    HW256572   4.380   7.038   1.102 -0.9143  0.5264  0.8556
18299SOL     OW56573   5.231   6.108   3.085  0.0844 -0.0142 -0.5095
18299SOL    HW156574   5.265   6.020   3.095  1.4083  0.3175 -1.9276
18299SOL    HW256575   5.283   6.161   3.145 -0.6745 -0.1823  0.3031
18300SOL     OW56576   3.663   7.299   5.202 -0.1862 -0.0230 -0.4906
18300SOL    HW156577   3.684   7.391   5.186  1.5148 -0.1295  0.8464
18300SOL    HW256578   3.580   7.301   5.249  0.5639  0.9556  0.8449
18301SOL     OW56579   7.567   0.223   4.425 -0.4042  0.3416  0.0469
18301SOL    HW156580   7.586   0.286   4.494  2.6711  0.9453 -1.2772
18301SOL    HW256581   7.525   0.150   4.470 -0.9794  1.8900  2.1080
18302SOL     OW56582   6.815   8.314   0.009  0.3573  0.4320 -0.1923
18302SOL    HW156583   6.800   8.277   0.096 -2.8570 -0.1235 -0.9235
18302SOL    HW256584   6.908   8.335   0.008  1.1252 -2.5094  2.2279
18303SOL     OW56585   1.173   7.078   3.261 -0.1510 -0.7048  0.0225
18303SOL    HW156586   1.177   7.162   3.216  1.4659  0.7914  2.8262
18303SOL    HW256587   1.104   7.029   3.215 -1.0282  2.0643 -1.7271
18304SOL     OW56588   7.048   3.699   4.498  0.2488 -0.0771 -0.1105
18304SOL    HW156589   7.083   3.741   4.577 -0.3358 -0.6688  0.4769
18304SOL    HW256590   6.954   3.717   4.502 -0.1482 -2.1836  0.6227
18305SOL     OW56591   7.261   9.088   3.748  0.0324  0.1173  0.5089
18305SOL    HW156592   7.202   9.018   3.776  1.1795 -1.6978 -1.4361
18305SOL    HW256593   7.204   9.160   3.724 -1.3703 -1.2290 -0.3171
18306SOL     OW56594   1.605   3.252   3.020 -0.3531  0.0007  0.6425
18306SOL    HW156595   1.630   3.292   3.103 -2.1854  1.0855  0.6817
18306SOL    HW256596   1.558   3.172   3.045 -1.5903  0.7278  0.6869
18307SOL     OW56597   5.455   6.245   5.438  0.4889 -0.0389  0.0091
18307SOL    HW156598   5.436   6.335   5.411 -2.1609 -0.7242 -0.5942
18307SOL    HW256599   5.468   6.197   5.356  0.4987 -0.4756  0.2652
18308SOL     OW56600   2.490   0.096   1.601 -0.1459 -0.0679  0.2432
18308SOL    HW156601   2.435   0.165   1.563 -0.4951 -0.4259  0.1016
18308SOL    HW256602   2.579   0.130   1.593 -0.3997  0.8226  1.1118
18309SOL     OW56603   3.894   2.713   3.818 -0.5793  0.4194  0.2561
18309SOL    HW156604   3.942   2.794   3.836 -0.8182  0.2604  1.6250
18309SOL    HW256605   3.870   2.720   3.725  1.5043  0.8084 -0.2851
18310SOL     OW56606   2.866   2.766   4.511  0.5474 -0.0292  0.5822
18310SOL    HW156607   2.857   2.768   4.606  1.6642  1.3458  0.6773
18310SOL    HW256608   2.929   2.835   4.491  0.4175 -0.3764 -1.1524
18311SOL     OW56609   4.580   7.017   8.152 -0.4918  0.2503  0.5519
18311SOL    HW156610   4.610   7.028   8.243  0.7639 -2.0314  0.4551
18311SOL    HW256611   4.659   7.025   8.099 -0.7396 -1.3440 -0.0860
18312SOL     OW56612   8.762   2.665   2.942  0.0054  0.0169  0.8102
18312SOL    HW156613   8.685   2.715   2.914 -0.9310 -0.2277  2.8606
18312SOL    HW256614   8.809   2.647   2.861 -0.4210  2.9044 -0.1494
18313SOL     OW56615   4.283   9.223   3.723  0.2079  0.2013  0.1545
18313SOL    HW156616   4.340   9.214   3.799 -0.8557  0.1472  0.9552
18313SOL    HW256617   4.200   9.184   3.750 -0.2854  0.4854 -0.9158
18314SOL     OW56618   4.485   8.063   9.228 -0.3855  0.2823 -0.1658
18314SOL    HW156619   4.514   8.044   9.317  0.3125  0.7627 -0.2814
18314SOL    HW256620   4.443   8.148   9.233 -1.0914 -0.0671 -0.1420
18315SOL     OW56621   5.456   3.546   8.788  0.0726 -0.1524 -0.0463
18315SOL    HW156622   5.425   3.631   8.757  0.8638  0.3525  0.5189
18315SOL    HW256623   5.406   3.482   8.738  0.0758  0.6476 -1.0843
18316SOL     OW56624   1.956   7.744   1.273 -0.8079  0.5565  0.1672
18316SOL    HW156625   2.013   7.738   1.350 -0.8273 -1.2753  0.0628
18316SOL    HW256626   1.884   7.801   1.301 -1.3926 -0.9850  1.8996
18317SOL     OW56627   5.338   7.896   1.739 -0.0636 -0.6419  0.0237
18317SOL    HW156628   5.362   7.930   1.825 -1.0291  0.0659  0.0292
18317SOL    HW256629   5.421   7.879   1.695  0.4319  0.2301  0.6132
18318SOL     OW56630   4.858   4.259   5.944 -0.3033  0.1507 -0.0802
18318SOL    HW156631   4.906   4.293   6.020 -0.6040 -0.5327  0.4124
18318SOL    HW256632   4.927   4.229   5.884 -0.0535  1.0096 -0.2342
18319SOL     OW56633   4.991   5.802   4.137 -0.3012 -0.5635  0.2772
18319SOL    HW156634   5.059   5.738   4.157  0.1544 -0.2702 -0.3213
18319SOL    HW256635   4.920   5.750   4.098 -0.7455 -0.9784  1.6158
18320SOL     OW56636   3.387   6.546   2.093  0.2049 -0.0514  0.0292
18320SOL    HW156637   3.404   6.520   2.003 -1.0547 -1.4750  0.1804
18320SOL    HW256638   3.354   6.636   2.086  0.8641  0.1242 -0.8566
18321SOL     OW56639   6.913   4.342   7.871 -0.0332  0.0298  0.4246
18321SOL    HW156640   6.988   4.350   7.813 -0.5258  0.5580 -0.1529
18321SOL    HW256641   6.878   4.431   7.877 -0.9318 -0.3023  0.2483
18322SOL     OW56642   5.338   7.011   8.999  0.2684 -0.4492 -0.2545
18322SOL    HW156643   5.389   7.066   9.058 -0.2645 -0.3587  0.1275
18322SOL    HW256644   5.338   7.059   8.916 -3.2558  2.0167  1.0366
18323SOL     OW56645   5.522   8.190   3.602  0.4196 -0.3362  0.3595
18323SOL    HW156646   5.578   8.146   3.538 -0.3542  0.2434 -0.7336
18323SOL    HW256647   5.581   8.246   3.652  1.0410 -0.8564  0.2127
18324SOL     OW56648   8.333   4.971   1.144 -0.0276  0.4022  0.2281
18324SOL    HW156649   8.388   5.049   1.140  0.5982 -0.0185  0.6832
18324SOL    HW256650   8.357   4.928   1.226  0.0292 -0.5577 -0.2832
18325SOL     OW56651   5.845   8.119   2.691  0.0361 -0.0207  0.0193
18325SOL    HW156652   5.864   8.205   2.655 -1.4211  0.8947  1.3832
18325SOL    HW256653   5.761   8.094   2.652 -1.4537  0.8916  2.5394
18326SOL     OW56654   8.808   8.241   5.040  0.0491 -0.1994 -0.0497
18326SOL    HW156655   8.853   8.319   5.009  1.4677 -0.5402  1.1003
18326SOL    HW256656   8.743   8.273   5.102 -0.6670  0.2161 -1.0070
18327SOL     OW56657   8.193   1.522   3.860  0.2067 -0.1677 -0.0886
18327SOL    HW156658   8.190   1.605   3.908  0.6387 -0.7096  0.8774
18327SOL    HW256659   8.231   1.545   3.775  0.4779  0.5975  0.2371
18328SOL     OW56660   6.475   3.419   3.214  0.7102  0.2988 -0.2204
18328SOL    HW156661   6.551   3.473   3.236 -0.4412  1.8004  0.1004
18328SOL    HW256662   6.462   3.363   3.290 -0.5062  2.3417  1.1023
18329SOL     OW56663   2.134   7.440   3.939  0.2911  0.3610  0.7587
18329SOL    HW156664   2.057   7.433   3.883 -0.4261 -0.5196  1.8352
18329SOL    HW256665   2.129   7.527   3.977 -0.8698 -0.1567  1.8179
18330SOL     OW56666   8.487   8.496   6.160 -0.0389 -0.8652 -0.3886
18330SOL    HW156667   8.440   8.549   6.095  1.7917  0.8859 -0.3403
18330SOL    HW256668   8.456   8.529   6.244  0.1400 -0.7313 -0.3725
18331SOL     OW56669   0.596   5.583   8.635  0.1006 -0.3788  0.3610
18331SOL    HW156670   0.612   5.662   8.584  0.7688 -0.2161  0.8229
18331SOL    HW256671   0.508   5.555   8.608  1.0310 -1.1400 -1.9883
18332SOL     OW56672   7.763   5.542   7.610  0.0308  0.9112 -0.2865
18332SOL    HW156673   7.801   5.538   7.698 -0.2693 -0.5668 -0.2082
18332SOL    HW256674   7.838   5.535   7.551 -0.0868 -2.8032 -0.1363
18333SOL     OW56675   5.745   3.290   4.263  0.1079 -0.5545 -0.2195
18333SOL    HW156676   5.743   3.378   4.224  1.2015 -0.7469 -0.7239
18333SOL    HW256677   5.744   3.231   4.187 -1.1226 -0.9985  0.1250
18334SOL     OW56678   5.879   2.267   4.650 -0.5609  0.0715 -0.2769
18334SOL    HW156679   5.887   2.335   4.717 -0.0655  0.4482 -0.7188
18334SOL    HW256680   5.969   2.238   4.635 -0.7596 -0.5994 -0.1756
18335SOL     OW56681   0.285   0.629   2.277  0.5477 -0.5409 -0.3196
18335SOL    HW156682   0.190   0.623   2.283  0.2660  3.0335  0.2333
18335SOL    HW256683   0.314   0.638   2.368  1.2826 -0.4387 -0.5626
18336SOL     OW56684   3.685   4.569   2.729 -0.3231  0.3410 -0.1503
18336SOL    HW156685   3.778   4.576   2.710 -0.4455  1.2169 -0.4385
18336SOL    HW256686   3.681   4.522   2.813  0.2694 -1.9867 -1.3804
18337SOL     OW56687   7.211   7.419   0.742 -0.0308  0.4520  0.4071
18337SOL    HW156688   7.134   7.423   0.799  0.5253 -1.1611  1.2721
18337SOL    HW256689   7.236   7.511   0.729 -2.6100  1.0532 -0.5993
18338SOL     OW56690   8.754   7.105   5.868 -0.2521 -0.1498  0.1558
18338SOL    HW156691   8.833   7.086   5.817  0.5487 -2.1856  2.0525
18338SOL    HW256692   8.777   7.181   5.921  0.0600 -0.0600 -0.1097
18339SOL     OW56693   9.100   0.329   4.693  0.2377 -0.3590 -0.8890
18339SOL    HW156694   9.169   0.317   4.758  0.9216  1.4653 -1.2444
18339SOL    HW256695   9.146   0.361   4.615 -1.2720  3.5760 -0.2541
18340SOL     OW56696   3.784   0.261   3.548  0.1250 -0.1211  0.1183
18340SOL    HW156697   3.838   0.289   3.474  0.4961 -0.6918  0.1666
18340SOL    HW256698   3.696   0.252   3.512  0.1629  0.3322 -0.0811
18341SOL     OW56699   7.001   0.954   7.766  0.4377 -0.2834  0.3575
18341SOL    HW156700   6.950   0.929   7.689 -1.0520 -0.0530  1.2646
18341SOL    HW256701   6.937   0.985   7.830  1.7880  0.9304  1.1699
18342SOL     OW56702   1.354   6.636   5.029 -0.2781 -0.3340  0.0658
18342SOL    HW156703   1.401   6.689   4.964  0.5922 -0.9536  0.1981
18342SOL    HW256704   1.325   6.559   4.980 -1.6912  0.3213 -0.1661
18343SOL     OW56705   1.114   6.904   3.069  0.1139  0.0887 -0.1086
18343SOL    HW156706   1.193   6.931   3.022  2.0765 -1.3416  2.2466
18343SOL    HW256707   1.126   6.810   3.084 -0.5703  0.4259  2.9137
18344SOL     OW56708   7.206   6.239   8.313  0.7151  0.3184 -0.2010
18344SOL    HW156709   7.261   6.240   8.391 -0.9987  0.3973  1.0250
18344SOL    HW256710   7.219   6.152   8.275 -1.7207 -1.3257  2.5670
18345SOL     OW56711   1.013   0.744   2.772 -0.3514  0.4435  0.1583
18345SOL    HW156712   1.031   0.835   2.793  0.3319  0.3798 -0.1461
18345SOL    HW256713   1.074   0.694   2.826 -0.4087  0.1814 -0.0175
18346SOL     OW56714   7.143   3.706   4.023  0.5347  0.5244  0.0046
18346SOL    HW156715   7.056   3.666   4.021  0.3082  1.0589 -0.9017
18346SOL    HW256716   7.166   3.706   4.116 -0.7105  0.9749  0.3353
18347SOL     OW56717   3.353   0.019   7.460 -0.4627  0.8474  0.9097
18347SOL    HW156718   3.334  -0.038   7.535  0.5294  0.4051  0.8349
18347SOL    HW256719   3.286  -0.003   7.396  0.2626 -0.6677  0.6584
18348SOL     OW56720   8.922   4.738   6.748  0.1070 -0.3121  0.0122
18348SOL    HW156721   9.014   4.764   6.752  0.2594 -0.9465  0.7329
18348SOL    HW256722   8.874   4.816   6.774  0.4373 -0.0036 -0.2811
18349SOL     OW56723   0.195   7.928   3.541 -0.0253 -0.4842 -0.4761
18349SOL    HW156724   0.141   7.868   3.489 -0.1806 -1.6309  0.9621
18349SOL    HW256725   0.267   7.873   3.574  0.2902  0.3139  0.1870
18350SOL     OW56726   8.582   0.806   8.576 -0.6581  0.0336 -0.0996
18350SOL    HW156727   8.542   0.843   8.655 -0.8531 -1.5032  0.5511
18350SOL    HW256728   8.510   0.759   8.533  0.0041 -1.1926  0.1086
18351SOL     OW56729   0.755   7.194   9.293  0.4487 -0.6488  0.0802
18351SOL    HW156730   0.820   7.125   9.276  0.7544 -0.5645  0.8779
18351SOL    HW256731   0.764   7.254   9.220  0.9761 -0.8612 -0.0337
18352SOL     OW56732   2.267   2.520   6.370  0.2860  0.3760  0.6042
18352SOL    HW156733   2.230   2.434   6.350 -1.7973  1.2801  0.4102
18352SOL    HW256734   2.225   2.545   6.452 -0.3293  1.8838 -0.1554
18353SOL     OW56735   9.279   3.885   1.190  0.3327 -0.2355  0.1138
18353SOL    HW156736   9.317   3.878   1.278 -1.0037  1.6507  0.8689
18353SOL    HW256737   9.278   3.979   1.172 -0.7411 -0.5136 -1.3376
18354SOL     OW56738   1.470   5.854   1.679  0.4969  0.5148 -0.4103
18354SOL    HW156739   1.402   5.841   1.612  0.0399  1.6607 -0.1927
18354SOL    HW256740   1.426   5.904   1.748  1.7201  1.8152 -0.5407
18355SOL     OW56741   3.504   7.740   4.771  0.1659  0.5060  0.2802
18355SOL    HW156742   3.526   7.818   4.720  1.4254  0.8943  1.3901
18355SOL    HW256743   3.518   7.767   4.862  1.0625 -1.1468  0.6459
18356SOL     OW56744   1.100   8.134   2.706 -0.6159  0.0437 -0.4529
18356SOL    HW156745   1.023   8.188   2.723 -1.6787 -1.1677 -1.3490
18356SOL    HW256746   1.066   8.046   2.691  0.9904 -0.6293 -0.2887
18357SOL     OW56747   6.915   0.838   9.131  0.8224  0.1317  0.0387
18357SOL    HW156748   6.963   0.859   9.211 -0.4408 -0.1373  0.8974
18357SOL    HW256749   6.910   0.920   9.083  2.6105  0.0313 -0.3368
18358SOL     OW56750   6.272   5.915   2.549 -1.0319  0.0384 -0.5369
18358SOL    HW156751   6.188   5.957   2.569 -0.0876  0.9803  1.6010
18358SOL    HW256752   6.334   5.956   2.608  0.8084 -1.2288 -1.5349
18359SOL     OW56753   3.433   6.469   1.604 -0.2726  0.0502  0.0848
18359SOL    HW156754   3.367   6.407   1.635  0.2690 -1.5105 -1.7909
18359SOL    HW256755   3.395   6.507   1.525  1.1124 -1.0448 -1.1578
18360SOL     OW56756   7.773   2.036   2.382 -0.1405 -0.1010  0.0965
18360SOL    HW156757   7.765   1.947   2.416 -1.1781 -0.7703 -1.8165
18360SOL    HW256758   7.683   2.068   2.376  0.2463  1.3540  1.3698
18361SOL     OW56759   1.639   7.236   6.733  0.0690  0.3521  0.1277
18361SOL    HW156760   1.556   7.236   6.781 -0.1495  0.7292 -0.2513
18361SOL    HW256761   1.700   7.283   6.791 -0.7832  2.9109 -0.9678
18362SOL     OW56762   1.252   1.277   5.238  0.0618  0.8615 -0.2583
18362SOL    HW156763   1.243   1.321   5.154  0.4053  1.5329  0.0550
18362SOL    HW256764   1.170   1.229   5.249  1.2278 -1.7250 -2.4061
18363SOL     OW56765   8.870   0.190   2.052 -0.3921  0.1558 -0.7470
18363SOL    HW156766   8.925   0.268   2.041  2.6483 -1.8294 -0.0712
18363SOL    HW256767   8.832   0.176   1.965  0.3069  1.4809 -1.2899
18364SOL     OW56768   3.199   4.790   5.394  0.3868  0.2002 -0.0554
18364SOL    HW156769   3.262   4.718   5.399 -0.7264 -0.7496  0.5900
18364SOL    HW256770   3.159   4.782   5.308 -0.5325 -0.6516  0.4390
18365SOL     OW56771   3.475   1.370   4.579  0.3775 -0.2622 -0.1254
18365SOL    HW156772   3.496   1.442   4.638  0.2954  0.1600 -0.6092
18365SOL    HW256773   3.398   1.400   4.531  1.9393  0.4729 -2.2637
18366SOL     OW56774   0.517   8.484   6.177 -0.6789 -0.4293 -0.6473
18366SOL    HW156775   0.582   8.418   6.152 -1.2228 -1.1379 -0.2040
18366SOL    HW256776   0.567   8.566   6.183  0.4710 -1.2229  1.0798
18367SOL     OW56777   5.393   1.022   3.852  0.4612 -0.3656  0.2109
18367SOL    HW156778   5.470   1.001   3.905  0.3889 -0.7947  0.1420
18367SOL    HW256779   5.320   0.980   3.897  0.4024 -0.7549 -0.2462
18368SOL     OW56780   8.274   1.099   0.268  0.3337 -0.5116  0.5338
18368SOL    HW156781   8.186   1.137   0.261  0.2896 -0.8977 -1.5023
18368SOL    HW256782   8.268   1.018   0.217  1.6951 -0.8677  0.9357
18369SOL     OW56783   4.626   2.268   2.310  0.4305 -0.0127 -0.3920
18369SOL    HW156784   4.542   2.314   2.314  0.7904  0.5951  0.3902
18369SOL    HW256785   4.663   2.280   2.397  0.9001 -1.1012 -0.4418
18370SOL     OW56786   2.822   8.999   4.497  0.1839 -0.0147  0.2720
18370SOL    HW156787   2.870   9.023   4.576  3.0157  0.3976 -1.5040
18370SOL    HW256788   2.845   8.908   4.481  1.6140  0.6145 -1.4076
18371SOL     OW56789   1.195   6.682   4.163  0.6299 -0.5084  0.2156
18371SOL    HW156790   1.125   6.747   4.154 -0.3381 -1.5663 -0.1475
18371SOL    HW256791   1.261   6.709   4.099  0.0564 -0.1049 -0.2123
18372SOL     OW56792   0.755   2.094   9.263 -0.0738 -0.2639 -0.1098
18372SOL    HW156793   0.678   2.150   9.254 -1.2801 -2.0082 -0.8252
18372SOL    HW256794   0.822   2.137   9.209 -1.1642  0.1691 -1.1398
18373SOL     OW56795   2.851   5.414   1.944 -0.0158  0.4585  0.1739
18373SOL    HW156796   2.856   5.351   2.016 -0.2159 -0.0750 -0.2814
18373SOL    HW256797   2.789   5.480   1.976 -2.2405 -1.2055 -0.5903
18374SOL     OW56798   1.152   6.675   0.205 -0.1891 -0.1307 -0.0147
18374SOL    HW156799   1.110   6.758   0.183  0.2423 -0.2777 -1.4068
18374SOL    HW256800   1.202   6.694   0.285  3.0500  2.0248 -2.4178
18375SOL     OW56801   1.227   5.129   2.526  0.1440 -0.3801 -0.0237
18375SOL    HW156802   1.278   5.061   2.481 -0.7873 -1.7344  0.9154
18375SOL    HW256803   1.154   5.147   2.467  1.1745  0.8979 -0.9472
18376SOL     OW56804   8.843   0.538   3.245  0.4250 -0.3723 -0.0611
18376SOL    HW156805   8.777   0.468   3.247  0.9528 -1.1008 -3.7963
18376SOL    HW256806   8.903   0.512   3.175  1.1699  3.3790 -0.9315
18377SOL     OW56807   2.283   8.499   1.722  0.1759  0.6963  0.1417
18377SOL    HW156808   2.243   8.567   1.667 -0.6185  0.2076  0.1028
18377SOL    HW256809   2.300   8.543   1.805  2.6766  1.8250 -0.9206
18378SOL     OW56810   7.527   8.682   0.737  0.2767  0.2939  0.3585
18378SOL    HW156811   7.519   8.642   0.823  0.1457 -0.5610 -0.0497
18378SOL    HW256812   7.571   8.766   0.753  1.6268 -0.5411  1.0539
18379SOL     OW56813   1.546   4.053   0.616 -0.0912  0.1684  0.4700
18379SOL    HW156814   1.625   4.066   0.564 -0.2825  4.2830  1.0127
18379SOL    HW256815   1.577   4.038   0.705  0.1088 -2.4239  0.0146
18380SOL     OW56816   1.481   5.102   8.884  0.3323 -0.0050 -0.0840
18380SOL    HW156817   1.467   5.037   8.816  0.3487  0.2087 -0.2916
18380SOL    HW256818   1.572   5.131   8.872 -0.3341  1.6460 -1.3863
18381SOL     OW56819   8.812   6.617   1.337  0.4892  0.0940  0.6239
18381SOL    HW156820   8.750   6.686   1.316 -0.0678 -0.4909  0.3271
18381SOL    HW256821   8.758   6.538   1.345  1.0700 -0.2382  1.3225
18382SOL     OW56822   1.720   0.024   2.879  0.6881  0.3942  0.7305
18382SOL    HW156823   1.787   0.078   2.838  0.3944  1.3267  1.4636
18382SOL    HW256824   1.733  -0.064   2.841  1.7208  0.7725  0.1955
18383SOL     OW56825   4.323   2.134   0.002 -0.2695  0.4184 -0.0482
18383SOL    HW156826   4.368   2.065   0.051  0.7103 -0.7246 -2.4502
18383SOL    HW256827   4.231   2.109   0.004 -0.1128 -0.1516  0.3732
18384SOL     OW56828   7.285   3.861   5.725  0.5964 -0.7999  0.2831
18384SOL    HW156829   7.249   3.773   5.726 -0.8703 -0.2635 -1.3926
18384SOL    HW256830   7.237   3.908   5.793 -1.2975 -0.3354 -1.3206
18385SOL     OW56831   2.632   8.934   2.857  0.5243 -0.3360 -0.2519
18385SOL    HW156832   2.658   8.877   2.930 -0.4742 -0.4992 -0.0115
18385SOL    HW256833   2.626   8.876   2.782 -1.1641 -0.7048  0.1369
18386SOL     OW56834   3.545   2.585   3.593  0.1506  0.4567 -0.0930
18386SOL    HW156835   3.592   2.502   3.596  1.2888  1.1028 -0.1087
18386SOL    HW256836   3.475   2.575   3.658 -0.2937 -0.8497 -0.7414
18387SOL     OW56837   7.435   4.276   1.814 -0.3245  0.1608  0.0291
18387SOL    HW156838   7.492   4.199   1.821 -1.2172 -0.6100 -0.9547
18387SOL    HW256839   7.378   4.256   1.739 -0.7689  1.6481 -0.0353
18388SOL     OW56840   6.101   8.790   2.684  0.2668 -0.1470  0.0274
18388SOL    HW156841   6.114   8.747   2.600  3.0311  0.7384 -0.0338
18388SOL    HW256842   6.038   8.860   2.666  0.3654 -0.3677 -1.1658
18389SOL     OW56843   1.957   2.683   6.004 -0.3113  0.1845 -0.1982
18389SOL    HW156844   2.012   2.609   6.029 -0.7233 -0.4388 -1.0594
18389SOL    HW256845   2.008   2.730   5.938  0.3167  1.1800  0.9999
18390SOL     OW56846   4.335   6.270   6.661  0.1785 -0.2938 -0.1682
18390SOL    HW156847   4.374   6.352   6.629 -1.0283  0.0866 -0.6590
18390SOL    HW256848   4.248   6.295   6.691  0.7972 -0.8757  2.2610
18391SOL     OW56849   2.896   1.564   3.680  0.1736  0.0778  0.0203
18391SOL    HW156850   2.952   1.559   3.757 -0.5723  1.3913  0.6691
18391SOL    HW256851   2.849   1.481   3.678 -0.1329  0.2125  1.2520
18392SOL     OW56852   3.127   3.230   8.025 -0.2441 -0.1870  0.1542
18392SOL    HW156853   3.126   3.151   8.078  0.6290  1.3714  2.5593
18392SOL    HW256854   3.069   3.210   7.951 -0.3775 -2.8832  0.9429
18393SOL     OW56855   7.669   0.409   8.091  0.3109 -0.1960  0.2306
18393SOL    HW156856   7.690   0.315   8.084  0.8042 -0.2360  1.9260
18393SOL    HW256857   7.753   0.450   8.113  0.5540  0.9540 -2.6976
18394SOL     OW56858   8.042   2.348   4.362  0.1397  0.3558 -0.2216
18394SOL    HW156859   8.097   2.330   4.438 -1.8603  1.5291  1.5584
18394SOL    HW256860   7.957   2.310   4.385 -0.6629  1.2870 -1.6156
18395SOL     OW56861   6.085   2.648   6.923  0.1876  0.4994  0.2795
18395SOL    HW156862   6.157   2.710   6.938  0.3784 -0.1307  2.1015
18395SOL    HW256863   6.125   2.579   6.869  0.7960  0.4400  0.7975
18396SOL     OW56864   3.792   5.319   3.824  0.3275 -0.4762  0.2049
18396SOL    HW156865   3.841   5.302   3.905  0.7556  1.5971  0.3995
18396SOL    HW256866   3.846   5.279   3.756  1.1686 -0.1881  0.6807
18397SOL     OW56867   7.457   9.114   3.303  0.4389  0.6710 -0.2980
18397SOL    HW156868   7.546   9.079   3.289 -0.3925 -1.6667 -0.0457
18397SOL    HW256869   7.401   9.036   3.301 -1.3214  1.8452  2.0294
18398SOL     OW56870   4.919   3.968   6.610 -0.1513 -0.2419  0.1879
18398SOL    HW156871   4.916   4.013   6.526  0.9445  1.9785  1.2952
18398SOL    HW256872   4.887   4.032   6.673  2.6024 -0.5723  1.9890
18399SOL     OW56873   2.514   9.280   0.012  0.6196  0.6014  0.3001
18399SOL    HW156874   2.437   9.226   0.027  1.6433 -1.4696 -1.6002
18399SOL    HW256875   2.553   9.291   0.099 -1.2243  0.8013  1.1178
18400SOL     OW56876   9.195   5.242   8.616 -0.4860  0.4668 -0.6271
18400SOL    HW156877   9.116   5.254   8.564  0.0263 -1.1124 -1.8124
18400SOL    HW256878   9.255   5.195   8.558  1.8220  2.7647 -0.2019
18401SOL     OW56879   2.576   2.219   8.287 -0.3366 -0.0033 -0.6712
18401SOL    HW156880   2.526   2.279   8.342 -1.5412 -0.7507 -0.9525
18401SOL    HW256881   2.578   2.260   8.201  0.8982  0.7967 -0.2689
18402SOL     OW56882   4.441   0.210   8.919  0.1801  0.3302  0.1961
18402SOL    HW156883   4.372   0.186   8.981 -2.6960  2.6663 -1.9304
18402SOL    HW256884   4.448   0.134   8.861  0.8530 -0.7297  1.6610
18403SOL     OW56885   1.768   2.367   3.706 -0.5612 -0.8343  0.0964
18403SOL    HW156886   1.748   2.349   3.798  0.5247  1.6252  0.8515
18403SOL    HW256887   1.708   2.437   3.682 -0.9235 -1.5482 -1.1298
18404SOL     OW56888   0.234   5.008   3.689  0.2069  0.5822 -0.2506
18404SOL    HW156889   0.169   4.967   3.631  2.1908 -0.1983 -1.9978
18404SOL    HW256890   0.308   5.026   3.632  0.7345  3.4184  1.2741
18405SOL     OW56891   1.287   7.319   3.203  0.7902  0.1192  0.3302
18405SOL    HW156892   1.359   7.317   3.139  1.4765  2.0476  1.0110
18405SOL    HW256893   1.253   7.408   3.199 -2.4954 -1.0999 -0.9201
18406SOL     OW56894   1.424   7.551   2.349 -0.7360 -0.0769  0.4479
18406SOL    HW156895   1.383   7.571   2.434 -0.8800 -0.2391  0.4179
18406SOL    HW256896   1.354   7.562   2.285 -0.6914 -0.2000  0.3774
18407SOL     OW56897   5.075   2.032   8.993  0.0101  0.4697 -0.0135
18407SOL    HW156898   4.987   2.003   8.969  0.9832 -0.9855 -1.9855
18407SOL    HW256899   5.078   2.125   8.968 -1.0431  0.5929  0.3118
18408SOL     OW56900   1.354   7.268   5.271  0.5665  0.1692  0.1820
18408SOL    HW156901   1.372   7.343   5.214 -0.3208  0.0582 -0.2554
18408SOL    HW256902   1.280   7.223   5.228  0.7897 -0.6828  0.6904
18409SOL     OW56903   2.207   9.104   2.027 -0.0549 -0.6312 -0.6373
18409SOL    HW156904   2.238   9.136   2.112 -2.8624 -1.5898  0.8005
18409SOL    HW256905   2.254   9.157   1.963  0.2909  1.8122  1.5526
18410SOL     OW56906   1.366   0.042   4.962 -0.2321 -0.5035 -0.2515
18410SOL    HW156907   1.423   0.118   4.971 -2.9580  1.4703  0.8187
18410SOL    HW256908   1.383  -0.010   5.040 -1.4894  1.2036  1.1935
18411SOL     OW56909   3.205   2.797   6.268  0.3048  0.2432 -0.5604
18411SOL    HW156910   3.259   2.765   6.340 -1.1006 -4.0966 -1.2913
18411SOL    HW256911   3.266   2.816   6.197  1.1938 -1.1717 -0.1770
18412SOL     OW56912   4.305   5.005   1.233 -0.0572 -0.4191 -0.7260
18412SOL    HW156913   4.265   4.998   1.146 -0.3384 -2.0610 -0.4803
18412SOL    HW256914   4.302   4.916   1.268  0.3980  0.1559  0.8186
18413SOL     OW56915   3.505   1.276   5.473 -0.1349  0.0433 -0.4402
18413SOL    HW156916   3.531   1.239   5.558  0.6226  1.4292 -0.0630
18413SOL    HW256917   3.531   1.368   5.477 -0.2401  0.1665 -2.1232
18414SOL     OW56918   4.196   7.144   6.293 -0.3278 -0.4855 -0.3242
18414SOL    HW156919   4.200   7.061   6.245  0.9106  0.0731 -1.2366
18414SOL    HW256920   4.252   7.130   6.369 -0.2792 -0.5614 -0.3721
18415SOL     OW56921   5.941   3.328   8.779 -0.6394 -0.0055 -0.3917
18415SOL    HW156922   5.853   3.364   8.779  0.1112  1.8994 -0.7810
18415SOL    HW256923   5.965   3.320   8.687  0.1896  1.0736 -0.2916
18416SOL     OW56924   2.570   4.986   5.344  0.1026  0.3498 -0.0203
18416SOL    HW156925   2.507   5.015   5.277 -1.0394  0.2972  0.9990
18416SOL    HW256926   2.614   5.067   5.372  0.4499  0.3959 -0.7028
18417SOL     OW56927   1.463   2.796   8.216  0.6678 -0.7470 -0.3263
18417SOL    HW156928   1.464   2.814   8.310  0.2557  0.4930 -0.5606
18417SOL    HW256929   1.402   2.860   8.180  0.9561 -1.1152 -1.4654
18418SOL     OW56930   9.165   1.143   0.205  0.0185 -0.4468 -0.4991
18418SOL    HW156931   9.192   1.170   0.117  1.6197  2.3194  0.7588
18418SOL    HW256932   9.225   1.072   0.228  1.8479  1.0920 -0.3714
18419SOL     OW56933   2.745   3.236   8.269  0.4321 -0.5287 -0.1777
18419SOL    HW156934   2.755   3.147   8.238  4.1502 -0.2601  0.0807
18419SOL    HW256935   2.733   3.289   8.190  0.6290 -0.9597 -0.4935
18420SOL     OW56936   8.804   4.761   8.820 -0.0957 -0.5219  0.2963
18420SOL    HW156937   8.784   4.792   8.732  1.1835 -0.5768 -0.0339
18420SOL    HW256938   8.884   4.709   8.809  0.5935  0.2364  1.6384
18421SOL     OW56939   7.455   7.517   1.933  0.2819  0.1689 -0.5531
18421SOL    HW156940   7.439   7.519   2.027  2.3154  2.0340 -0.2098
18421SOL    HW256941   7.498   7.432   1.918 -0.4496 -0.3274  0.1118
18422SOL     OW56942   4.767   1.653   5.387 -0.1260 -0.1418  0.0689
18422SOL    HW156943   4.846   1.613   5.424  0.2259  0.6608  0.2045
18422SOL    HW256944   4.695   1.611   5.433  0.2814  0.2487  1.0852
18423SOL     OW56945   8.565   5.526   4.310 -0.0979 -0.1032  0.4737
18423SOL    HW156946   8.648   5.496   4.273  0.3935 -1.1339  2.3495
18423SOL    HW256947   8.505   5.453   4.297 -0.0889 -0.2306  1.1094
18424SOL     OW56948   1.869   6.812   4.386 -0.1700 -0.0014  0.5957
18424SOL    HW156949   1.823   6.817   4.303  0.1868 -1.3307  0.3000
18424SOL    HW256950   1.962   6.814   4.362 -0.0663  0.3796  1.0203
18425SOL     OW56951   2.358   2.938   6.647  0.3456  0.2320 -0.3113
18425SOL    HW156952   2.284   2.954   6.588  1.7417 -0.3467 -2.2571
18425SOL    HW256953   2.419   2.885   6.595  0.8097 -1.8723  2.2463
18426SOL     OW56954   0.046   1.469   6.323  0.2959 -0.6127  0.1606
18426SOL    HW156955   0.090   1.550   6.351 -1.6587  0.4099  0.3197
18426SOL    HW256956  -0.031   1.463   6.378 -0.0898 -2.0933 -0.5207
18427SOL     OW56957   2.662   4.235   3.155  0.0963  0.1338 -0.2060
18427SOL    HW156958   2.748   4.196   3.169  0.3350  0.9710  0.7665
18427SOL    HW256959   2.606   4.194   3.221  0.1074  0.6705  0.1410
18428SOL     OW56960   2.929   2.113   4.222  0.0393  0.1218 -0.1493
18428SOL    HW156961   2.954   2.171   4.150 -0.3809 -0.1646 -0.5212
18428SOL    HW256962   2.842   2.145   4.249 -0.1256 -0.2382 -0.2551
18429SOL     OW56963   9.254   0.968   5.890  0.2122  0.6519 -0.2552
18429SOL    HW156964   9.290   0.919   5.964 -2.0625 -2.0887 -0.8769
18429SOL    HW256965   9.168   0.997   5.920 -0.0181  0.9916 -1.2291
18430SOL     OW56966   4.283   1.921   0.314  0.4772 -0.2504 -0.0495
18430SOL    HW156967   4.373   1.953   0.310  0.4283 -0.2278 -1.2043
18430SOL    HW256968   4.267   1.886   0.226 -0.9160  0.5172 -0.1052
18431SOL     OW56969   0.980   0.307   4.150 -0.0122  0.1391 -0.3286
18431SOL    HW156970   1.057   0.361   4.168 -0.0684  0.6869 -1.6821
18431SOL    HW256971   0.924   0.362   4.096 -0.8685 -0.6464 -0.2525
18432SOL     OW56972   0.668   1.602   4.454 -0.1555  0.7952  0.1451
18432SOL    HW156973   0.678   1.688   4.497 -1.1268  0.6330  0.7077
18432SOL    HW256974   0.728   1.545   4.503 -0.6408  0.8034  0.7583
18433SOL     OW56975   6.119   1.543   9.155 -0.7190  0.7806  0.4938
18433SOL    HW156976   6.152   1.591   9.231  0.0192 -0.4789  0.9734
18433SOL    HW256977   6.172   1.574   9.082  0.5298 -0.1303  1.0011
18434SOL     OW56978   2.657   2.720   3.895  0.1152 -0.8463 -0.2639
18434SOL    HW156979   2.751   2.717   3.882  0.1849 -0.0808  0.0493
18434SOL    HW256980   2.646   2.743   3.987 -0.3795 -2.4230  0.1020
18435SOL     OW56981   4.470   0.349   8.656  0.2654  0.1089  0.2992
18435SOL    HW156982   4.445   0.286   8.723  1.7527  0.9202  1.6458
18435SOL    HW256983   4.507   0.423   8.704 -0.9615  1.8159 -1.2746
18436SOL     OW56984   5.772   3.447   0.057 -0.1417 -0.4741 -0.5054
18436SOL    HW156985   5.727   3.365   0.034 -1.8943  0.2074  0.3985
18436SOL    HW256986   5.865   3.424   0.057 -0.4608 -1.9193 -2.4357
18437SOL     OW56987   1.909   2.906   8.144 -0.5086  0.1160  0.1441
18437SOL    HW156988   1.827   2.934   8.104  0.5287  2.4102 -0.4885
18437SOL    HW256989   1.903   2.938   8.234 -0.3459  0.1919  0.1274
18438SOL     OW56990   7.592   6.749   1.308 -0.6042 -0.2488  0.1636
18438SOL    HW156991   7.557   6.741   1.219 -1.7040  1.4495  0.4172
18438SOL    HW256992   7.588   6.660   1.343 -1.2756 -0.7266 -1.0725
18439SOL     OW56993   2.945   5.359   4.614  0.3483 -0.1516 -0.0629
18439SOL    HW156994   3.025   5.411   4.622  1.4783 -1.7780 -0.3210
18439SOL    HW256995   2.947   5.325   4.525 -2.1327  2.1061 -1.0099
18440SOL     OW56996   2.382   7.429   8.686  0.1292 -0.4227 -0.1974
18440SOL    HW156997   2.391   7.381   8.604 -0.8532 -0.4980 -0.2666
18440SOL    HW256998   2.287   7.431   8.703  0.1265  1.5754 -0.2708
18441SOL     OW56999   8.277   4.671   1.121 -0.4062  0.2318  0.1219
18441SOL    HW157000   8.271   4.630   1.207  0.3766  0.6405  0.3772
18441SOL    HW257001   8.295   4.763   1.140 -0.8202  0.4397 -0.4724
18442SOL     OW57002   7.543   5.770   2.566 -0.5911 -0.2614 -0.1429
18442SOL    HW157003   7.485   5.715   2.514 -1.2973  0.8673 -0.5591
18442SOL    HW257004   7.510   5.859   2.554  0.7361  0.3067  0.2483
18443SOL     OW57005   9.116   1.607   8.408 -0.2204 -0.2600 -0.2004
18443SOL    HW157006   9.081   1.618   8.496 -1.9038  1.1586 -1.0173
18443SOL    HW257007   9.186   1.671   8.401  0.4864 -0.9618  0.3848
18444SOL     OW57008   4.372   3.437   5.098 -0.0779 -0.2163 -0.5147
18444SOL    HW157009   4.424   3.498   5.046 -0.2560 -0.0567 -0.5074
18444SOL    HW257010   4.425   3.420   5.176  0.4578 -0.9321 -1.0292
18445SOL     OW57011   1.400   1.766   8.067  0.1865 -0.2290 -0.4938
18445SOL    HW157012   1.406   1.795   7.976  0.3836  1.9878  0.1790
18445SOL    HW257013   1.458   1.826   8.114  1.5567 -2.5221  0.8458
18446SOL     OW57014   8.771   1.283   6.907  0.2906  0.2164 -0.2634
18446SOL    HW157015   8.828   1.233   6.965  0.8776 -0.1862 -1.1724
18446SOL    HW257016   8.775   1.236   6.823 -0.9597  0.4842 -0.4820
18447SOL     OW57017   4.677   9.174   8.518 -0.4456 -0.3270 -0.1139
18447SOL    HW157018   4.591   9.133   8.511  0.4838 -2.1656 -0.9399
18447SOL    HW257019   4.705   9.187   8.427  0.5884 -0.6859  0.1427
18448SOL     OW57020   5.235   0.451   6.232  0.2262  0.4112  0.1702
18448SOL    HW157021   5.282   0.367   6.233 -1.1585 -0.3691  1.2871
18448SOL    HW257022   5.170   0.441   6.163  0.6427  0.9001 -0.2962
18449SOL     OW57023   3.763   1.170   5.157  0.2771 -0.4405 -0.4147
18449SOL    HW157024   3.848   1.127   5.150  0.8948  0.6869  0.0477
18449SOL    HW257025   3.722   1.157   5.071  1.3510 -0.0687 -0.9876
18450SOL     OW57026   5.124   5.860   2.475 -0.2873 -0.0618  0.6313
18450SOL    HW157027   5.146   5.939   2.525 -2.0301  0.8101  0.0734
18450SOL    HW257028   5.207   5.813   2.467  0.8926  1.9684  0.5318
18451SOL     OW57029   4.396   5.404   1.690 -0.2788  0.5159 -0.6147
18451SOL    HW157030   4.484   5.366   1.698 -0.9191 -1.2568 -1.7244
18451SOL    HW257031   4.408   5.496   1.712  1.8218  0.2527 -0.5281
18452SOL     OW57032   0.685   5.443   3.282 -0.3435 -0.4998 -0.0231
18452SOL    HW157033   0.637   5.371   3.324 -1.4957  0.7761  0.8919
18452SOL    HW257034   0.777   5.417   3.287 -0.5819 -1.0261  2.0741
18453SOL     OW57035   7.525   6.360   0.165 -0.3005  0.4497  0.5071
18453SOL    HW157036   7.607   6.358   0.214  0.9525  2.0999 -1.4495
18453SOL    HW257037   7.482   6.277   0.187  1.8164 -0.3813  1.6736
18454SOL     OW57038   4.279   4.352   0.689 -0.2279 -0.6233 -0.8947
18454SOL    HW157039   4.247   4.317   0.772 -0.7594 -1.0220 -1.2632
18454SOL    HW257040   4.332   4.281   0.652 -0.0872 -0.4909 -0.9449
18455SOL     OW57041   5.282   7.986   0.235 -0.2534  0.0847 -0.0733
18455SOL    HW157042   5.209   8.027   0.189 -0.1950 -0.7962 -0.9531
18455SOL    HW257043   5.328   7.936   0.168  0.6507 -0.0805  0.6569
18456SOL     OW57044   8.765   2.066   7.679 -0.5057 -0.8136 -0.0465
18456SOL    HW157045   8.686   2.105   7.715 -2.1575 -2.3970 -1.8575
18456SOL    HW257046   8.831   2.136   7.684 -1.9321  0.4543  1.6484
18457SOL     OW57047   2.802   8.176   4.957  0.1922 -0.4930  0.0124
18457SOL    HW157048   2.707   8.177   4.968 -0.0508  1.2442 -1.7836
18457SOL    HW257049   2.836   8.144   5.040 -1.9581 -0.9958  0.7318
18458SOL     OW57050   5.558   1.557   1.195  0.4100 -0.0818 -0.2179
18458SOL    HW157051   5.513   1.551   1.110  0.6353 -1.0488 -0.2757
18458SOL    HW257052   5.644   1.519   1.179  0.5225 -0.0845  0.3929
18459SOL     OW57053   2.546   5.488   6.891  0.2760 -0.0241 -0.1679
18459SOL    HW157054   2.589   5.422   6.837  0.1680 -0.1945 -0.0472
18459SOL    HW257055   2.519   5.556   6.829 -1.9558 -1.3119 -0.6936
18460SOL     OW57056   0.244   3.014   4.874 -0.1233  0.1921  0.1951
18460SOL    HW157057   0.318   3.028   4.814  0.2867  0.5143  0.7751
18460SOL    HW257058   0.280   3.030   4.961 -0.2096 -2.2006  0.7068
18461SOL     OW57059   5.583   8.628   9.148 -0.2378  0.5166 -0.6278
18461SOL    HW157060   5.629   8.562   9.097  0.7004  1.8427 -1.5365
18461SOL    HW257061   5.626   8.627   9.234  0.8733  1.0783 -1.1703
18462SOL     OW57062   8.483   0.130   4.931 -0.4790 -0.0960  0.1095
18462SOL    HW157063   8.550   0.075   4.888  1.8226  3.3416 -0.8977
18462SOL    HW257064   8.492   0.109   5.024  0.2181 -1.5311 -0.2554
18463SOL     OW57065   2.807   1.015   1.776  0.4927 -0.2581 -0.4835
18463SOL    HW157066   2.889   0.999   1.822 -0.6768  1.3501  2.2908
18463SOL    HW257067   2.744   0.956   1.819  0.5379 -2.8809 -3.8358
18464SOL     OW57068   0.514   9.082   4.686 -0.0586  0.3539  0.0173
18464SOL    HW157069   0.510   9.056   4.778  0.6248  0.8969  0.2112
18464SOL    HW257070   0.588   9.144   4.682  0.1995 -0.0029 -0.9769
18465SOL     OW57071   6.840   6.301   6.897 -0.0792 -0.3321  0.1676
18465SOL    HW157072   6.935   6.313   6.888  0.0916 -2.9113 -2.3384
18465SOL    HW257073   6.802   6.374   6.846  0.6235 -0.7356 -0.9568
18466SOL     OW57074   4.754   4.135   3.458 -0.3437  1.0764 -0.3117
18466SOL    HW157075   4.813   4.081   3.405 -0.6720  1.2701 -0.8780
18466SOL    HW257076   4.740   4.084   3.538 -1.2158  0.0015 -1.1378
18467SOL     OW57077   8.528   5.515   7.926 -0.3824  0.4443 -0.1992
18467SOL    HW157078   8.543   5.523   7.832  1.6615 -1.2778 -0.0577
18467SOL    HW257079   8.615   5.499   7.964 -1.6687 -3.4287  1.4316
18468SOL     OW57080   6.119   4.149   2.929 -0.8535  0.4772 -0.4455
18468SOL    HW157081   6.190   4.149   2.993 -1.2064  1.7782 -0.0311
18468SOL    HW257082   6.161   4.165   2.845 -0.6558  1.3150 -0.1919
18469SOL     OW57083   7.758   2.821   6.774  0.2163 -0.3570  0.0388
18469SOL    HW157084   7.761   2.915   6.757  0.5471 -0.3924 -0.1127
18469SOL    HW257085   7.739   2.782   6.688 -0.6010 -0.3872  0.2319
18470SOL     OW57086   0.546   7.912   0.026  0.2780 -0.0420 -0.0955
18470SOL    HW157087   0.472   7.857  -0.001  0.9691 -0.3294 -1.4328
18470SOL    HW257088   0.572   7.878   0.112 -0.7370 -0.3316  0.1044
18471SOL     OW57089   3.492   6.172   7.681 -0.0403  0.2976  0.0709
18471SOL    HW157090   3.508   6.265   7.697  0.0408  0.1246  1.0497
18471SOL    HW257091   3.510   6.130   7.765 -3.0316 -0.2212  0.5275
18472SOL     OW57092   8.556   1.613   8.331  0.4126 -0.3243  0.0138
18472SOL    HW157093   8.606   1.661   8.397 -0.6623 -0.2512  0.7945
18472SOL    HW257094   8.618   1.599   8.260  1.2114  0.7730  0.4699
18473SOL     OW57095   6.806   4.120   4.939 -0.0697 -0.3023  0.7629
18473SOL    HW157096   6.725   4.166   4.920  0.1423  0.1248  0.8638
18473SOL    HW257097   6.782   4.028   4.945 -0.4666 -0.2217  0.3634
18474SOL     OW57098   6.032   5.746   9.237 -0.1491  0.6619 -0.0201
18474SOL    HW157099   6.115   5.785   9.207  0.0188  0.5011  0.2293
18474SOL    HW257100   6.052   5.712   9.324 -0.2779 -0.0289 -0.2576
18475SOL     OW57101   7.563   9.262   5.048 -0.7380  0.7718 -0.0402
18475SOL    HW157102   7.553   9.275   4.953  2.8668 -0.8602 -0.7241
18475SOL    HW257103   7.608   9.341   5.078  0.3928  0.1765 -0.1493
18476SOL     OW57104   2.498   1.334   0.200 -0.1554  0.0851 -0.2276
18476SOL    HW157105   2.443   1.400   0.243  1.3247  0.5411  0.9955
18476SOL    HW257106   2.435   1.273   0.160 -1.5856  2.7006 -2.1964
18477SOL     OW57107   4.681   7.974   1.940 -0.0740  0.4622 -0.4414
18477SOL    HW157108   4.639   8.009   2.019 -1.6300 -0.1963 -0.9630
18477SOL    HW257109   4.670   8.044   1.875 -0.5974  0.1847 -0.6520
18478SOL     OW57110   2.408   5.348   7.763 -0.3057  0.7354 -0.8421
18478SOL    HW157111   2.390   5.367   7.855  1.2231 -0.7410 -0.2051
18478SOL    HW257112   2.344   5.281   7.740  0.0931  0.2155 -0.4751
18479SOL     OW57113   0.070   1.562   8.650 -0.0326  0.4097  0.0657
18479SOL    HW157114   0.012   1.515   8.711 -0.6514 -0.1620 -0.9369
18479SOL    HW257115   0.041   1.653   8.656 -2.2444 -0.1282 -1.7032
18480SOL     OW57116   8.162   6.874   5.371  0.1620 -0.3218  0.4053
18480SOL    HW157117   8.229   6.844   5.311  0.3908 -1.2012  1.0840
18480SOL    HW257118   8.194   6.848   5.458  0.2225  1.6106  1.0060
18481SOL     OW57119   7.382   3.461   6.906 -0.0071  0.0094  0.1598
18481SOL    HW157120   7.357   3.494   6.819 -0.1826  1.3020  0.6834
18481SOL    HW257121   7.307   3.408   6.934 -1.7330  2.8781  1.2070
18482SOL     OW57122   8.867   5.511   0.906 -0.4499  0.6649  0.2372
18482SOL    HW157123   8.904   5.537   0.990  0.0864  1.2741 -0.1745
18482SOL    HW257124   8.795   5.572   0.890 -1.4223 -0.3075  0.8798
18483SOL     OW57125   7.243   5.948   7.272  0.1707 -0.7106 -0.0553
18483SOL    HW157126   7.237   5.878   7.336  2.8608 -1.1479 -0.2438
18483SOL    HW257127   7.297   6.015   7.314 -0.6117  0.3380 -0.6950
18484SOL     OW57128   7.847   6.051   5.141 -0.6425  0.3393 -0.3107
18484SOL    HW157129   7.803   5.970   5.166 -1.3370  0.6068 -0.6513
18484SOL    HW257130   7.789   6.091   5.076  1.2218 -0.4317 -2.5062
18485SOL     OW57131   2.783   9.074   7.290 -0.0143 -0.6657  0.1977
18485SOL    HW157132   2.859   9.025   7.261  0.2611  0.0404 -0.2826
18485SOL    HW257133   2.709   9.029   7.250  0.2662 -0.4931 -0.5257
18486SOL     OW57134   9.261   2.306   7.932 -0.2499  0.0671 -0.1520
18486SOL    HW157135   9.310   2.379   7.894 -0.0377  0.6152  1.1600
18486SOL    HW257136   9.170   2.323   7.908 -0.1548  0.5668 -0.1533
18487SOL     OW57137   8.127   6.549   1.502  0.3772  0.1359  0.2405
18487SOL    HW157138   8.146   6.533   1.594 -2.1308 -0.4019  0.6933
18487SOL    HW257139   8.033   6.563   1.498  0.2202 -1.2403 -2.4203
18488SOL     OW57140   4.634   4.794   8.850 -0.1424  0.4010 -0.0981
18488SOL    HW157141   4.616   4.863   8.915  1.1341  0.0409  0.6520
18488SOL    HW257142   4.652   4.716   8.902  1.3417  0.2084 -0.8662
18489SOL     OW57143   1.295   5.165   1.154 -0.4768 -0.2050  0.3277
18489SOL    HW157144   1.370   5.148   1.098  0.9272 -0.8284  2.3251
18489SOL    HW257145   1.291   5.261   1.160 -0.7147 -0.1308 -0.8991
18490SOL     OW57146   8.026   6.968   9.215  0.1325  0.2662 -0.0042
18490SOL    HW157147   8.034   6.939   9.124  0.4296 -0.0069  0.1065
18490SOL    HW257148   8.109   6.942   9.255  0.9009  2.3303 -0.2065
18491SOL     OW57149   6.056   9.045   1.621  0.2085  0.3802  0.4287
18491SOL    HW157150   5.994   9.107   1.583 -0.2607  1.5582  2.9631
18491SOL    HW257151   6.138   9.093   1.625  0.5874 -0.2033 -0.3391
18492SOL     OW57152   5.963   5.998   9.113  0.1386  0.3129 -0.5883
18492SOL    HW157153   5.983   5.924   9.171 -0.4879 -0.0747 -0.8564
18492SOL    HW257154   5.948   6.072   9.172  1.3641  0.3717 -0.3446
18493SOL     OW57155   7.886   3.772   5.288 -0.5933  0.1231 -0.5401
18493SOL    HW157156   7.866   3.730   5.372 -0.0290  0.8683 -0.0314
18493SOL    HW257157   7.911   3.861   5.311  2.0272 -0.3949 -1.2931
18494SOL     OW57158   1.403   5.895   5.587 -0.2898  0.4439  0.1539
18494SOL    HW157159   1.471   5.865   5.646  1.4420  0.9730 -1.5059
18494SOL    HW257160   1.332   5.832   5.597  1.1456 -1.1303  0.6369
18495SOL     OW57161   2.349   3.810   2.772 -0.1260  0.3590  0.1012
18495SOL    HW157162   2.295   3.889   2.766 -0.7474 -0.2301 -2.3231
18495SOL    HW257163   2.290   3.739   2.747  1.8521 -0.2444 -3.1428
18496SOL     OW57164   0.154   6.919   4.412  0.2293 -0.0553 -0.0621
18496SOL    HW157165   0.088   6.869   4.365 -0.4911  1.0717 -0.2600
18496SOL    HW257166   0.109   6.955   4.488  1.2378 -1.3471  1.1744
18497SOL     OW57167   2.729   4.198   1.965 -0.2737  0.4362  0.4508
18497SOL    HW157168   2.650   4.226   1.917 -0.0804  0.6952  0.2792
18497SOL    HW257169   2.713   4.106   1.986 -0.3831  0.3359 -0.0653
18498SOL     OW57170   0.325   0.921   6.682 -0.3036 -0.0874 -0.1333
18498SOL    HW157171   0.257   0.853   6.672 -1.0738  0.7057 -0.3149
18498SOL    HW257172   0.303   0.964   6.765  1.0895 -1.0601  0.7685
18499SOL     OW57173   8.396   4.910   1.390  0.2771  1.1168  0.0579
18499SOL    HW157174   8.309   4.909   1.430 -0.2826  1.5152 -1.1140
18499SOL    HW257175   8.455   4.934   1.461 -0.3883 -0.6163  1.2142
18500SOL     OW57176   8.324   3.774   4.998  0.1979  0.1573 -0.5699
18500SOL    HW157177   8.406   3.742   4.961  0.5855  0.7931 -0.2680
18500SOL    HW257178   8.297   3.705   5.060  1.4179  0.7571  0.6429
18501SOL     OW57179   8.413   0.480   3.152  0.7052 -0.5904 -0.2473
18501SOL    HW157180   8.363   0.557   3.178  0.2570 -1.1448  0.5399
18501SOL    HW257181   8.471   0.511   3.082 -0.0968  0.2524 -0.5363
18502SOL     OW57182   2.470   5.274   8.593 -0.5660  0.3602 -0.1400
18502SOL    HW157183   2.477   5.345   8.657 -0.5087 -1.3164  1.7885
18502SOL    HW257184   2.515   5.200   8.635 -2.6267 -1.4770 -1.0640
18503SOL     OW57185   3.166   0.604   8.387 -0.0144 -0.6408 -0.0529
18503SOL    HW157186   3.077   0.636   8.374 -0.6163 -2.0638  0.4414
18503SOL    HW257187   3.215   0.680   8.418 -1.4044 -0.1913  1.0868
18504SOL     OW57188   7.074   6.582   7.408 -0.3655 -0.4860  0.9623
18504SOL    HW157189   7.025   6.574   7.327  1.8572  1.5952 -0.6782
18504SOL    HW257190   7.152   6.527   7.394  0.2434  0.2332  1.4824
18505SOL     OW57191   7.611   0.402   0.650  0.1293 -0.2950  0.2182
18505SOL    HW157192   7.604   0.497   0.655 -2.9463 -0.5049  0.8395
18505SOL    HW257193   7.636   0.375   0.738  2.3094  0.0089 -0.2908
18506SOL     OW57194   6.405   0.563   7.399 -0.5080 -0.2213  0.3428
18506SOL    HW157195   6.399   0.633   7.464  2.0286  0.4076 -0.0474
18506SOL    HW257196   6.409   0.482   7.451 -1.9026  0.0247  0.8425
18507SOL     OW57197   8.437   8.722   7.843  0.1960 -0.6000  0.2703
18507SOL    HW157198   8.362   8.719   7.902  1.1304  0.3608  1.5817
18507SOL    HW257199   8.486   8.800   7.872 -0.4279  1.1959 -3.1948
18508SOL     OW57200   8.733   0.010   0.974 -0.3262  0.3570  0.3502
18508SOL    HW157201   8.640   0.006   0.993 -0.3002 -0.4544  0.3403
18508SOL    HW257202   8.772  -0.055   1.032 -0.2531 -2.1471 -2.3909
18509SOL     OW57203   3.548   5.382   6.593 -0.3212  0.4345  0.5744
18509SOL    HW157204   3.630   5.428   6.610 -0.2286 -0.0300  1.4013
18509SOL    HW257205   3.486   5.422   6.654 -0.2783 -0.4274  1.1845
18510SOL     OW57206   0.215   7.985   1.870  0.1497  0.1490  0.6204
18510SOL    HW157207   0.167   7.917   1.823  0.9578 -0.2267  0.3240
18510SOL    HW257208   0.239   7.944   1.953  0.1807  0.2477  0.6605
18511SOL     OW57209   3.666   2.027   0.223 -0.8074  0.1726 -0.2650
18511SOL    HW157210   3.690   2.108   0.178 -3.1682  1.0935  0.0237
18511SOL    HW257211   3.685   1.957   0.161  2.3050  0.8285 -0.0988
18512SOL     OW57212   4.681   7.491   2.989 -0.3077  0.3845 -0.3766
18512SOL    HW157213   4.658   7.428   3.058 -0.3518  1.2622  0.4312
18512SOL    HW257214   4.772   7.512   3.006 -0.5757  1.2924 -0.0128
18513SOL     OW57215   3.112   1.130   6.188 -0.8453 -0.3976  1.0350
18513SOL    HW157216   3.170   1.078   6.244 -2.0722 -0.4141  2.3145
18513SOL    HW257217   3.146   1.219   6.195  0.1647 -0.7169  0.2767
18514SOL     OW57218   2.847   4.050   2.188  0.5828  0.4816  0.0981
18514SOL    HW157219   2.898   4.032   2.109 -0.6508 -0.6256 -0.4592
18514SOL    HW257220   2.830   3.964   2.226  0.5566  0.9609  1.1863
18515SOL     OW57221   0.505   2.203   9.170 -0.3358 -0.2921 -0.5033
18515SOL    HW157222   0.514   2.182   9.077 -0.7436  1.4662 -0.9635
18515SOL    HW257223   0.428   2.260   9.175 -0.1200 -0.0928  0.8561
18516SOL     OW57224   2.888   8.321   0.085 -0.0384  0.8326 -0.6169
18516SOL    HW157225   2.930   8.384   0.027  0.8300  0.1447 -0.7385
18516SOL    HW257226   2.947   8.313   0.159 -0.4586  0.6394 -0.2983
18517SOL     OW57227   2.198   2.302   1.924 -0.1910  0.3360  0.1384
18517SOL    HW157228   2.123   2.361   1.918  0.0665  0.7818  1.1197
18517SOL    HW257229   2.266   2.343   1.872  0.1076  1.0973  1.1217
18518SOL     OW57230   1.477   3.798   8.807 -0.3678 -0.2862  0.1281
18518SOL    HW157231   1.422   3.826   8.881 -2.0455 -2.9605 -0.0323
18518SOL    HW257232   1.538   3.735   8.846  0.0841 -0.1647 -0.3904
18519SOL     OW57233   2.237   1.988   0.738 -0.4603 -0.1894  0.1840
18519SOL    HW157234   2.293   2.008   0.662  0.1211  0.6030  0.8180
18519SOL    HW257235   2.186   1.912   0.710  0.9705 -0.9637 -0.3889
18520SOL     OW57236   3.853   6.630   6.700 -0.0640 -0.4631  0.5743
18520SOL    HW157237   3.945   6.645   6.679 -0.2625 -1.2735 -0.9965
18520SOL    HW257238   3.850   6.625   6.795  1.4275  0.1096  0.6641
18521SOL     OW57239   4.134   1.915   4.033  0.3197  0.3244  0.5353
18521SOL    HW157240   4.139   1.862   4.113  0.7978  0.1258  0.3747
18521SOL    HW257241   4.205   1.882   3.978  0.5989  1.1120  0.4186
18522SOL     OW57242   2.066   5.242   7.994 -0.1616  0.1736  0.1187
18522SOL    HW157243   2.011   5.320   8.002 -0.5338  0.1134 -1.6608
18522SOL    HW257244   2.150   5.274   7.963 -0.4717 -0.1670 -1.1121
18523SOL     OW57245   8.875   3.156   2.721  0.0387  0.0622 -0.5573
18523SOL    HW157246   8.964   3.122   2.725 -0.7984 -2.2418 -0.5828
18523SOL    HW257247   8.874   3.212   2.644  0.7082 -2.3074 -2.3661
18524SOL     OW57248   5.684   2.049   2.274  0.9907  0.0650 -0.3996
18524SOL    HW157249   5.703   1.957   2.255  0.7443  0.1288 -0.9508
18524SOL    HW257250   5.654   2.049   2.365 -0.0836 -0.5480 -0.7479
18525SOL     OW57251   0.752   4.823   0.934  0.8274 -0.2602 -0.0768
18525SOL    HW157252   0.690   4.775   0.989  2.0972 -1.8975 -0.0037
18525SOL    HW257253   0.763   4.767   0.857 -0.0862  1.4745 -1.4989
18526SOL     OW57254   7.992   9.097   2.241 -0.5664 -0.4400  0.2715
18526SOL    HW157255   8.026   9.125   2.156  0.5975 -1.9390  0.2195
18526SOL    HW257256   7.950   9.012   2.223  1.6312 -1.8411  1.5659
18527SOL     OW57257   1.966   2.684   4.556 -0.0168 -0.0192 -0.3139
18527SOL    HW157258   1.964   2.637   4.472  0.7804 -0.4884 -0.0777
18527SOL    HW257259   1.955   2.615   4.622 -1.2625  0.4172 -0.0447
18528SOL     OW57260   1.989   1.697   2.276  0.1412  0.2823  0.3064
18528SOL    HW157261   2.069   1.678   2.226 -1.5241  0.2961 -2.4456
18528SOL    HW257262   1.928   1.628   2.251 -0.8248  0.4225  2.1941
18529SOL     OW57263   6.631   5.197   8.257  0.0738  0.2698 -0.1256
18529SOL    HW157264   6.700   5.155   8.206  0.1970  1.3010 -0.8210
18529SOL    HW257265   6.677   5.235   8.332  0.3863  1.5542 -0.9453
18530SOL     OW57266   2.982   3.357   7.028  0.1665  0.2228  0.2789
18530SOL    HW157267   2.988   3.408   7.109  1.2247 -1.0855  1.0423
18530SOL    HW257268   2.894   3.319   7.030 -0.4183  1.5415 -0.0128
18531SOL     OW57269   7.836   3.120   2.684  0.0656 -0.0031 -0.0826
18531SOL    HW157270   7.791   3.074   2.613  0.9470  2.1258 -2.0851
18531SOL    HW257271   7.780   3.195   2.703 -0.3869 -0.7855  1.8257
18532SOL     OW57272   0.648   7.655   3.899 -0.8009 -0.6237 -0.6472
18532SOL    HW157273   0.739   7.649   3.929 -0.6250 -0.4894 -1.1631
18532SOL    HW257274   0.604   7.708   3.966 -0.2626  0.2141 -0.9587
18533SOL     OW57275   3.782   0.120   6.929 -0.3834  0.1724 -0.4135
18533SOL    HW157276   3.855   0.165   6.888  0.0717  1.2527  1.5566
18533SOL    HW257277   3.801   0.027   6.916  0.0981  0.4688 -2.0031
18534SOL     OW57278   7.590   0.645   7.911  0.0610  0.4404  0.4214
18534SOL    HW157279   7.648   0.581   7.952 -0.6553  0.5413  1.6212
18534SOL    HW257280   7.579   0.713   7.978 -0.5760  0.9395 -0.1939
18535SOL     OW57281   7.223   8.282   0.015 -0.4089 -0.4885  0.6903
18535SOL    HW157282   7.175   8.356  -0.020 -0.2619 -1.0298 -0.6697
18535SOL    HW257283   7.179   8.262   0.098 -1.1064  0.4370  0.5507
18536SOL     OW57284   6.938   5.977   0.790  0.1637  0.1833 -0.2946
18536SOL    HW157285   6.848   5.951   0.808  0.6548 -1.1099  0.3536
18536SOL    HW257286   6.971   6.010   0.874  0.6061 -0.2676 -0.2949
18537SOL     OW57287   4.263   0.076   7.169  0.3630  1.1025  0.0678
18537SOL    HW157288   4.201   0.030   7.113 -0.2982 -0.0110  1.6783
18537SOL    HW257289   4.306   0.007   7.220  2.9807  1.8376 -1.0179
18538SOL     OW57290   4.989   1.336   5.504  0.3047  0.2754  0.1265
18538SOL    HW157291   4.982   1.415   5.451  0.7600  1.0393  1.1803
18538SOL    HW257292   5.064   1.352   5.561  0.8571 -1.2267 -0.1505
18539SOL     OW57293   8.030   1.692   7.565  0.4519 -0.2657  0.5050
18539SOL    HW157294   8.078   1.660   7.642 -0.1472 -0.5959  0.7410
18539SOL    HW257295   7.978   1.765   7.598 -1.7933 -2.0446  0.9772
18540SOL     OW57296   3.157   6.026   2.422 -0.1500  0.3724 -0.4600
18540SOL    HW157297   3.206   5.948   2.448 -2.0976 -0.8560 -0.3794
18540SOL    HW257298   3.181   6.092   2.487  0.1169 -0.6870  0.5354
18541SOL     OW57299   4.187   6.556   0.824 -0.9709 -0.5433 -0.2314
18541SOL    HW157300   4.253   6.518   0.766 -1.5224 -2.0560  0.1123
18541SOL    HW257301   4.132   6.482   0.849 -2.9584  0.7382 -0.7174
18542SOL     OW57302   2.592   2.229   8.900 -0.5500 -0.4256 -0.4093
18542SOL    HW157303   2.534   2.223   8.824  0.6577 -0.3106 -1.3511
18542SOL    HW257304   2.596   2.322   8.920 -0.0513 -0.3562 -0.8379
18543SOL     OW57305   0.178   4.502   5.334 -0.5543  0.4924 -0.1817
18543SOL    HW157306   0.157   4.415   5.369 -0.6650  0.5217 -0.1714
18543SOL    HW257307   0.263   4.523   5.371 -0.3150  0.1880 -0.5619
18544SOL     OW57308   6.004   7.481   4.958 -0.6543 -0.1373  0.3094
18544SOL    HW157309   5.939   7.537   4.916 -0.1726  0.5505  0.4730
18544SOL    HW257310   5.995   7.396   4.914 -1.6355 -0.0386  0.3086
18545SOL     OW57311   5.800   1.439   1.108  0.2922 -0.2702  0.0117
18545SOL    HW157312   5.855   1.508   1.072 -0.4085  0.9267  1.1842
18545SOL    HW257313   5.846   1.409   1.186 -0.6019  0.6322  0.9124
18546SOL     OW57314   0.078   7.506   4.426 -0.4432  0.0033  0.2970
18546SOL    HW157315   0.102   7.466   4.510  1.7525  0.4556 -0.0763
18546SOL    HW257316   0.028   7.584   4.451 -0.1810 -0.1042  1.1899
18547SOL     OW57317   1.169   0.492   3.825  0.1990 -0.3869 -0.9294
18547SOL    HW157318   1.228   0.531   3.890 -1.3962  0.9218 -0.2561
18547SOL    HW257319   1.172   0.398   3.844  0.7229 -0.1474  0.2148
18548SOL     OW57320   6.155   1.263   1.994  0.4278  0.9151 -0.3203
18548SOL    HW157321   6.173   1.351   2.026  0.6277  1.0811 -0.8933
18548SOL    HW257322   6.124   1.275   1.905 -1.4037  0.5369  0.2607
18549SOL     OW57323   5.051   7.949   2.404 -0.4207 -0.3963  0.5032
18549SOL    HW157324   5.091   7.911   2.326  1.5642 -0.2028  1.3881
18549SOL    HW257325   5.008   8.028   2.373  1.4647  0.3905 -0.2149
18550SOL     OW57326   4.393   6.590   3.232 -0.4486  0.0342 -0.2939
18550SOL    HW157327   4.441   6.669   3.208 -0.2143 -0.0225 -0.0173
18550SOL    HW257328   4.458   6.535   3.277 -1.0009  0.3468  0.9135
18551SOL     OW57329   5.244   0.708   6.964 -0.8033  0.5925  0.3140
18551SOL    HW157330   5.189   0.742   6.893  0.2171 -1.7020 -1.6739
18551SOL    HW257331   5.208   0.621   6.982  2.2941 -1.1049 -1.2689
18552SOL     OW57332   0.811   4.688   5.673  0.1091  0.4475  0.0309
18552SOL    HW157333   0.846   4.775   5.689  1.0979 -0.0230  0.5119
18552SOL    HW257334   0.888   4.631   5.673 -0.7796 -0.8499  2.8094
18553SOL     OW57335   8.101   2.118   2.496  0.5127  0.2477  0.1021
18553SOL    HW157336   8.052   2.055   2.549  0.3394 -0.6494 -1.0823
18553SOL    HW257337   8.103   2.078   2.408  4.0598 -0.1539  0.2918
18554SOL     OW57338   3.746   3.832   2.797 -0.3567 -0.0940  0.0323
18554SOL    HW157339   3.756   3.920   2.761  1.2762 -0.3185 -0.0962
18554SOL    HW257340   3.704   3.782   2.726  0.0284  0.2309 -0.4284
18555SOL     OW57341   2.672   7.306   0.504 -0.4072 -0.6743 -0.1344
18555SOL    HW157342   2.602   7.255   0.463 -0.4991 -0.4627 -0.2419
18555SOL    HW257343   2.752   7.255   0.488 -0.7139 -1.5907  1.1374
18556SOL     OW57344   2.355   4.962   7.864 -0.0465 -0.4109 -0.5095
18556SOL    HW157345   2.323   4.872   7.857  0.3868 -0.5720 -0.4052
18556SOL    HW257346   2.408   4.962   7.944 -1.5243  0.3723  0.4999
18557SOL     OW57347   3.357   5.371   1.302 -0.0084  0.1744  0.2317
18557SOL    HW157348   3.323   5.307   1.364 -0.9525 -0.1155 -0.5678
18557SOL    HW257349   3.426   5.325   1.255 -0.9024 -0.3815 -0.5657
18558SOL     OW57350   8.854   1.944   7.420  0.6522  0.0485  0.0991
18558SOL    HW157351   8.818   1.967   7.505 -0.2887  2.4570 -0.9061
18558SOL    HW257352   8.937   1.902   7.440 -0.4832 -1.2621  2.2660
18559SOL     OW57353   8.952   4.215   0.575 -0.2139  0.0435 -0.2790
18559SOL    HW157354   8.967   4.258   0.659 -2.6398 -1.2611  0.8611
18559SOL    HW257355   8.917   4.284   0.518  0.0202  0.5715  0.2166
18560SOL     OW57356   5.208   0.902   1.732  0.2405 -0.5428 -0.2679
18560SOL    HW157357   5.133   0.961   1.722 -0.7215 -1.7490 -0.2906
18560SOL    HW257358   5.246   0.898   1.644 -0.8419 -1.4498 -0.7065
18561SOL     OW57359   1.648   3.751   7.916 -0.1836 -0.6104 -0.5066
18561SOL    HW157360   1.599   3.707   7.985  1.8030 -0.7145  0.9000
18561SOL    HW257361   1.616   3.842   7.918  0.0968 -0.5316  0.8031
18562SOL     OW57362   6.621   2.652   0.743  0.2295  0.3247  0.0737
18562SOL    HW157363   6.698   2.644   0.799  1.1605  1.0157 -1.1006
18562SOL    HW257364   6.566   2.577   0.768  0.4515  0.8115  2.1662
18563SOL     OW57365   3.799   1.178   2.038  0.3193  0.6496  0.0491
18563SOL    HW157366   3.883   1.178   1.992  0.3843 -0.0952  0.1652
18563SOL    HW257367   3.823   1.180   2.131  0.1974  1.2929  0.0666
18564SOL     OW57368   6.784   9.127   1.068 -0.2289  0.6876  0.4250
18564SOL    HW157369   6.868   9.156   1.104 -0.1815  0.2710  0.6587
18564SOL    HW257370   6.780   9.034   1.090  0.2546  0.1816 -1.5672
18565SOL     OW57371   4.204   6.023   1.000  0.3972 -0.0797 -0.5437
18565SOL    HW157372   4.217   6.111   1.036  1.5072  0.2894 -1.8172
18565SOL    HW257373   4.283   6.007   0.948 -0.5784 -1.1447 -1.6997
18566SOL     OW57374   8.308   7.035   1.224  0.4923 -0.7454 -0.1824
18566SOL    HW157375   8.319   7.111   1.167  0.3731  0.1268  0.9307
18566SOL    HW257376   8.398   7.012   1.250  0.6398 -1.8489 -1.5971
18567SOL     OW57377   3.066   3.648   1.407  0.1699  0.3447  0.1900
18567SOL    HW157378   2.997   3.707   1.438 -0.6731 -0.2430 -0.5514
18567SOL    HW257379   3.023   3.591   1.344  1.3946  0.1306 -0.4763
18568SOL     OW57380   1.385   1.151   9.255  0.3095 -0.0723 -0.3596
18568SOL    HW157381   1.364   1.208   9.329  0.6458 -0.2334 -0.1372
18568SOL    HW257382   1.427   1.075   9.295 -0.5802 -0.7006 -0.5963
18569SOL     OW57383   5.279   6.127   7.320  0.5896 -0.1549 -0.4173
18569SOL    HW157384   5.275   6.200   7.258 -1.0093 -0.2675 -0.4585
18569SOL    HW257385   5.211   6.146   7.385  0.7975 -1.1310  0.0992
18570SOL     OW57386   6.225   8.205   7.865 -0.6273 -0.0339 -0.2248
18570SOL    HW157387   6.193   8.285   7.907 -1.7963 -0.7062  0.1878
18570SOL    HW257388   6.234   8.142   7.937 -1.6591 -0.8834 -0.8268
18571SOL     OW57389   2.392   2.010   1.717 -0.2082  0.0432 -0.5222
18571SOL    HW157390   2.373   1.954   1.792  0.1399  0.9606  0.2693
18571SOL    HW257391   2.473   2.055   1.741  0.4354 -0.3760 -1.8735
18572SOL     OW57392   5.386   4.825   8.014  0.0103 -0.3674 -0.4162
18572SOL    HW157393   5.428   4.813   7.929  1.0267 -1.0734  0.1632
18572SOL    HW257394   5.363   4.918   8.017  2.4281  0.2655 -0.3761
18573SOL     OW57395   8.585   7.553   6.623 -0.4306 -0.3724 -0.0274
18573SOL    HW157396   8.582   7.645   6.648 -0.2287 -0.2399 -0.4837
18573SOL    HW257397   8.503   7.516   6.656 -0.0651 -0.2565  1.0130
18574SOL     OW57398   1.060   2.381   8.977 -0.1574  0.1538  0.1246
18574SOL    HW157399   1.015   2.465   8.992 -0.5885 -0.1757  0.7070
18574SOL    HW257400   1.085   2.352   9.065 -1.0140 -0.8785  0.0389
18575SOL     OW57401   4.349   1.510   4.434 -0.0009 -0.0847 -0.0159
18575SOL    HW157402   4.320   1.422   4.411 -0.0265  0.4603 -2.1794
18575SOL    HW257403   4.438   1.516   4.401  0.5331  0.2345  1.4184
18576SOL     OW57404   4.223   8.863   2.573 -0.2021  0.6567  0.6107
18576SOL    HW157405   4.215   8.772   2.602  0.1125  1.0107  1.8317
18576SOL    HW257406   4.280   8.904   2.638  1.7219  1.1286 -1.3115
18577SOL     OW57407   7.951   6.278   6.445  0.1164  0.1291  0.4459
18577SOL    HW157408   7.866   6.234   6.433  0.8077 -0.9977 -0.5199
18577SOL    HW257409   7.929   6.365   6.478 -1.6159  0.9628 -2.6330
18578SOL     OW57410   4.568   7.406   9.034 -0.0530  0.3682  0.1806
18578SOL    HW157411   4.637   7.353   8.992 -1.3677 -1.1428 -0.1267
18578SOL    HW257412   4.580   7.494   8.998  0.9461 -0.1544 -0.8089
18579SOL     OW57413   0.299   5.948   7.591  0.0007 -0.0159 -0.8311
18579SOL    HW157414   0.217   5.931   7.545 -1.7460  0.4516  1.9679
18579SOL    HW257415   0.279   5.931   7.683  2.8003  1.0118  0.0328
18580SOL     OW57416   0.349   4.979   2.400  0.8195  0.1064  0.6252
18580SOL    HW157417   0.343   5.012   2.310 -1.4448  0.9698  1.0587
18580SOL    HW257418   0.422   4.918   2.398 -0.1526 -1.0627 -2.2051
18581SOL     OW57419   0.583   3.221   0.368  0.2866 -0.2550 -0.0626
18581SOL    HW157420   0.640   3.200   0.443  0.0512 -0.9584 -0.0795
18581SOL    HW257421   0.500   3.248   0.408  1.1322  2.3659  0.0132
18582SOL     OW57422   6.580   1.045   0.446  0.4475  0.4934 -0.1607
18582SOL    HW157423   6.581   0.951   0.467 -0.5493  0.3803 -0.5920
18582SOL    HW257424   6.673   1.069   0.440  0.7140 -0.4031  0.2314
18583SOL     OW57425   3.510   1.212   3.741  0.2198  0.1491  0.2171
18583SOL    HW157426   3.573   1.174   3.802 -0.3225  1.0653  1.3686
18583SOL    HW257427   3.431   1.159   3.752 -0.1067  0.7663  0.8317
18584SOL     OW57428   7.661   8.030   3.759 -0.5737  0.5009 -0.8859
18584SOL    HW157429   7.733   8.061   3.704  1.2405 -0.3736  0.9342
18584SOL    HW257430   7.694   7.950   3.800 -1.9926  0.9397  1.2213
18585SOL     OW57431   8.061   6.375   0.319 -0.5035  0.0096  0.6509
18585SOL    HW157432   8.004   6.358   0.244 -0.3635  0.7050  0.3813
18585SOL    HW257433   8.010   6.349   0.395 -0.9266  0.0009  0.3623
18586SOL     OW57434   1.039   0.203   6.296 -0.4873  0.1018 -0.2151
18586SOL    HW157435   1.035   0.238   6.208  3.6295  2.3500  0.3578
18586SOL    HW257436   1.000   0.271   6.351 -0.6901 -0.1513 -0.0447
18587SOL     OW57437   4.268   3.591   8.991  0.4606  0.2246 -0.1787
18587SOL    HW157438   4.184   3.546   8.988  0.4378  0.2508  0.0383
18587SOL    HW257439   4.320   3.541   9.053 -0.1720  1.5207  1.4392
18588SOL     OW57440   5.191   3.924   2.221  0.5399 -0.0128 -0.1692
18588SOL    HW157441   5.264   3.985   2.209 -0.6392  1.5042  0.2197
18588SOL    HW257442   5.213   3.877   2.302  2.4138 -1.5179 -1.5193
18589SOL     OW57443   4.631   7.632   0.998 -0.9916  0.0126 -0.7378
18589SOL    HW157444   4.704   7.690   0.979 -1.9516  1.4937 -0.0291
18589SOL    HW257445   4.646   7.555   0.943  1.8512 -0.3470  0.4365
18590SOL     OW57446   2.430   0.565   7.510 -0.0513  0.2082 -0.0086
18590SOL    HW157447   2.503   0.504   7.521 -0.0980  0.0750 -0.4574
18590SOL    HW257448   2.433   0.590   7.418 -2.2637 -1.9339 -0.7095
18591SOL     OW57449   6.500   4.285   4.571  1.3902 -0.3392 -0.9291
18591SOL    HW157450   6.555   4.261   4.646  0.3010 -0.3885 -0.1281
18591SOL    HW257451   6.562   4.306   4.501  2.4574  0.4739  0.2264
18592SOL     OW57452   6.765   8.779   5.101 -0.2454 -0.3118  0.4509
18592SOL    HW157453   6.791   8.866   5.072 -1.6540  0.2080  0.6856
18592SOL    HW257454   6.840   8.746   5.152 -0.1583  1.2471  1.3535
18593SOL     OW57455   6.946   7.033   1.312  0.2647 -0.3268  0.2857
18593SOL    HW157456   7.027   7.020   1.263 -0.0863 -0.1323 -0.3400
18593SOL    HW257457   6.883   6.976   1.269 -0.4055  0.9030 -0.3515
18594SOL     OW57458   3.887   6.387   0.437  0.6810  0.8161  0.7239
18594SOL    HW157459   3.979   6.401   0.416  1.0662 -1.3706  0.8191
18594SOL    HW257460   3.877   6.292   0.438 -1.6213  1.0350  0.5706
18595SOL     OW57461   7.918   1.693   4.356  0.6527  0.0489  0.3062
18595SOL    HW157462   7.886   1.728   4.439 -0.0312 -1.2462  0.6058
18595SOL    HW257463   7.902   1.764   4.293  1.0589  0.9865  1.2377
18596SOL     OW57464   7.299   5.289   6.254  0.4458  0.4679 -0.8104
18596SOL    HW157465   7.215   5.330   6.236 -0.4643 -0.3281  1.3772
18596SOL    HW257466   7.276   5.205   6.295  2.2942 -0.2129 -1.1261
18597SOL     OW57467   2.574   1.431   5.425  0.3115  0.2573 -0.0514
18597SOL    HW157468   2.607   1.504   5.478  1.7432 -0.0099 -0.5606
18597SOL    HW257469   2.642   1.364   5.432  0.2303 -0.0109 -1.7333
18598SOL     OW57470   8.215   5.468   5.746  0.0509  0.2588  0.3913
18598SOL    HW157471   8.164   5.387   5.741  1.2566 -0.5334  0.8060
18598SOL    HW257472   8.185   5.510   5.827  2.1534 -1.6804  2.2714
18599SOL     OW57473   2.500   8.786   6.318  0.6033 -0.1378  0.0417
18599SOL    HW157474   2.509   8.881   6.325  1.4188 -0.1661 -0.5615
18599SOL    HW257475   2.579   8.758   6.271 -0.6309 -0.8894 -1.6108
18600SOL     OW57476   5.737   1.052   2.663  0.1100  0.0971  0.1860
18600SOL    HW157477   5.786   1.035   2.743 -0.7390 -1.0162  0.4815
18600SOL    HW257478   5.668   1.113   2.691  0.7196  0.8974 -0.0261
18601SOL     OW57479   7.310   6.678   8.770 -0.1596 -0.8126 -0.4814
18601SOL    HW157480   7.404   6.661   8.777  0.1083  0.7551  0.0696
18601SOL    HW257481   7.291   6.738   8.842 -1.4727 -0.6430 -0.9458
18602SOL     OW57482   2.176   3.442   5.913 -0.1264  0.4731 -0.4249
18602SOL    HW157483   2.257   3.437   5.862  0.3610  0.7106  0.3155
18602SOL    HW257484   2.163   3.353   5.946 -0.2993  0.3821 -0.7279
18603SOL     OW57485   1.024   0.470   0.889  0.8732  0.0663  0.1598
18603SOL    HW157486   1.105   0.504   0.927 -0.5297  1.7807  1.7016
18603SOL    HW257487   0.986   0.415   0.958  0.4722 -0.3502 -0.3800
18604SOL     OW57488   6.504   6.153   6.515  0.3894  0.5012 -0.0416
18604SOL    HW157489   6.582   6.125   6.562  0.9259 -0.1674 -1.3025
18604SOL    HW257490   6.438   6.088   6.538  1.5017 -1.6362 -2.5846
18605SOL     OW57491   0.138   8.512   8.943  0.1583  0.3770 -0.6365
18605SOL    HW157492   0.183   8.486   9.023  1.5832  2.2297 -0.7780
18605SOL    HW257493   0.190   8.474   8.872 -0.3288 -0.1325 -0.7247
18606SOL     OW57494   0.794   0.517   4.070 -0.4193  0.1588  0.3882
18606SOL    HW157495   0.730   0.544   4.004  0.3389 -0.6389 -0.6841
18606SOL    HW257496   0.746   0.523   4.153 -1.9519 -0.5705 -0.4058
18607SOL     OW57497   7.900   4.789   6.775 -0.5054  0.7786  0.3295
18607SOL    HW157498   7.834   4.848   6.739 -1.3041  1.0106  2.1045
18607SOL    HW257499   7.868   4.702   6.753  0.4317  0.9748 -1.8881
18608SOL     OW57500   4.796   5.439   0.845  0.3413 -0.3692  0.4373
18608SOL    HW157501   4.762   5.354   0.817 -1.6324 -0.2213  2.2718
18608SOL    HW257502   4.824   5.426   0.935 -2.3180  1.4687  1.6263
18609SOL     OW57503   3.698   6.753   0.967 -0.1119 -0.0156 -0.4376
18609SOL    HW157504   3.780   6.718   0.931 -0.2899 -1.4676  0.5231
18609SOL    HW257505   3.634   6.685   0.949 -0.4349 -0.3015  1.6707
18610SOL     OW57506   7.832   5.275   7.246  0.2001 -0.1817  0.0706
18610SOL    HW157507   7.788   5.241   7.169 -0.7292  0.0833  0.4771
18610SOL    HW257508   7.877   5.354   7.216  3.9692 -2.7275 -1.3325
18611SOL     OW57509   2.585   1.809   3.409  0.5342 -0.1718  0.1321
18611SOL    HW157510   2.582   1.810   3.505 -0.8056  0.1638  0.1020
18611SOL    HW257511   2.609   1.719   3.387  0.2556 -0.4056  0.7740
18612SOL     OW57512   9.204   2.786   0.787  0.0877 -0.0136  0.2802
18612SOL    HW157513   9.149   2.861   0.810  0.8629  0.6685 -0.0621
18612SOL    HW257514   9.220   2.797   0.693  1.7786  0.4449  0.6139
18613SOL     OW57515   8.261   2.504   5.504 -0.4318  0.6636  0.0537
18613SOL    HW157516   8.194   2.442   5.475 -0.4850  0.1690  1.2327
18613SOL    HW257517   8.281   2.555   5.425 -0.5948 -0.6504 -0.8637
18614SOL     OW57518   3.222   4.948   6.089 -0.6278 -0.2097  0.3901
18614SOL    HW157519   3.187   5.036   6.100  0.1823 -0.2115  3.5013
18614SOL    HW257520   3.277   4.953   6.011  0.0126  2.2481  0.9705
18615SOL     OW57521   3.431   5.838   5.765 -0.1959 -0.2777  0.4019
18615SOL    HW157522   3.393   5.750   5.766 -1.1927  0.1243 -0.6578
18615SOL    HW257523   3.505   5.831   5.704  0.3230 -0.6075  1.0574
18616SOL     OW57524   3.155   1.002   9.218  0.3849 -0.0655 -0.5887
18616SOL    HW157525   3.075   1.049   9.194  0.4607  0.3500 -0.0280
18616SOL    HW257526   3.168   1.022   9.311  0.3560 -1.2784 -0.3205
18617SOL     OW57527   0.100   1.540   1.849  0.3833  0.0904  0.3126
18617SOL    HW157528   0.113   1.487   1.928  1.1079  1.3556  1.0481
18617SOL    HW257529   0.096   1.476   1.778  2.5666 -0.8931  1.0367
18618SOL     OW57530   3.308   8.147   8.959  0.6292 -0.1771 -0.6721
18618SOL    HW157531   3.380   8.100   8.918 -0.1446 -1.3808 -0.6827
18618SOL    HW257532   3.242   8.154   8.890 -0.6924 -2.2293  0.3343
18619SOL     OW57533   0.589   1.568   3.325  0.3981 -0.1637  0.3533
18619SOL    HW157534   0.515   1.523   3.283 -0.1721  0.7919  0.3278
18619SOL    HW257535   0.594   1.652   3.280  0.5091  0.4090  1.4411
18620SOL     OW57536   1.106   1.161   1.878  0.3173 -0.2335  0.3016
18620SOL    HW157537   1.104   1.105   1.956 -1.8778 -0.5939  0.0125
18620SOL    HW257538   1.015   1.186   1.864  0.9559  1.4813 -0.9829
18621SOL     OW57539   4.809   8.109   0.897  0.3885 -0.0427 -0.0121
18621SOL    HW157540   4.889   8.071   0.860  0.1097 -1.8374  1.1542
18621SOL    HW257541   4.822   8.104   0.992 -0.4744  1.0318  0.1654
18622SOL     OW57542   0.043   6.781   8.694 -0.2311  0.1516 -0.3083
18622SOL    HW157543  -0.021   6.713   8.675 -0.4494  0.5917 -1.1920
18622SOL    HW257544   0.003   6.862   8.662  0.5909  0.4918 -0.5107
18623SOL     OW57545   4.310   3.287   9.187 -0.0902  0.1849 -0.3016
18623SOL    HW157546   4.334   3.214   9.243 -1.2827  0.7536  0.9727
18623SOL    HW257547   4.387   3.344   9.189 -0.2306  0.3509  1.0250
18624SOL     OW57548   4.490   2.469   0.767 -0.0811 -0.3552 -0.4351
18624SOL    HW157549   4.563   2.421   0.805  0.5508  1.5572  0.8286
18624SOL    HW257550   4.527   2.511   0.689 -0.4530 -1.3106 -1.1369
18625SOL     OW57551   1.625   2.007   8.936  0.3420 -0.4136  0.0488
18625SOL    HW157552   1.614   1.912   8.929 -1.3308 -0.1367 -1.3446
18625SOL    HW257553   1.546   2.043   8.897  0.5446  1.5598  1.4130
18626SOL     OW57554   3.000   3.954   1.983 -0.1430  0.5842  0.5552
18626SOL    HW157555   3.080   3.979   1.937 -0.3545  0.9223  0.3647
18626SOL    HW257556   3.018   3.867   2.018  0.3898  0.7616  0.7149
18627SOL     OW57557   4.628   1.536   4.381 -0.6192 -0.8147 -0.2377
18627SOL    HW157558   4.639   1.619   4.334  1.6544  0.0613  1.7202
18627SOL    HW257559   4.648   1.469   4.316  2.7937  0.3759 -0.5035
18628SOL     OW57560   5.235   7.530   8.206  0.0841 -0.1751  0.1997
18628SOL    HW157561   5.229   7.623   8.229  1.4128  0.0483 -0.2730
18628SOL    HW257562   5.194   7.525   8.119  0.4101  0.0630  0.0269
18629SOL     OW57563   7.253   6.101   2.910  0.1238 -0.0660 -0.2810
18629SOL    HW157564   7.208   6.141   2.984  0.0541 -0.0598 -0.3268
18629SOL    HW257565   7.345   6.103   2.934 -0.0487 -1.6625  0.5747
18630SOL     OW57566   1.001   7.337   5.360  0.0120  0.0577 -0.3955
18630SOL    HW157567   1.077   7.285   5.336 -0.2754  0.2056 -1.6710
18630SOL    HW257568   0.987   7.319   5.453  2.3250  0.9516  0.1608
18631SOL     OW57569   8.159   3.606   1.113 -0.1584  0.4439  0.5754
18631SOL    HW157570   8.199   3.527   1.151  1.2739  1.3457  0.9681
18631SOL    HW257571   8.227   3.641   1.055 -1.4081  0.4790 -0.8896
18632SOL     OW57572   6.570   3.056   6.539 -0.1423 -0.4478 -0.1100
18632SOL    HW157573   6.584   3.069   6.445 -0.0390  0.1250 -0.0188
18632SOL    HW257574   6.495   3.113   6.560  1.5356  1.5365  0.6880
18633SOL     OW57575   5.697   2.221   7.735 -0.2120 -0.5200 -0.0590
18633SOL    HW157576   5.695   2.257   7.823 -2.3772  2.0272 -1.1008
18633SOL    HW257577   5.624   2.159   7.732 -0.8480  0.2341 -0.3801
18634SOL     OW57578   7.715   1.383   7.014 -0.3515 -0.6102 -0.1472
18634SOL    HW157579   7.747   1.439   7.085  1.6345 -1.6150 -0.2086
18634SOL    HW257580   7.731   1.294   7.045 -2.6303 -1.1553 -0.4361
18635SOL     OW57581   7.026   5.233   4.557 -0.7860 -0.4436 -0.2339
18635SOL    HW157582   7.047   5.320   4.591 -0.6765 -0.1918 -0.9329
18635SOL    HW257583   6.985   5.188   4.630 -0.6106  0.1123  0.2109
18636SOL     OW57584   9.028   7.230   5.384 -0.2694 -0.2614  0.2350
18636SOL    HW157585   9.057   7.140   5.373 -1.5665 -0.6246 -0.3178
18636SOL    HW257586   9.058   7.254   5.472 -1.2374 -1.7552  0.9959
18637SOL     OW57587   0.759   3.186   5.809  0.2604  0.5047  0.2962
18637SOL    HW157588   0.790   3.162   5.722 -0.1785  1.2751 -0.0761
18637SOL    HW257589   0.838   3.193   5.862  0.6422  1.4012 -0.3833
18638SOL     OW57590   1.962   3.424   0.816 -0.1889  0.0331  0.0913
18638SOL    HW157591   2.027   3.359   0.843  0.3083 -0.3141 -1.8940
18638SOL    HW257592   1.912   3.380   0.748 -1.3555  0.9379  0.3546
18639SOL     OW57593   6.209   1.128   5.058 -0.1381 -0.1072  0.1028
18639SOL    HW157594   6.142   1.136   4.991 -0.1701 -1.3008 -0.0017
18639SOL    HW257595   6.170   1.167   5.137  0.2204  2.1196 -0.7626
18640SOL     OW57596   7.057   6.531   7.684  0.5064  0.6732  0.0773
18640SOL    HW157597   7.055   6.518   7.589  1.6326  0.6120  0.0523
18640SOL    HW257598   7.022   6.619   7.697  0.8257  0.8790 -0.4392
18641SOL     OW57599   8.092   3.431   8.957  0.5093  0.2718  0.0704
18641SOL    HW157600   8.099   3.340   8.928  2.1946  0.6365 -0.7039
18641SOL    HW257601   8.095   3.483   8.877 -1.0931  1.0059  0.4568
18642SOL     OW57602   8.514   7.434   3.896  0.0008 -0.2026  0.4909
18642SOL    HW157603   8.600   7.476   3.889  0.4712 -1.0591  1.1011
18642SOL    HW257604   8.532   7.341   3.895 -0.7670 -0.4008  2.2887
18643SOL     OW57605   9.051   2.404   5.453 -0.1590  0.1639  0.3864
18643SOL    HW157606   8.986   2.362   5.397 -1.0842  0.9861  0.8304
18643SOL    HW257607   9.000   2.460   5.511  0.8837  0.1788  1.3030
18644SOL     OW57608   2.078   0.404   2.769 -0.5117 -0.4138 -0.7478
18644SOL    HW157609   2.020   0.451   2.709 -0.9679  0.5657  0.4418
18644SOL    HW257610   2.156   0.460   2.776 -0.5037 -0.4760 -0.3495
18645SOL     OW57611   3.762   1.382   8.650 -0.4837  0.0317  0.5163
18645SOL    HW157612   3.798   1.420   8.570 -2.0501 -0.4820 -0.4497
18645SOL    HW257613   3.838   1.343   8.694  0.5702  1.3159 -0.1434
18646SOL     OW57614   7.699   7.398   4.194  0.0747 -0.2640  0.7797
18646SOL    HW157615   7.744   7.332   4.142 -1.4617 -0.4367 -0.3482
18646SOL    HW257616   7.722   7.481   4.154  0.0228 -0.2982  0.6796
18647SOL     OW57617   5.981   1.811   6.878  0.1726  0.2681 -0.2957
18647SOL    HW157618   6.024   1.795   6.963  1.3857  1.4160 -0.6760
18647SOL    HW257619   5.973   1.724   6.839 -0.1253 -0.2404  0.8713
18648SOL     OW57620   5.706   0.026   3.970  0.2993 -0.1034 -0.0852
18648SOL    HW157621   5.614   0.041   3.994  0.4423  0.5034  0.0844
18648SOL    HW257622   5.726  -0.060   4.008 -0.4136 -0.5741 -0.7650
18649SOL     OW57623   8.704   1.672   2.486  0.0982  0.5816  0.1031
18649SOL    HW157624   8.751   1.593   2.460 -0.7157 -0.5091  1.8283
18649SOL    HW257625   8.769   1.724   2.532  0.0736 -0.1602  1.0011
18650SOL     OW57626   1.714   5.978   1.884 -0.3855  0.2754  0.2629
18650SOL    HW157627   1.786   5.994   1.823 -1.1517  1.3778 -0.3633
18650SOL    HW257628   1.722   5.885   1.906  0.7568  0.2024 -0.4116
18651SOL     OW57629   9.158   8.013   4.997 -0.7605  0.0358  0.2377
18651SOL    HW157630   9.251   8.033   5.009 -0.7907 -0.7659  2.0811
18651SOL    HW257631   9.123   8.087   4.947 -0.0626  2.6658  3.4333
18652SOL     OW57632   9.201   6.661   2.481 -0.4535 -0.0131 -0.3964
18652SOL    HW157633   9.170   6.612   2.404  0.2144 -2.0944  0.6342
18652SOL    HW257634   9.282   6.702   2.452 -0.4459 -0.4090 -0.9520
18653SOL     OW57635   3.551   2.371   8.937 -0.0088 -0.0459 -0.1886
18653SOL    HW157636   3.493   2.341   8.867  0.8999  0.9891 -1.3887
18653SOL    HW257637   3.590   2.452   8.904  2.3031 -0.8389  0.5137
18654SOL     OW57638   3.757   3.444   0.961  0.6149  0.0234 -0.4131
18654SOL    HW157639   3.711   3.366   0.929  2.2113 -0.5714 -1.3104
18654SOL    HW257640   3.847   3.433   0.931  1.6740  0.5136  2.4673
18655SOL     OW57641   0.716   5.309   6.069  0.7481  0.2847  0.0568
18655SOL    HW157642   0.734   5.380   6.006  0.2846  0.3472 -0.0002
18655SOL    HW257643   0.664   5.246   6.020  1.2440 -0.1472  0.0798
18656SOL     OW57644   5.664   3.086   8.676 -0.0289  0.5770 -0.1157
18656SOL    HW157645   5.725   3.014   8.663 -0.8735 -0.0193 -0.8614
18656SOL    HW257646   5.669   3.106   8.769 -0.5398 -1.1194  0.2944
18657SOL     OW57647   2.503   5.099   2.336 -0.3299  0.5194  1.0922
18657SOL    HW157648   2.549   5.172   2.377  0.9087  0.7077 -0.5745
18657SOL    HW257649   2.569   5.030   2.331 -0.2037  0.8080 -1.3751
18658SOL     OW57650   1.644   3.882   8.611 -0.3203  0.4078 -0.2034
18658SOL    HW157651   1.587   3.855   8.683 -0.7507 -1.5263 -1.2247
18658SOL    HW257652   1.728   3.899   8.652 -0.0088 -2.6162  0.5446
18659SOL     OW57653   0.549   3.658   0.494  0.3347  0.9245  0.1598
18659SOL    HW157654   0.594   3.574   0.495 -0.1314  0.5819 -2.5960
18659SOL    HW257655   0.552   3.688   0.585  2.9131 -0.7602  0.6932
18660SOL     OW57656   3.621   0.865   2.281 -0.3134  0.3886 -0.5907
18660SOL    HW157657   3.566   0.787   2.270 -0.5212  0.5843 -0.9850
18660SOL    HW257658   3.560   0.939   2.272  0.3015  0.6538 -2.9277
18661SOL     OW57659   8.592   2.500   8.458 -0.2607  0.1143 -0.3408
18661SOL    HW157660   8.657   2.562   8.491 -1.0685 -0.8381  3.2490
18661SOL    HW257661   8.538   2.552   8.398  0.2913  2.4171  1.0707
18662SOL     OW57662   1.525   1.072   7.726 -0.3088  0.8345  0.4634
18662SOL    HW157663   1.502   1.043   7.638  0.4048  0.1893  0.4886
18662SOL    HW257664   1.594   1.011   7.754  0.5951  2.0297  0.8487
18663SOL     OW57665   3.126   5.911   6.060  0.0066 -0.1108 -0.5714
18663SOL    HW157666   3.081   5.890   6.141  2.1974  1.9852  1.2792
18663SOL    HW257667   3.134   5.828   6.014 -2.4739 -1.1053  0.6913
18664SOL     OW57668   6.945   6.779   4.120 -0.0570  0.1396 -0.3576
18664SOL    HW157669   6.965   6.733   4.202 -0.8677  1.2561  0.4936
18664SOL    HW257670   7.007   6.852   4.117  1.7510 -1.4257 -2.1005
18665SOL     OW57671   0.535   5.074   3.992  0.9183  0.6894 -0.8005
18665SOL    HW157672   0.551   5.008   4.060  0.1083  0.6164 -0.6771
18665SOL    HW257673   0.609   5.065   3.932  1.6279  0.7270  0.0494
18666SOL     OW57674   2.670   3.240   3.619 -0.8847 -0.4976 -0.1738
18666SOL    HW157675   2.701   3.326   3.589  0.1419 -0.4236  1.0902
18666SOL    HW257676   2.614   3.209   3.547 -0.3872  0.7400 -1.1165
18667SOL     OW57677   1.406   5.547   6.008 -0.3152 -0.9170  0.3596
18667SOL    HW157678   1.399   5.454   5.985 -0.6838 -0.7092 -0.3581
18667SOL    HW257679   1.475   5.580   5.952 -0.4122 -0.6757  0.3841
18668SOL     OW57680   6.312   6.078   7.510 -0.3218  0.3183  0.2979
18668SOL    HW157681   6.260   6.052   7.434 -0.6075  0.2013  0.5357
18668SOL    HW257682   6.278   6.026   7.582  0.5990 -0.2890  0.3106
18669SOL     OW57683   1.198   7.570   5.278 -0.0803  0.3214 -0.0457
18669SOL    HW157684   1.128   7.566   5.343 -0.5601  0.9383 -0.5176
18669SOL    HW257685   1.162   7.527   5.201  0.9678 -1.6120  0.5103
18670SOL     OW57686   5.223   4.942   0.133 -0.6955  0.1644 -0.1824
18670SOL    HW157687   5.247   4.861   0.177 -0.1526  0.8622  0.8311
18670SOL    HW257688   5.164   4.986   0.195  0.0135  1.1147 -0.1754
18671SOL     OW57689   1.768   2.215   8.443  0.0200 -0.6331  0.2289
18671SOL    HW157690   1.820   2.241   8.367 -0.2263 -0.6387  0.0593
18671SOL    HW257691   1.823   2.151   8.489  0.6468  0.2024  0.6662
18672SOL     OW57692   7.895   3.042   1.060 -0.8447  0.2757 -0.3980
18672SOL    HW157693   7.923   2.995   1.138 -0.6897  0.9749 -0.0278
18672SOL    HW257694   7.836   3.110   1.093 -0.0173  1.1907 -0.7806
18673SOL     OW57695   3.045   5.683   7.244  0.3432  0.5915 -0.2143
18673SOL    HW157696   3.117   5.637   7.287 -0.2813  0.6519  0.9049
18673SOL    HW257697   2.968   5.629   7.260  0.0536  0.7680 -1.0040
18674SOL     OW57698   5.169   8.775   4.349  0.4011  0.6545 -0.2101
18674SOL    HW157699   5.130   8.790   4.435  2.8688 -1.0416  1.2790
18674SOL    HW257700   5.136   8.689   4.322  0.6528  0.6020 -0.3551
18675SOL     OW57701   8.569   7.256   6.323  0.4589 -0.3893  0.5908
18675SOL    HW157702   8.561   7.162   6.334 -0.7146 -0.2097  1.3032
18675SOL    HW257703   8.481   7.290   6.337  0.4883  0.6339 -1.5705
18676SOL     OW57704   7.176   6.171   5.355  0.1151 -0.5562  0.0457
18676SOL    HW157705   7.156   6.078   5.360  0.3932 -0.5999  0.3057
18676SOL    HW257706   7.093   6.211   5.327 -0.2145 -0.7942  0.6820
18677SOL     OW57707   1.863   8.660   1.882 -0.0061  0.1740 -0.5515
18677SOL    HW157708   1.885   8.752   1.867 -1.0205  0.3591 -0.9442
18677SOL    HW257709   1.874   8.618   1.797 -0.6495  0.1660 -0.6359
18678SOL     OW57710   3.213   8.707   9.243 -0.1610  0.0584  0.0660
18678SOL    HW157711   3.136   8.747   9.282 -0.6263 -1.2238  0.4765
18678SOL    HW257712   3.187   8.617   9.224  0.6257  0.1406 -1.5419
18679SOL     OW57713   6.908   4.564   8.762  0.4058  0.2468  0.1383
18679SOL    HW157714   6.906   4.534   8.853  3.1422 -2.0030 -0.4938
18679SOL    HW257715   6.852   4.503   8.715  1.1057 -0.1994 -0.1222
18680SOL     OW57716   7.596   1.938   4.899  0.4538  0.0609  0.3403
18680SOL    HW157717   7.592   2.031   4.877  2.2166  0.1705  0.4759
18680SOL    HW257718   7.534   1.928   4.972 -0.1153  1.0186  0.0034
18681SOL     OW57719   5.937   7.841   5.916 -0.0970  0.7117 -0.1071
18681SOL    HW157720   5.896   7.926   5.931  1.0392  1.2526  0.0179
18681SOL    HW257721   5.868   7.786   5.879 -0.6632  1.8987 -0.8284
18682SOL     OW57722   0.210   5.856   5.714 -0.1834 -0.1025 -0.5557
18682SOL    HW157723   0.234   5.764   5.702  0.3922 -0.0880  0.3759
18682SOL    HW257724   0.169   5.881   5.632  0.1142 -1.0536 -1.0083
18683SOL     OW57725   5.590   7.415   8.533 -0.3043 -0.1927 -0.2562
18683SOL    HW157726   5.643   7.392   8.610 -1.1769  0.9224  0.6930
18683SOL    HW257727   5.635   7.372   8.460  2.0977  0.9608  0.4764
18684SOL     OW57728   3.678   6.172   1.181 -0.2617  0.0226 -0.3347
18684SOL    HW157729   3.643   6.163   1.270  0.6861 -0.7072 -0.0195
18684SOL    HW257730   3.602   6.160   1.124 -1.4568  3.4268  0.3926
18685SOL     OW57731   4.939   4.676   0.971  0.4699  0.1057  0.1312
18685SOL    HW157732   4.990   4.623   0.910 -0.0154  0.1916 -0.3610
18685SOL    HW257733   4.949   4.633   1.056  0.1762 -0.6972 -0.2391
18686SOL     OW57734   3.310   0.541   1.511  0.9149  0.0766 -0.1663
18686SOL    HW157735   3.317   0.624   1.558  1.9319  0.5261 -1.0995
18686SOL    HW257736   3.305   0.567   1.418  2.7293 -0.9585 -0.5647
18687SOL     OW57737   9.188   2.970   2.401  0.0467 -0.4484  0.3983
18687SOL    HW157738   9.169   2.915   2.324 -0.2502 -1.1130  0.9338
18687SOL    HW257739   9.282   2.987   2.396  0.4766 -2.4375  1.1365
18688SOL     OW57740   3.945   6.913   2.908 -0.1639 -0.2247 -0.2641
18688SOL    HW157741   3.957   6.937   3.000  0.4754  1.3552 -0.7401
18688SOL    HW257742   3.852   6.928   2.891 -0.1039  0.3626 -0.1042
18689SOL     OW57743   8.870   4.864   0.235 -0.1271 -0.4500  0.2530
18689SOL    HW157744   8.830   4.843   0.151 -0.5285  0.9101  0.0951
18689SOL    HW257745   8.961   4.884   0.214  0.4480 -2.6544  0.4968
18690SOL     OW57746   3.585   7.738   6.950 -0.3311 -0.4149  0.2044
18690SOL    HW157747   3.557   7.683   7.023 -1.3154  0.7598  0.7233
18690SOL    HW257748   3.664   7.695   6.916 -0.2919 -1.3643  1.4839
18691SOL     OW57749   9.134   1.094   3.799  0.1004 -0.3900  0.0406
18691SOL    HW157750   9.159   1.182   3.771 -1.1259  0.3363  1.2098
18691SOL    HW257751   9.177   1.083   3.884 -0.0837 -0.7595  0.0875
18692SOL     OW57752   0.072   2.855   6.418 -0.0043 -0.1595 -0.2182
18692SOL    HW157753   0.092   2.806   6.498  0.7852  1.2678  0.4732
18692SOL    HW257754   0.145   2.836   6.359 -1.0629 -1.9814 -0.9822
18693SOL     OW57755   0.592   4.759   4.459  0.1030 -0.2327  0.1119
18693SOL    HW157756   0.673   4.775   4.507 -0.0501 -0.2137  0.3639
18693SOL    HW257757   0.614   4.689   4.398  0.5625  0.4236 -0.4712
18694SOL     OW57758   4.026   4.509   7.135  0.2237 -0.0251  0.4908
18694SOL    HW157759   3.983   4.591   7.108  0.2792 -0.7248 -1.8217
18694SOL    HW257760   3.973   4.440   7.095  1.8308 -0.9945 -0.0021
18695SOL     OW57761   4.604   1.830   6.747 -0.5888  0.6640 -0.2975
18695SOL    HW157762   4.608   1.817   6.842  2.9934 -0.9157 -0.5813
18695SOL    HW257763   4.557   1.753   6.715  2.4674 -1.4027 -0.1285
18696SOL     OW57764   5.090   2.410   0.535 -0.4378  0.4778 -0.5275
18696SOL    HW157765   5.171   2.454   0.564 -0.5641  0.0910  0.4248
18696SOL    HW257766   5.081   2.336   0.594 -1.4118  0.4266 -0.7348
18697SOL     OW57767   2.264   8.463   9.160 -0.3229 -0.5389 -0.1931
18697SOL    HW157768   2.298   8.458   9.071  0.9861 -1.6602  0.3389
18697SOL    HW257769   2.246   8.556   9.174  0.5507 -0.2008 -1.2411
18698SOL     OW57770   6.287   7.310   0.472  0.2425 -0.1918  0.5156
18698SOL    HW157771   6.224   7.324   0.401  0.6558 -2.9504 -0.4843
18698SOL    HW257772   6.234   7.306   0.551 -0.4900  0.5234  0.0636
18699SOL     OW57773   0.986   7.691   3.765  0.1328  0.4668 -0.4778
18699SOL    HW157774   0.909   7.716   3.714 -0.3482  0.8408  0.4197
18699SOL    HW257775   1.049   7.761   3.749  0.2146  0.2533 -1.0713
18700SOL     OW57776   2.585   0.905   3.005 -0.4550 -0.6426 -0.2174
18700SOL    HW157777   2.651   0.847   3.044  0.1513  0.6942  0.8142
18700SOL    HW257778   2.576   0.875   2.915 -1.4680 -3.4662  0.7647
18701SOL     OW57779   8.293   1.388   2.146  0.3956  0.5735 -0.4754
18701SOL    HW157780   8.342   1.307   2.130  1.4306  1.3524 -1.3539
18701SOL    HW257781   8.352   1.440   2.200  1.5280  2.4195 -3.3531
18702SOL     OW57782   0.079   5.550   4.043  0.4809 -0.4002 -0.2484
18702SOL    HW157783   0.090   5.514   3.955 -0.9415  1.5484 -1.2689
18702SOL    HW257784   0.144   5.620   4.048 -1.6240  1.6773 -1.0147
18703SOL     OW57785   7.305   9.137   2.686 -0.5222 -0.2245 -0.3791
18703SOL    HW157786   7.400   9.131   2.692 -0.3903 -0.0350 -2.0983
18703SOL    HW257787   7.277   9.156   2.775  1.0701 -0.0329  0.0977
18704SOL     OW57788   2.918   0.649   4.115 -0.1837 -0.3479 -0.3694
18704SOL    HW157789   2.983   0.582   4.138  0.2335  0.2830  0.3317
18704SOL    HW257790   2.935   0.667   4.023 -0.0292 -0.9183 -0.4568
18705SOL     OW57791   1.948   7.606   7.193 -0.2608 -0.0226  0.7337
18705SOL    HW157792   1.939   7.516   7.160 -2.5076 -0.0551  1.3676
18705SOL    HW257793   2.040   7.614   7.216  0.0990 -1.9549  0.0452
18706SOL     OW57794   5.763   8.006   3.991 -0.5351  0.3622  0.1918
18706SOL    HW157795   5.670   8.029   3.991 -0.2049  1.7890 -0.9359
18706SOL    HW257796   5.778   7.971   3.903  0.3137  1.5176 -0.1329
18707SOL     OW57797   2.709   7.713   6.572  0.3284 -0.3156  0.2103
18707SOL    HW157798   2.670   7.634   6.610  2.1040 -0.4533  1.8063
18707SOL    HW257799   2.800   7.689   6.556  0.8953  1.4273  0.7676
18708SOL     OW57800   4.841   0.782   9.113  0.3468  0.0401 -0.0707
18708SOL    HW157801   4.773   0.849   9.112  3.2913  3.2027  0.0356
18708SOL    HW257802   4.846   0.752   9.203 -1.0875 -0.4445 -0.1497
18709SOL     OW57803   2.730   4.379   7.672  0.1927 -0.4287 -0.4681
18709SOL    HW157804   2.658   4.338   7.624  0.4833 -0.1408 -1.1560
18709SOL    HW257805   2.693   4.398   7.758 -0.5884 -0.1748 -0.8534
18710SOL     OW57806   6.482   2.029   7.787 -0.3747 -0.4274 -0.3018
18710SOL    HW157807   6.511   2.020   7.878 -1.2560  1.1976  0.1695
18710SOL    HW257808   6.546   2.088   7.747 -1.2861  0.7571 -0.0674
18711SOL     OW57809   2.574   6.459   3.366  0.5332  0.5470  0.0682
18711SOL    HW157810   2.667   6.442   3.350  0.3720  0.0392 -0.3492
18711SOL    HW257811   2.544   6.505   3.287  0.1346 -0.4483 -0.3798
18712SOL     OW57812   9.180   1.250   7.218 -0.6325  0.6991  0.3175
18712SOL    HW157813   9.217   1.163   7.235 -2.3905 -0.3626 -1.0436
18712SOL    HW257814   9.108   1.258   7.281 -0.9738  0.8311 -0.0845
18713SOL     OW57815   3.951   5.657   0.695  0.2358  0.4268 -0.1947
18713SOL    HW157816   3.865   5.699   0.688 -0.3029 -0.8628 -1.6864
18713SOL    HW257817   3.984   5.684   0.780 -1.5137  1.2235  0.2562
18714SOL     OW57818   2.439   7.476   1.059  0.4745 -0.1223  0.6060
18714SOL    HW157819   2.491   7.499   0.981  0.8599 -0.9814  0.6056
18714SOL    HW257820   2.496   7.418   1.109  0.6858  1.3738  2.1349
18715SOL     OW57821   4.199   8.868   0.369 -0.0428 -0.1871 -0.3810
18715SOL    HW157822   4.170   8.940   0.312 -1.9744 -0.8089 -0.2322
18715SOL    HW257823   4.236   8.803   0.309  3.0324  1.4901 -0.3975
18716SOL     OW57824   2.397   3.370   1.916 -0.3299  0.2913  0.3336
18716SOL    HW157825   2.326   3.330   1.865 -1.0596  0.4473  1.2017
18716SOL    HW257826   2.464   3.391   1.852 -0.3539 -1.4029 -0.2787
18717SOL     OW57827   4.650   1.341   1.034  0.3854 -0.7039  0.3762
18717SOL    HW157828   4.610   1.412   0.983  2.5204 -0.8296 -1.5600
18717SOL    HW257829   4.681   1.383   1.114 -0.0862  0.1594  0.1076
18718SOL     OW57830   4.951   8.908   3.403 -0.4722 -0.4494 -0.0611
18718SOL    HW157831   4.996   8.919   3.487  1.9584  0.5032 -1.4402
18718SOL    HW257832   5.011   8.945   3.339 -3.1842  0.7501 -2.0234
18719SOL     OW57833   2.882   5.440   7.302  0.3557  0.1918  0.7766
18719SOL    HW157834   2.848   5.439   7.391  0.5511  2.0065  0.9019
18719SOL    HW257835   2.807   5.461   7.247  0.3772 -0.1932  0.6027
18720SOL     OW57836   1.583   4.974   7.443 -0.9637  0.5739  0.2523
18720SOL    HW157837   1.579   4.917   7.519  0.4367  0.6130  0.3638
18720SOL    HW257838   1.543   5.056   7.473 -1.7313  0.1216  0.4984
18721SOL     OW57839   5.575   3.327   4.696 -0.5342  0.0831 -0.0022
18721SOL    HW157840   5.481   3.328   4.676 -0.6587  1.7717  0.5546
18721SOL    HW257841   5.578   3.324   4.792  0.0146 -2.7641 -0.0699
18722SOL     OW57842   0.989   7.052   1.218 -0.3781 -0.1455  0.2609
18722SOL    HW157843   1.078   7.036   1.248 -0.2367  2.3280  1.2955
18722SOL    HW257844   0.956   7.121   1.276 -2.2117  0.5119 -1.4935
18723SOL     OW57845   5.535   3.073   6.021  0.0510 -0.6606  0.2767
18723SOL    HW157846   5.522   3.158   6.062  2.0547  0.0541 -0.4834
18723SOL    HW257847   5.610   3.035   6.067  0.5543 -1.0605 -0.8485
18724SOL     OW57848   6.521   3.291   8.843 -0.2387  0.0190 -0.0568
18724SOL    HW157849   6.464   3.222   8.809  0.3834 -0.2667 -0.5334
18724SOL    HW257850   6.580   3.311   8.770  1.4701 -0.9914  1.0282
18725SOL     OW57851   4.295   5.512   8.239  0.2570 -0.1288  0.1886
18725SOL    HW157852   4.358   5.572   8.279  0.2457 -0.2296  0.3564
18725SOL    HW257853   4.210   5.553   8.256  0.1870 -0.5788  0.9768
18726SOL     OW57854   1.381   2.061   8.783  0.0724 -0.0756 -0.5356
18726SOL    HW157855   1.290   2.081   8.805 -0.0301 -0.3674 -0.6920
18726SOL    HW257856   1.388   2.082   8.690  0.2246  0.1594 -0.4694
18727SOL     OW57857   5.640   3.304   3.944 -0.0033  0.2303  0.2975
18727SOL    HW157858   5.673   3.360   3.874  0.6773 -2.0786 -1.3003
18727SOL    HW257859   5.712   3.244   3.964 -1.4763 -1.6132  0.2930
18728SOL     OW57860   7.976   5.203   8.853  0.3590  0.2968 -0.4608
18728SOL    HW157861   7.952   5.201   8.761 -0.7375 -0.0649 -0.1662
18728SOL    HW257862   7.925   5.133   8.893 -0.1824  1.3361  0.6720
18729SOL     OW57863   0.021   2.524   6.437 -0.1367 -0.1916 -0.6492
18729SOL    HW157864  -0.068   2.550   6.412 -0.8569 -2.1344 -0.1882
18729SOL    HW257865   0.054   2.476   6.360 -0.1433 -0.9584 -0.1821
18730SOL     OW57866   0.229   2.945   8.107 -0.6521 -0.0262  0.0773
18730SOL    HW157867   0.278   2.954   8.189 -1.1476  2.0518  0.1688
18730SOL    HW257868   0.183   2.861   8.116 -0.1115 -0.1911  1.5833
18731SOL     OW57869   3.321   8.576   2.035 -0.7444 -0.2986  0.2739
18731SOL    HW157870   3.382   8.535   2.096  0.3599 -1.4975 -1.5913
18731SOL    HW257871   3.366   8.655   2.006 -0.4978 -0.6688 -0.3549
18732SOL     OW57872   5.776   4.162   4.810  0.6331 -0.3476  0.4363
18732SOL    HW157873   5.728   4.087   4.844  0.0453  0.0342  0.4620
18732SOL    HW257874   5.825   4.128   4.736  0.2047 -0.7179  0.3202
18733SOL     OW57875   3.684   5.235   5.490 -0.2359 -0.1723 -0.0510
18733SOL    HW157876   3.696   5.197   5.577 -2.2174 -1.4718 -0.3191
18733SOL    HW257877   3.614   5.300   5.502 -0.2085 -0.0452 -0.5735
18734SOL     OW57878   5.019   5.767   0.195  0.3743 -0.2411 -0.7383
18734SOL    HW157879   5.025   5.679   0.232  1.2409  0.0249 -0.2542
18734SOL    HW257880   4.985   5.752   0.106  1.2048 -1.1240 -0.9143
18735SOL     OW57881   4.183   1.897   8.822  0.4251 -0.0577  0.6909
18735SOL    HW157882   4.197   1.940   8.907 -0.9838  2.5764 -0.3530
18735SOL    HW257883   4.091   1.872   8.824  1.1653 -2.8289  1.1577
18736SOL     OW57884   4.177   0.529   3.314  0.3454  0.3436 -0.0176
18736SOL    HW157885   4.227   0.458   3.354  1.3443  1.1759  0.2223
18736SOL    HW257886   4.229   0.555   3.238  0.5942  1.6393  0.5976
18737SOL     OW57887   1.003   6.573   0.852 -0.3590  0.5951  0.6192
18737SOL    HW157888   0.980   6.660   0.883  1.8008  1.2965  0.2914
18737SOL    HW257889   1.053   6.534   0.923  1.5889  0.8984 -0.5670
18738SOL     OW57890   4.684   1.375   8.880  0.4363  0.1091  0.1762
18738SOL    HW157891   4.736   1.408   8.953  0.4077  0.7211 -0.0748
18738SOL    HW257892   4.691   1.280   8.886  1.5024  0.1868  0.1979
18739SOL     OW57893   6.741   7.082   7.797  0.3140 -0.4261  0.1819
18739SOL    HW157894   6.677   7.024   7.757  1.3419 -0.2303 -1.7925
18739SOL    HW257895   6.792   7.117   7.724  0.8271  1.6344  1.4641
18740SOL     OW57896   7.349   9.141   8.413  0.4320 -0.3626 -0.6932
18740SOL    HW157897   7.254   9.131   8.411  0.3800  0.3992 -2.3894
18740SOL    HW257898   7.363   9.235   8.416  1.1489 -0.4650 -0.7855
18741SOL     OW57899   3.375   5.574   0.931 -0.2625  0.3467  0.1351
18741SOL    HW157900   3.450   5.561   0.989  1.1266 -0.2205 -1.7475
18741SOL    HW257901   3.367   5.669   0.923  0.8890  0.4114 -0.4202
18742SOL     OW57902   2.483   8.375   4.378  0.4504  0.0201 -0.2877
18742SOL    HW157903   2.537   8.413   4.447  1.1577 -0.9314 -0.3050
18742SOL    HW257904   2.393   8.399   4.402  0.7498  0.2644  0.6020
18743SOL     OW57905   8.658   3.759   0.727  0.1411  0.1719 -0.3814
18743SOL    HW157906   8.596   3.726   0.792  1.3703 -0.3234  0.5501
18743SOL    HW257907   8.621   3.843   0.699 -0.5333  0.2637  0.7617
18744SOL     OW57908   6.225   0.314   0.002  0.2067  0.4476 -0.2269
18744SOL    HW157909   6.279   0.253  -0.049 -1.2643 -1.3989  0.3749
18744SOL    HW257910   6.237   0.399  -0.041  2.4861 -0.2075 -0.9277
18745SOL     OW57911   1.348   8.887   8.805  0.1638 -0.3939 -0.0768
18745SOL    HW157912   1.422   8.828   8.817 -0.7662 -2.1075 -2.4473
18745SOL    HW257913   1.374   8.944   8.733 -0.5101 -0.5018 -0.4128
18746SOL     OW57914   5.147   0.017   7.021  0.2794  0.1134  0.2639
18746SOL    HW157915   5.185  -0.070   7.015  0.4640  0.0598  2.0166
18746SOL    HW257916   5.055   0.003   7.044  0.5469  0.3880  1.5607
18747SOL     OW57917   5.184   7.847   3.006  0.1323 -0.1416  0.4245
18747SOL    HW157918   5.094   7.831   2.978  0.3142  1.3066 -1.0524
18747SOL    HW257919   5.237   7.833   2.927  1.1755 -0.6985  1.2070
18748SOL     OW57920   1.302   6.212   1.596 -0.0244 -0.2629  0.1174
18748SOL    HW157921   1.310   6.135   1.540  0.0733  0.0494 -0.3029
18748SOL    HW257922   1.361   6.195   1.669 -0.5610 -0.9147  0.3980
18749SOL     OW57923   8.394   1.445   0.800 -0.1708 -0.2794 -0.1989
18749SOL    HW157924   8.336   1.520   0.790 -0.7081 -0.7699 -0.8330
18749SOL    HW257925   8.373   1.389   0.726 -0.1022 -1.2827  0.5362
18750SOL     OW57926   3.880   0.687   4.522  0.1075 -0.1018  0.3379
18750SOL    HW157927   3.796   0.650   4.547  0.3811 -0.8151  0.2070
18750SOL    HW257928   3.861   0.779   4.503 -0.2750  0.2322  2.2513
18751SOL     OW57929   8.464   3.960   4.706 -0.2043 -0.4329  0.4941
18751SOL    HW157930   8.542   4.015   4.693 -0.7465  0.5548  1.3288
18751SOL    HW257931   8.489   3.900   4.776 -0.3977  0.2900  1.1889
18752SOL     OW57932   8.621   2.305   4.348 -0.3945 -0.1506 -0.0811
18752SOL    HW157933   8.629   2.243   4.421 -0.3760  0.0557  0.0904
18752SOL    HW257934   8.698   2.361   4.355 -0.6101  0.1409 -0.0023
18753SOL     OW57935   2.062   8.290   9.059 -0.3668  0.2041  0.1390
18753SOL    HW157936   1.980   8.293   9.109 -0.7519 -1.2989 -0.3661
18753SOL    HW257937   2.069   8.376   9.019 -2.2767  0.0025 -0.6961
18754SOL     OW57938   3.164   7.625   5.785 -0.4727 -0.1645 -0.0629
18754SOL    HW157939   3.246   7.674   5.789 -0.2642 -0.5108 -0.0908
18754SOL    HW257940   3.155   7.599   5.693 -1.1240  0.7350 -0.2651
18755SOL     OW57941   3.779   6.202   6.495 -0.0143  0.0568  0.0759
18755SOL    HW157942   3.754   6.147   6.421 -0.2307  1.5576 -0.9751
18755SOL    HW257943   3.733   6.284   6.481  1.7334  1.1591  0.6658
18756SOL     OW57944   4.576   8.879   2.231 -0.2353 -0.0895  0.2774
18756SOL    HW157945   4.576   8.881   2.327 -1.3973 -0.4013  0.2903
18756SOL    HW257946   4.529   8.799   2.209  2.0473 -1.2255 -0.5539
18757SOL     OW57947   8.536   6.258   8.744 -0.0709 -0.3297  0.4458
18757SOL    HW157948   8.603   6.300   8.690 -0.2595 -0.0811  0.4072
18757SOL    HW257949   8.581   6.182   8.783  0.0815 -0.4739 -0.0094
18758SOL     OW57950   9.003   3.211   7.620  0.1632 -0.3887  0.8635
18758SOL    HW157951   9.056   3.161   7.558  1.3327  0.5218  1.1208
18758SOL    HW257952   9.058   3.218   7.698 -1.2421 -1.4145  1.9775
18759SOL     OW57953   9.142   7.807   6.818 -0.1815 -0.0482 -0.5260
18759SOL    HW157954   9.166   7.896   6.793  1.8031 -0.4025  0.0508
18759SOL    HW257955   9.226   7.762   6.828 -1.2071 -2.5177 -2.7041
18760SOL     OW57956   6.049   8.639   6.258  0.7068 -0.4155 -0.4035
18760SOL    HW157957   6.131   8.593   6.277  0.9037 -0.4025 -1.2178
18760SOL    HW257958   5.985   8.569   6.244  0.2677 -0.4349  1.4830
18761SOL     OW57959   3.512   7.711   7.832  0.4149 -0.0006  0.0029
18761SOL    HW157960   3.573   7.732   7.762 -0.7563  0.0501 -1.0216
18761SOL    HW257961   3.507   7.790   7.885 -0.7850  0.9110 -1.4396
18762SOL     OW57962   8.378   3.966   5.791 -0.1667  0.3567 -0.0288
18762SOL    HW157963   8.332   3.928   5.865 -3.1668 -1.2541 -2.5794
18762SOL    HW257964   8.330   4.047   5.771  0.3121  0.5214 -0.5430
18763SOL     OW57965   7.915   7.493   3.997 -0.0534 -0.2249  0.4099
18763SOL    HW157966   7.856   7.492   3.922  0.3743  1.8917  0.0150
18763SOL    HW257967   7.945   7.402   4.005 -1.9070 -0.9350 -0.5238
18764SOL     OW57968   8.180   5.560   8.522 -0.5608  0.6891  0.1121
18764SOL    HW157969   8.101   5.604   8.553 -0.7734 -0.4895  1.2936
18764SOL    HW257970   8.207   5.505   8.596  0.5915  0.0602 -0.7672
18765SOL     OW57971   2.123   1.815   3.293 -0.1340  0.4948 -0.4644
18765SOL    HW157972   2.054   1.812   3.227 -2.5146  1.0855  1.9448
18765SOL    HW257973   2.125   1.726   3.329  1.9626 -0.1549 -2.0388
18766SOL     OW57974   6.573   2.086   1.795 -0.4628  0.2197  0.1059
18766SOL    HW157975   6.616   2.035   1.726 -0.0120  4.6910 -3.2269
18766SOL    HW257976   6.481   2.085   1.771 -0.6628 -0.3398  0.9115
18767SOL     OW57977   1.651   0.270   2.738 -0.3623 -0.0069  0.7583
18767SOL    HW157978   1.617   0.187   2.770 -1.1566 -0.5224 -1.3459
18767SOL    HW257979   1.746   0.258   2.734 -0.2380  0.0872  2.8846
18768SOL     OW57980   7.038   2.020   2.351  0.5755  0.3407  0.1454
18768SOL    HW157981   6.965   2.082   2.355 -0.6139 -1.0827  0.7361
18768SOL    HW257982   7.083   2.042   2.269  0.7286  2.5678  0.7776
18769SOL     OW57983   7.478   7.161   1.177  0.2380 -0.3458  0.3050
18769SOL    HW157984   7.527   7.200   1.250 -1.7243  0.4726  1.2291
18769SOL    HW257985   7.535   7.091   1.145  2.1329  0.7631  1.1369
18770SOL     OW57986   4.307   0.613   5.072 -0.1513  0.2712  0.1019
18770SOL    HW157987   4.257   0.533   5.053 -0.4675  0.2402  1.0788
18770SOL    HW257988   4.241   0.681   5.083  0.0781  0.4826  0.1718
18771SOL     OW57989   0.680   4.152   7.688 -0.2305 -0.0048 -0.6688
18771SOL    HW157990   0.613   4.084   7.700 -0.7466  0.2240 -2.1042
18771SOL    HW257991   0.742   4.113   7.627  0.8390 -0.1288  0.4787
18772SOL     OW57992   0.213   7.044   7.745 -0.0280 -1.0880 -0.2687
18772SOL    HW157993   0.181   7.110   7.683  0.0949  0.3970  1.2271
18772SOL    HW257994   0.306   7.037   7.727 -0.0797 -0.9955 -0.5755
18773SOL     OW57995   7.121   6.339   0.859 -0.5419 -0.3590  0.0084
18773SOL    HW157996   7.125   6.315   0.952 -2.6624 -0.7983  0.0124
18773SOL    HW257997   7.028   6.357   0.843 -0.6010 -2.7248 -2.6218
18774SOL     OW57998   3.335   0.269   4.031 -0.4188  1.0914 -0.4209
18774SOL    HW157999   3.305   0.355   4.060  0.6876  0.7804  1.7427
18774SOL    HW258000   3.428   0.281   4.012 -0.1906  0.2978  0.1937
18775SOL     OW58001   3.278   7.253   0.201 -0.7681  0.0657 -0.2965
18775SOL    HW158002   3.228   7.314   0.147 -2.7939 -0.9030  0.4188
18775SOL    HW258003   3.245   7.267   0.290 -0.4804 -1.3076  0.0359
18776SOL     OW58004   3.211   0.582   0.576 -0.3494  0.2283 -0.2291
18776SOL    HW158005   3.281   0.639   0.607  0.5522 -1.9983  1.9620
18776SOL    HW258006   3.131   0.634   0.588  0.9009  3.1506 -3.6065
18777SOL     OW58007   3.334   0.332   4.720  0.4738 -0.0818 -0.5933
18777SOL    HW158008   3.392   0.322   4.645  1.5553  1.5000 -0.0033
18777SOL    HW258009   3.343   0.251   4.769 -0.7533 -1.4043 -2.4974
18778SOL     OW58010   6.949   4.843   3.906  0.0234 -0.3310  0.0063
18778SOL    HW158011   6.876   4.822   3.964  0.6792  0.8353  1.2861
18778SOL    HW258012   6.910   4.897   3.837 -0.6226 -1.1084 -0.2432
18779SOL     OW58013   8.824   2.665   3.884 -0.0909 -0.6551  0.0554
18779SOL    HW158014   8.909   2.707   3.874 -0.2481 -0.6819 -1.5207
18779SOL    HW258015   8.795   2.690   3.972  1.1221  0.1218  0.2443
18780SOL     OW58016   6.933   5.942   6.890 -0.1053  0.1189 -0.3282
18780SOL    HW158017   7.006   5.956   6.952  0.4607 -0.3854 -0.8704
18780SOL    HW258018   6.976   5.918   6.808 -0.8205  1.8594 -1.2325
18781SOL     OW58019   5.188   4.346   8.169 -0.0533  1.0545 -0.3002
18781SOL    HW158020   5.186   4.440   8.149 -0.4878  1.2648  0.7101
18781SOL    HW258021   5.248   4.309   8.104  2.2994  2.4289  1.0119
18782SOL     OW58022   1.744   1.933   8.138 -0.3267  0.2900 -0.9827
18782SOL    HW158023   1.722   1.895   8.053 -0.7574  2.3698 -1.8539
18782SOL    HW258024   1.660   1.960   8.174 -0.1715 -0.8381  0.2473
18783SOL     OW58025   8.220   6.828   0.608  0.4033 -0.2887  0.2631
18783SOL    HW158026   8.300   6.817   0.660  0.3000  1.0403  0.7378
18783SOL    HW258027   8.169   6.893   0.657 -0.6831 -0.6542 -0.3735
18784SOL     OW58028   1.250   7.343   0.350 -0.3861 -0.5550 -0.5729
18784SOL    HW158029   1.193   7.276   0.313 -0.5945 -0.1337 -1.0118
18784SOL    HW258030   1.192   7.418   0.366  0.3233  0.4339 -2.4569
18785SOL     OW58031   3.669   1.299   9.279 -0.3491 -0.5478  0.0735
18785SOL    HW158032   3.590   1.256   9.246 -0.6924  1.0301 -1.2611
18785SOL    HW258033   3.664   1.290   9.374 -2.6126  0.3082  0.0647
18786SOL     OW58034   7.918   0.861   3.877  0.0034 -0.0482 -0.1948
18786SOL    HW158035   7.825   0.859   3.900  0.2084 -1.2258  0.5978
18786SOL    HW258036   7.920   0.885   3.785 -1.1784 -1.5629 -0.6387
18787SOL     OW58037   3.659   0.404   4.925  0.0227  0.0561  0.7953
18787SOL    HW158038   3.608   0.479   4.894 -1.9117 -1.1624  0.9277
18787SOL    HW258039   3.634   0.394   5.017  0.1427 -0.8358  0.7396
18788SOL     OW58040   1.073   1.902   8.155 -0.3089  0.4950 -0.2266
18788SOL    HW158041   1.072   1.895   8.060  0.5588  1.4125 -0.3057
18788SOL    HW258042   1.074   1.996   8.173 -1.0626  0.3423  0.7008
18789SOL     OW58043   5.753   6.316   8.010 -0.2886 -0.3813 -0.2442
18789SOL    HW158044   5.846   6.335   8.019 -0.3813  0.6217 -1.2671
18789SOL    HW258045   5.750   6.229   7.970  0.2371  0.1545 -1.4690
18790SOL     OW58046   3.841   8.947   3.421  0.2713  0.7114 -0.4790
18790SOL    HW158047   3.920   8.916   3.377  0.8167  1.0841  0.2251
18790SOL    HW258048   3.838   9.041   3.403  1.7627  1.3066  2.1755
18791SOL     OW58049   5.001   1.149   0.269 -0.0087  0.2941 -0.2553
18791SOL    HW158050   4.938   1.126   0.338 -0.2543  0.1727 -0.5196
18791SOL    HW258051   5.083   1.109   0.297  0.0118  0.6562  0.2145
18792SOL     OW58052   8.563   3.623   1.046 -0.1433 -0.2226 -0.2588
18792SOL    HW158053   8.500   3.552   1.028 -0.0207 -1.0709  2.4445
18792SOL    HW258054   8.509   3.694   1.080  0.2408 -0.6758  1.3352
18793SOL     OW58055   7.710   7.635   1.895 -0.1376 -0.2857 -0.4940
18793SOL    HW158056   7.743   7.624   1.806  0.1764 -1.3778 -0.2562
18793SOL    HW258057   7.621   7.600   1.892 -0.6871  1.1253 -0.7453
18794SOL     OW58058   8.984   6.285   8.529  0.5401 -0.0266  0.6125
18794SOL    HW158059   9.006   6.209   8.583  3.3548 -0.8891 -1.6513
18794SOL    HW258060   9.068   6.315   8.494 -0.6732  3.4008  0.4560
18795SOL     OW58061   6.609   0.155   0.714  0.2766  0.0231  0.2526
18795SOL    HW158062   6.697   0.124   0.736  1.7652  1.6614 -3.0110
18795SOL    HW258063   6.602   0.141   0.619 -3.7302 -1.7741  0.7212
18796SOL     OW58064   0.721   5.748   2.687 -0.0389  0.2036  0.1102
18796SOL    HW158065   0.693   5.798   2.609 -0.1335  0.7727  0.5020
18796SOL    HW258066   0.647   5.691   2.706 -0.2039  0.3949  0.0543
18797SOL     OW58067   2.118   0.463   7.938 -0.1974  0.2538  0.0972
18797SOL    HW158068   2.179   0.390   7.949 -0.2539  0.1093 -0.5208
18797SOL    HW258069   2.041   0.424   7.897 -0.5229  0.5184  0.4633
18798SOL     OW58070   3.838   2.672   6.079  0.2234 -0.0957  0.2037
18798SOL    HW158071   3.864   2.612   6.148 -1.5732 -0.9697  0.1442
18798SOL    HW258072   3.771   2.728   6.120  0.2227  0.3486 -0.3989
18799SOL     OW58073   4.120   5.757   7.063 -0.4110 -0.7834  0.3115
18799SOL    HW158074   4.099   5.731   7.152 -1.2328 -1.5816 -0.1130
18799SOL    HW258075   4.122   5.675   7.014  4.9464 -0.9726  0.5474
18800SOL     OW58076   7.209   8.811   0.284 -0.0708  0.1900 -0.1701
18800SOL    HW158077   7.264   8.799   0.361 -1.3352  1.2418  0.9230
18800SOL    HW258078   7.122   8.830   0.319 -1.1919 -1.6276 -1.8644
18801SOL     OW58079   4.825   8.635   4.017 -0.2158  0.6133 -0.0916
18801SOL    HW158080   4.853   8.693   3.945  0.8393  1.6413  1.1290
18801SOL    HW258081   4.764   8.688   4.068 -0.2091  0.2151  0.3308
18802SOL     OW58082   3.778   2.085   1.989 -0.4649  0.2145 -0.4415
18802SOL    HW158083   3.727   2.165   2.001  0.3484  0.5722  0.7045
18802SOL    HW258084   3.868   2.112   2.006 -0.2415 -1.0484  0.3698
18803SOL     OW58085   1.240   7.079   1.454 -0.0785  0.0931  0.2553
18803SOL    HW158086   1.263   7.169   1.429 -1.0064  0.5063  0.8496
18803SOL    HW258087   1.321   7.030   1.445  0.1983  0.7737 -1.0879
18804SOL     OW58088   2.361   3.887   6.037 -0.2842 -0.2165 -0.2021
18804SOL    HW158089   2.410   3.964   6.008 -0.9474  0.9505  1.7203
18804SOL    HW258090   2.328   3.910   6.124 -0.6338 -2.6109  0.3415
18805SOL     OW58091   8.584   8.929   3.826 -0.2907  0.1602  0.0795
18805SOL    HW158092   8.531   8.919   3.746  0.1054 -0.6383 -0.0888
18805SOL    HW258093   8.520   8.950   3.894 -0.4064  3.0270 -0.8451
18806SOL     OW58094   0.752   3.277   2.965 -0.2804 -0.1330  0.3051
18806SOL    HW158095   0.721   3.191   2.937  1.7472 -1.2913  1.4810
18806SOL    HW258096   0.740   3.333   2.889 -0.4920 -1.7512 -0.8827
18807SOL     OW58097   4.347   1.021   8.360 -0.4039  0.4473 -0.1369
18807SOL    HW158098   4.341   1.045   8.268  0.7279 -4.1242 -1.5384
18807SOL    HW258099   4.440   1.032   8.382 -0.2969 -0.4244 -0.1444
18808SOL     OW58100   5.762   4.286   2.613  0.1485 -0.2675 -0.1522
18808SOL    HW158101   5.703   4.211   2.614 -0.2209  0.0228  0.3291
18808SOL    HW258102   5.845   4.253   2.648 -0.0158 -0.4436  0.0664
18809SOL     OW58103   1.691   2.641   7.253  0.1274  0.0208 -0.3055
18809SOL    HW158104   1.703   2.728   7.292 -0.0908 -0.0069 -0.1766
18809SOL    HW258105   1.597   2.636   7.236  0.2220  0.0294 -0.8278
18810SOL     OW58106   4.552   6.105   8.253  0.8595  0.1252 -0.5166
18810SOL    HW158107   4.572   6.131   8.163  1.0047 -2.0451 -1.1411
18810SOL    HW258108   4.549   6.009   8.251 -0.0227  0.0615  1.6073
18811SOL     OW58109   1.606   4.105   7.552 -0.0310 -0.5275  0.0113
18811SOL    HW158110   1.532   4.118   7.612  0.7958 -1.6966  1.3306
18811SOL    HW258111   1.675   4.161   7.587  0.2413 -0.7236 -0.2115
18812SOL     OW58112   8.508   5.533   6.380  0.0551 -0.1824  0.3078
18812SOL    HW158113   8.564   5.455   6.374  1.3138  0.7442 -0.4816
18812SOL    HW258114   8.570   5.607   6.376 -0.9129  0.8564  3.4469
18813SOL     OW58115   4.256   0.320   7.094 -0.3935  0.1590 -0.7732
18813SOL    HW158116   4.175   0.368   7.108 -0.4727  0.2284 -1.4242
18813SOL    HW258117   4.249   0.243   7.150 -0.4884  0.6470 -0.1059
18814SOL     OW58118   3.875   1.126   7.404  0.0480  0.2736 -0.2655
18814SOL    HW158119   3.881   1.046   7.351 -0.1741 -0.2498  0.4921
18814SOL    HW258120   3.868   1.094   7.494  0.4204  1.1588  0.0804
18815SOL     OW58121   0.270   8.900   8.643 -0.0905 -0.7171  0.6841
18815SOL    HW158122   0.185   8.858   8.657 -0.0441 -1.5041 -1.2761
18815SOL    HW258123   0.334   8.830   8.653  0.1790 -0.5676  0.0088
18816SOL     OW58124   5.580   2.777   6.394  0.3718 -0.2282 -0.3416
18816SOL    HW158125   5.538   2.852   6.354 -0.3058 -0.8246 -0.7634
18816SOL    HW258126   5.532   2.701   6.360  0.8134 -0.8292  0.3449
18817SOL     OW58127   4.786   0.937   8.692  0.5529  0.0282 -0.4215
18817SOL    HW158128   4.768   0.861   8.636 -0.0290 -0.1601  0.0115
18817SOL    HW258129   4.790   0.901   8.781  1.0427  0.3882 -0.2988
18818SOL     OW58130   1.699   6.869   5.649 -0.0493 -0.1289  0.1985
18818SOL    HW158131   1.699   6.777   5.620 -0.7027  0.0542 -0.4145
18818SOL    HW258132   1.752   6.914   5.584 -1.5518  0.2914 -0.7723
18819SOL     OW58133   0.084   4.752   7.829 -0.0843  0.2985  0.2618
18819SOL    HW158134   0.140   4.736   7.753 -2.5532 -1.4636 -1.2638
18819SOL    HW258135   0.096   4.675   7.885 -0.5487  0.2006  0.2260
18820SOL     OW58136   8.918   4.255   1.800 -0.5721 -0.4782  0.4768
18820SOL    HW158137   8.886   4.341   1.827  0.5950 -0.1787  0.9166
18820SOL    HW258138   8.943   4.212   1.882 -0.0286 -0.7792  0.1572
18821SOL     OW58139   4.831   3.898   7.115  0.3420  0.1665  1.0003
18821SOL    HW158140   4.802   3.888   7.205 -0.2520  0.8443  0.8893
18821SOL    HW258141   4.915   3.852   7.111  0.2537 -0.0673  1.8313
18822SOL     OW58142   7.663   2.397   0.653 -0.1186 -0.0078  0.5500
18822SOL    HW158143   7.581   2.440   0.629 -0.8195  0.4973  3.5487
18822SOL    HW258144   7.731   2.462   0.635 -0.3594 -0.4211 -1.9336
18823SOL     OW58145   7.472   2.004   9.076  0.9807  0.4011  0.1016
18823SOL    HW158146   7.430   2.079   9.035  0.1362  0.9589  1.9358
18823SOL    HW258147   7.566   2.026   9.077  0.9051  0.7467 -0.7486
18824SOL     OW58148   8.109   7.443   3.133 -0.2581  0.5776 -0.0765
18824SOL    HW158149   8.146   7.463   3.048 -0.1228  1.1693  0.1173
18824SOL    HW258150   8.139   7.514   3.190 -0.9187  0.5666  0.2970
18825SOL     OW58151   0.138   0.074   0.743  0.1339  0.1364 -0.1729
18825SOL    HW158152   0.098  -0.010   0.720  2.8485 -1.8850  2.1661
18825SOL    HW258153   0.105   0.092   0.831  0.0110  1.2372 -0.4452
18826SOL     OW58154   7.788   1.859   6.864  0.3522  0.1293  0.0011
18826SOL    HW158155   7.765   1.770   6.837  0.3256  0.6317 -1.6718
18826SOL    HW258156   7.878   1.871   6.831 -0.0789  1.1369 -0.8336
18827SOL     OW58157   6.595   5.478   4.420  0.4497 -0.3587  0.4617
18827SOL    HW158158   6.520   5.467   4.360  0.4373  0.3191  0.3488
18827SOL    HW258159   6.556   5.489   4.506  0.4079  0.2534  0.3663
18828SOL     OW58160   5.292   2.011   2.628  0.1333 -0.0868 -0.1073
18828SOL    HW158161   5.330   2.098   2.617 -1.2191  0.3699 -1.3074
18828SOL    HW258162   5.361   1.960   2.669  0.6557  1.7761  1.4393
18829SOL     OW58163   0.807   5.657   4.932  0.0082  0.4512 -0.4768
18829SOL    HW158164   0.853   5.594   4.988  0.3047  0.3502 -0.8382
18829SOL    HW258165   0.767   5.603   4.863  0.2886  0.6607 -0.8042
18830SOL     OW58166   4.110   8.588   7.881 -0.2945  0.1089  0.0513
18830SOL    HW158167   4.109   8.647   7.957 -1.1470  0.5416 -0.2799
18830SOL    HW258168   4.192   8.541   7.888  0.9212  2.1147 -0.2627
18831SOL     OW58169   6.956   6.510   7.169 -0.1173 -0.1022 -0.2681
18831SOL    HW158170   7.006   6.583   7.133 -0.8177  0.8002  0.5490
18831SOL    HW258171   6.958   6.443   7.101  1.7930  0.1017 -0.4249
18832SOL     OW58172   6.192   0.577   5.495 -0.4099  0.1109 -0.1373
18832SOL    HW158173   6.175   0.486   5.520 -1.6588  0.2582 -0.4293
18832SOL    HW258174   6.195   0.576   5.399 -0.2316  0.3455 -0.1355
18833SOL     OW58175   8.790   0.414   1.423  0.0382 -0.4474 -0.3912
18833SOL    HW158176   8.789   0.456   1.509 -1.0712 -2.2775  0.5290
18833SOL    HW258177   8.873   0.442   1.384  2.1839 -2.1726  2.6373
18834SOL     OW58178   5.277   1.627   2.916  0.6165  0.0484 -0.1019
18834SOL    HW158179   5.350   1.569   2.897  1.1403  0.7488 -0.2203
18834SOL    HW258180   5.309   1.715   2.895 -0.5564  0.2665 -1.0366
18835SOL     OW58181   3.036   3.802   5.318 -0.1914  0.5076 -0.2643
18835SOL    HW158182   2.947   3.770   5.333 -0.2043  0.3279 -0.7101
18835SOL    HW258183   3.086   3.725   5.290  0.0772  0.6271 -0.1165
18836SOL     OW58184   5.946   5.748   2.404 -0.1566 -1.0599 -0.5215
18836SOL    HW158185   5.978   5.788   2.485 -2.6682 -0.3133  0.1321
18836SOL    HW258186   6.016   5.766   2.340 -0.2132  2.4827  0.3132
18837SOL     OW58187   4.512   8.945   1.444  0.0250  0.4496 -0.0012
18837SOL    HW158188   4.492   9.024   1.493  1.5882  0.3779  0.7915
18837SOL    HW258189   4.581   8.972   1.383  1.8560 -0.6807  1.4963
18838SOL     OW58190   4.201   6.318   1.791  0.3447  0.3284  0.6175
18838SOL    HW158191   4.257   6.346   1.719  0.1538  1.8440  1.0454
18838SOL    HW258192   4.134   6.264   1.749  2.0997 -1.5039  0.1036
18839SOL     OW58193   7.745   6.238   5.337 -0.0086 -0.5613  0.4715
18839SOL    HW158194   7.653   6.262   5.322  0.5129  0.3227 -1.3763
18839SOL    HW258195   7.766   6.179   5.265  1.5799  1.1575 -0.5103
18840SOL     OW58196   0.250   8.019   4.735  0.4689 -0.0150  0.3831
18840SOL    HW158197   0.216   7.960   4.668  0.8623  1.1605 -0.8653
18840SOL    HW258198   0.177   8.077   4.756  0.3389 -0.3949  1.0054
18841SOL     OW58199   1.380   5.949   3.998 -0.3868  0.6350  0.8858
18841SOL    HW158200   1.463   5.978   4.034 -0.8439  1.8501  0.9902
18841SOL    HW258201   1.314   6.004   4.041 -1.1566  0.3735  0.0743
18842SOL     OW58202   8.840   2.522   6.801  0.8639  0.1761 -0.1317
18842SOL    HW158203   8.840   2.438   6.847  1.7950 -0.3745 -1.1200
18842SOL    HW258204   8.749   2.533   6.772  1.1656 -1.4942 -1.8063
18843SOL     OW58205   4.396   0.011   3.492 -0.6575  0.3615  0.3543
18843SOL    HW158206   4.354  -0.015   3.574  0.5033 -1.6008  0.3715
18843SOL    HW258207   4.392  -0.068   3.437  1.4680  0.6250 -0.2540
18844SOL     OW58208   5.170   6.714   8.734  0.0866 -0.4989  0.0159
18844SOL    HW158209   5.132   6.777   8.795  1.5002 -0.7924  1.2372
18844SOL    HW258210   5.159   6.629   8.777 -0.4497 -0.9091 -0.9301
18845SOL     OW58211   0.495   6.541   2.045  0.6401  0.2100  0.0416
18845SOL    HW158212   0.526   6.490   2.119  2.7363 -1.0525 -1.6508
18845SOL    HW258213   0.556   6.615   2.039 -0.8201  1.5195  0.8763
18846SOL     OW58214   3.292   4.305   5.686 -0.1708 -0.1156 -0.0867
18846SOL    HW158215   3.286   4.257   5.603  0.7014  0.0100 -0.2291
18846SOL    HW258216   3.232   4.378   5.676 -0.2227 -0.2167 -0.5299
18847SOL     OW58217   3.143   7.080   6.468 -0.7124  1.0422 -0.4591
18847SOL    HW158218   3.102   7.158   6.433 -2.4094  0.6969  0.6950
18847SOL    HW258219   3.082   7.049   6.535  1.3018  0.3444  1.0873
18848SOL     OW58220   4.552   5.146   4.613 -0.5301 -0.0674  0.4821
18848SOL    HW158221   4.494   5.099   4.673 -0.7438 -0.6398 -0.1610
18848SOL    HW258222   4.586   5.078   4.555  0.5021  0.3159  0.6168
18849SOL     OW58223   0.930   8.971   0.084 -0.3837 -0.3168  0.1819
18849SOL    HW158224   0.884   9.048   0.051  0.8111 -0.1809 -1.2122
18849SOL    HW258225   0.907   8.967   0.177 -1.0356  1.2897  0.1040
18850SOL     OW58226   3.490   8.476   5.143 -0.5398  0.2471  0.7399
18850SOL    HW158227   3.554   8.538   5.178 -2.3706  1.3670  2.1914
18850SOL    HW258228   3.467   8.421   5.217 -0.7926 -0.5688  0.0626
18851SOL     OW58229   2.341   5.884   3.147 -0.0852  0.0343  0.6970
18851SOL    HW158230   2.435   5.891   3.166 -0.0107 -0.5192  0.5283
18851SOL    HW258231   2.302   5.960   3.190  0.5626  0.7681  0.0031
18852SOL     OW58232   5.396   3.758   6.514 -0.1885  0.6319 -0.2621
18852SOL    HW158233   5.320   3.815   6.518 -0.1589  0.6414  0.2552
18852SOL    HW258234   5.391   3.707   6.595 -0.8234 -0.8683 -1.2246
18853SOL     OW58235   3.459   8.124   8.072  0.6777  0.2474 -0.4202
18853SOL    HW158236   3.508   8.197   8.110  2.3866 -0.0910 -1.9105
18853SOL    HW258237   3.411   8.163   7.999  1.3583 -0.0373 -1.0299
18854SOL     OW58238   8.361   1.991   2.193 -0.0160 -0.0630 -0.4243
18854SOL    HW158239   8.424   1.929   2.228 -0.3811 -1.0491 -1.4707
18854SOL    HW258240   8.406   2.029   2.117 -0.1087  0.3373 -0.2778
18855SOL     OW58241   3.324   2.331   4.345  0.1754 -0.0290 -0.6084
18855SOL    HW158242   3.342   2.281   4.265 -0.6127 -0.7538 -0.3417
18855SOL    HW258243   3.322   2.422   4.316  1.3731 -0.1621 -1.1442
18856SOL     OW58244   1.223   4.365   7.283  0.3465  0.5551  0.3882
18856SOL    HW158245   1.215   4.364   7.378  2.3755 -1.0595  0.5686
18856SOL    HW258246   1.154   4.424   7.254 -0.3508  1.0018  2.8519
18857SOL     OW58247   6.002   5.924   1.300  0.3870  0.3655  0.1225
18857SOL    HW158248   5.949   5.983   1.353  1.2888  0.1474  1.2877
18857SOL    HW258249   5.981   5.948   1.209  0.7694  2.5230  0.5663
18858SOL     OW58250   6.135   5.910   2.287  0.1673 -0.5047  0.0060
18858SOL    HW158251   6.172   5.953   2.210  1.6483 -0.6046  0.6355
18858SOL    HW258252   6.196   5.933   2.358  0.7772 -3.3098  0.4310
18859SOL     OW58253   6.038   3.928   8.113 -0.0828  0.3300 -0.3719
18859SOL    HW158254   6.124   3.959   8.141  0.1212  0.3362 -1.0052
18859SOL    HW258255   5.976   3.973   8.171  0.3975 -0.4619  0.7778
18860SOL     OW58256   7.245   2.825   5.369 -0.6140 -0.5573  0.9365
18860SOL    HW158257   7.283   2.747   5.330  0.7228  1.3173 -1.6137
18860SOL    HW258258   7.296   2.839   5.449  2.3181  0.3678 -1.0365
18861SOL     OW58259   3.034   1.771   3.241 -0.1166  0.6344 -0.1564
18861SOL    HW158260   2.987   1.714   3.303  1.8059 -0.2780  0.5061
18861SOL    HW258261   3.062   1.846   3.294  0.4201  0.4817 -0.2271
18862SOL     OW58262   5.955   7.651   1.262  0.4628 -0.4792  0.0239
18862SOL    HW158263   5.916   7.735   1.238  1.4493  0.0870  0.3969
18862SOL    HW258264   5.933   7.640   1.355  1.2658 -0.1041  0.2662
18863SOL     OW58265   8.912   5.832   4.262 -0.3568  0.1325  0.1877
18863SOL    HW158266   8.846   5.815   4.194  0.5820  0.8931 -0.9334
18863SOL    HW258267   8.940   5.745   4.291 -4.2860 -0.2905  3.1292
18864SOL     OW58268   7.027   0.347   1.726  0.7561  0.1513  0.0261
18864SOL    HW158269   7.028   0.356   1.821 -1.0256  0.8057 -0.0027
18864SOL    HW258270   7.016   0.437   1.693  0.9575 -0.1133 -0.7832
18865SOL     OW58271   4.743   6.860   4.291 -0.3829 -0.1054  0.4256
18865SOL    HW158272   4.723   6.768   4.303  0.6137 -0.1757  1.6917
18865SOL    HW258273   4.741   6.897   4.379  1.5503  0.5789  0.2176
18866SOL     OW58274   8.197   5.621   5.348 -0.4577 -0.3699 -0.2441
18866SOL    HW158275   8.232   5.572   5.273 -2.5045 -2.1664 -0.1069
18866SOL    HW258276   8.106   5.637   5.325 -0.6986  0.4243  1.2062
18867SOL     OW58277   0.125   0.353   5.833 -0.1024  0.6007 -0.4035
18867SOL    HW158278   0.119   0.444   5.805  0.1155  0.6371 -0.3371
18867SOL    HW258279   0.105   0.355   5.926 -0.7278  0.4938 -0.5336
18868SOL     OW58280   9.130   0.494   6.399  0.1571 -0.2477  0.0556
18868SOL    HW158281   9.072   0.438   6.346  1.2915 -0.6257 -0.8044
18868SOL    HW258282   9.172   0.551   6.335  1.2703 -0.4619  0.5867
18869SOL     OW58283   3.688   2.880   5.773  0.1955  0.4529 -0.1859
18869SOL    HW158284   3.624   2.849   5.710 -1.3914 -1.0939  2.1097
18869SOL    HW258285   3.679   2.976   5.772 -1.7880  0.2738 -0.2456
18870SOL     OW58286   0.658   6.540   6.937  0.4275 -0.2901 -0.2868
18870SOL    HW158287   0.660   6.519   6.843  0.6225 -1.3169 -0.0600
18870SOL    HW258288   0.734   6.596   6.951 -0.3058  0.8955 -0.9779
18871SOL     OW58289   3.482   7.425   5.963  0.3046  0.2216  0.5530
18871SOL    HW158290   3.403   7.443   6.014  0.8609  1.6186  0.9406
18871SOL    HW258291   3.482   7.330   5.953 -2.3300  0.3261 -0.9293
18872SOL     OW58292   1.501   2.406   9.242  0.6733  0.3792  0.2791
18872SOL    HW158293   1.421   2.423   9.291  2.3502  1.9776  2.5986
18872SOL    HW258294   1.483   2.436   9.154 -1.0817  1.2727  0.9319
18873SOL     OW58295   8.696   7.292   4.649 -1.3515  0.8965 -0.3541
18873SOL    HW158296   8.777   7.243   4.633 -4.0281 -3.8701 -0.2310
18873SOL    HW258297   8.705   7.372   4.596  1.9018 -1.1938 -3.1540
18874SOL     OW58298   7.153   4.465   4.197  0.0766 -0.2234 -0.5173
18874SOL    HW158299   7.063   4.484   4.172  1.0080  1.3491 -2.8329
18874SOL    HW258300   7.173   4.382   4.155  0.3901  0.5092 -1.8378
18875SOL     OW58301   8.061   4.103   2.682 -0.0519  0.1317  0.1212
18875SOL    HW158302   8.153   4.093   2.707 -0.4568 -0.3828  1.4288
18875SOL    HW258303   8.047   4.197   2.680 -0.3027  0.1854  2.9825
18876SOL     OW58304   4.770   8.107   0.595 -0.0514 -0.5252 -0.3232
18876SOL    HW158305   4.730   8.023   0.573 -1.2074  0.4164 -1.9328
18876SOL    HW258306   4.780   8.105   0.690 -0.1913 -2.4198 -0.3371
18877SOL     OW58307   6.099   2.931   1.225 -0.9388  0.2986 -0.4566
18877SOL    HW158308   6.194   2.943   1.226 -0.7299 -1.2938  0.1881
18877SOL    HW258309   6.066   2.995   1.287 -0.3232  1.1147 -0.9593
18878SOL     OW58310   8.909   5.593   4.483  0.0218  0.3795  0.8640
18878SOL    HW158311   8.930   5.541   4.561 -0.2802  0.5878  1.0864
18878SOL    HW258312   8.882   5.528   4.418  0.2342  0.2077  0.9482
18879SOL     OW58313   5.805   5.273   8.290  0.6543  0.0179  0.9853
18879SOL    HW158314   5.828   5.261   8.198 -2.5992 -0.6421  0.1867
18879SOL    HW258315   5.729   5.331   8.289  0.5220 -0.0589  3.2525
18880SOL     OW58316   0.747   0.426   3.307 -0.6364 -0.2030  0.5853
18880SOL    HW158317   0.693   0.351   3.330 -0.0169 -0.1750  2.1998
18880SOL    HW258318   0.725   0.492   3.373 -1.1438  1.0188 -0.7840
18881SOL     OW58319   4.513   6.549   7.317 -0.0953  0.2553  0.3649
18881SOL    HW158320   4.567   6.470   7.311 -1.1475 -0.3990 -0.8109
18881SOL    HW258321   4.575   6.620   7.332  1.0016 -0.5997 -0.0666
18882SOL     OW58322   1.264   3.377   0.644 -0.0978 -0.1550 -0.5310
18882SOL    HW158323   1.219   3.457   0.619  0.4337  0.0016 -0.9916
18882SOL    HW258324   1.220   3.348   0.724 -0.0825  0.7603 -0.1931
18883SOL     OW58325   4.955   4.055   4.686 -0.2855 -0.5515  0.4786
18883SOL    HW158326   4.907   3.974   4.706  2.3418 -2.4933 -0.6726
18883SOL    HW258327   5.032   4.052   4.742 -0.1193  1.1198  0.3557
18884SOL     OW58328   6.128   6.286   2.224  0.0201 -0.2577  0.7535
18884SOL    HW158329   6.143   6.245   2.139  1.3515 -0.3735  1.0181
18884SOL    HW258330   6.208   6.267   2.273 -0.3290  0.6469  1.6854
18885SOL     OW58331   5.730   7.706   5.834  0.2648 -0.4796  0.0908
18885SOL    HW158332   5.678   7.651   5.892 -0.3698 -0.1800 -0.1819
18885SOL    HW258333   5.665   7.746   5.775  0.8075 -0.1129 -0.2613
18886SOL     OW58334   6.639   5.604   6.868  0.4126  0.7311  0.8501
18886SOL    HW158335   6.675   5.663   6.801  1.0728  0.5266  1.0212
18886SOL    HW258336   6.670   5.641   6.951  0.5657  0.3185  0.9760
18887SOL     OW58337   5.799   3.003   0.020 -0.1439  0.6278 -0.1230
18887SOL    HW158338   5.812   3.060   0.096 -0.9135  2.8140 -1.5777
18887SOL    HW258339   5.879   3.013  -0.031  0.5574 -1.1805  0.5995
18888SOL     OW58340   4.960   9.027   2.916  0.2453 -0.1589  0.4173
18888SOL    HW158341   5.019   8.989   2.982  0.2165  0.5912  0.8803
18888SOL    HW258342   4.913   9.095   2.963 -0.9292 -0.6895  0.0133
18889SOL     OW58343   3.259   4.888   6.974 -0.6455 -0.3006 -0.3752
18889SOL    HW158344   3.252   4.930   6.889 -1.4249 -0.7567 -0.5400
18889SOL    HW258345   3.168   4.880   7.005 -0.4405 -0.9867  0.0764
18890SOL     OW58346   6.512   1.328   8.123 -0.0355 -0.1053 -0.5813
18890SOL    HW158347   6.473   1.390   8.062 -0.5076 -0.3815 -0.5622
18890SOL    HW258348   6.467   1.343   8.206 -1.1276 -1.3991 -0.9123
18891SOL     OW58349   9.144   2.180   0.272  0.3795  0.0935  0.0528
18891SOL    HW158350   9.093   2.245   0.223  0.5809  0.2114  0.0013
18891SOL    HW258351   9.151   2.216   0.360 -1.6813 -1.0291  0.7270
18892SOL     OW58352   2.047   0.551   8.393 -0.5072  0.0561  0.1545
18892SOL    HW158353   2.125   0.563   8.447 -1.1836  0.3062  1.0810
18892SOL    HW258354   1.980   0.520   8.454 -1.0549 -0.4613 -0.6944
18893SOL     OW58355   2.427   1.207   4.587  0.0164 -0.0025  0.3601
18893SOL    HW158356   2.367   1.282   4.589 -0.2817 -0.2408  0.4732
18893SOL    HW258357   2.369   1.131   4.582  0.3590 -0.1429 -2.0089
18894SOL     OW58358   3.844   1.261   2.298  0.1608 -0.3656 -0.2163
18894SOL    HW158359   3.819   1.241   2.388  1.6062 -3.8628 -0.5114
18894SOL    HW258360   3.938   1.244   2.295  0.0459 -0.6993 -2.4913
18895SOL     OW58361   4.234   1.428   6.206  0.0231  0.2343  0.0240
18895SOL    HW158362   4.322   1.461   6.192  0.5203 -0.4588  1.3734
18895SOL    HW258363   4.183   1.462   6.133  1.7121 -0.5142 -1.5289
18896SOL     OW58364   1.731   7.952   7.888  0.3093 -0.6508  0.2088
18896SOL    HW158365   1.649   7.960   7.838  1.2374 -0.0232 -1.2347
18896SOL    HW258366   1.758   7.861   7.873  0.4025 -0.5669 -0.1370
18897SOL     OW58367   9.124   8.828   7.859  0.5406  0.0670 -0.1023
18897SOL    HW158368   9.174   8.870   7.789  2.6480  0.9192  1.8429
18897SOL    HW258369   9.190   8.784   7.912 -1.2896 -2.7357 -0.0738
18898SOL     OW58370   5.512   3.206   8.484 -0.1778 -0.1736  0.2030
18898SOL    HW158371   5.552   3.173   8.565 -2.1370  1.1489  1.7517
18898SOL    HW258372   5.547   3.294   8.474  0.3287 -0.4585 -0.6136
18899SOL     OW58373   0.915   8.554   5.352 -0.4781  0.0812  0.4280
18899SOL    HW158374   0.900   8.581   5.442 -1.1443 -0.0809  0.3711
18899SOL    HW258375   0.897   8.459   5.352 -0.6870  0.1169  0.0889
18900SOL     OW58376   7.521   5.974   4.634 -0.6499 -0.3009  0.2505
18900SOL    HW158377   7.557   5.904   4.579  1.7653 -1.8565  3.6531
18900SOL    HW258378   7.594   6.036   4.645 -0.3983 -1.0769  3.3397
18901SOL     OW58379   2.921   0.403   3.532  0.4286 -0.7284 -0.4528
18901SOL    HW158380   2.955   0.315   3.549  0.9942  0.0115  2.4937
18901SOL    HW258381   2.864   0.421   3.606 -0.6712  0.9101 -1.6785
18902SOL     OW58382   5.491   2.410   8.336 -0.1040  0.1747 -0.1551
18902SOL    HW158383   5.569   2.418   8.280  0.8133  0.0196  1.0694
18902SOL    HW258384   5.481   2.497   8.376 -1.0324  0.4203 -0.9183
18903SOL     OW58385   3.206   3.922   4.023 -0.1578  0.3855 -0.1769
18903SOL    HW158386   3.272   3.953   3.961 -0.2042 -0.9450 -0.9158
18903SOL    HW258387   3.252   3.914   4.106  0.9745 -1.7508 -0.9605
18904SOL     OW58388   0.781   2.378   4.561 -0.0704  0.2811 -0.2875
18904SOL    HW158389   0.808   2.367   4.652 -1.0989  0.2664  0.0297
18904SOL    HW258390   0.686   2.388   4.566 -0.1228  0.3533 -1.3554
18905SOL     OW58391   6.571   8.318   0.721 -0.3763  0.1533 -0.0375
18905SOL    HW158392   6.502   8.372   0.759 -0.8820  0.6138 -1.5490
18905SOL    HW258393   6.542   8.228   0.737 -0.4048  0.3377  0.9520
18906SOL     OW58394   2.096   3.225   6.163 -0.1304  0.3843 -0.4363
18906SOL    HW158395   2.129   3.200   6.076 -1.4431 -1.6763 -0.3680
18906SOL    HW258396   2.118   3.150   6.219 -1.7263  0.5295  0.3988
18907SOL     OW58397   8.378   8.151   0.716  0.3161 -0.3231  0.2869
18907SOL    HW158398   8.362   8.158   0.810  1.5416  0.7453  0.4277
18907SOL    HW258399   8.325   8.221   0.678 -1.3163 -1.6752  0.0327
18908SOL     OW58400   1.096   3.894   4.810 -0.0029 -0.5259 -0.1667
18908SOL    HW158401   1.136   3.861   4.890  2.0698  0.3189 -0.8227
18908SOL    HW258402   1.068   3.982   4.832 -3.4123 -1.8036  0.8881
18909SOL     OW58403   0.989   5.789   3.856  0.3970 -0.3062  0.1778
18909SOL    HW158404   1.078   5.803   3.822  0.2367  0.9862  0.2770
18909SOL    HW258405   0.935   5.852   3.809 -0.3910 -0.7722  0.4580
18910SOL     OW58406   0.043   7.239   4.272  0.9118 -0.1511  0.2567
18910SOL    HW158407   0.029   7.301   4.343  2.2755  0.4302  0.0316
18910SOL    HW258408   0.044   7.153   4.315 -1.1172 -0.0525  0.5457
18911SOL     OW58409   2.137   7.176   8.096 -0.1617  0.1315  0.2352
18911SOL    HW158410   2.116   7.195   8.187  0.2373 -0.9842  0.5612
18911SOL    HW258411   2.052   7.170   8.052 -0.3307  1.4765  0.3600
18912SOL     OW58412   0.349   0.657   6.203 -0.6265 -0.2459 -0.7727
18912SOL    HW158413   0.426   0.621   6.161 -0.1271  0.5684 -0.5717
18912SOL    HW258414   0.374   0.666   6.295 -1.2520 -0.7760 -0.5467
18913SOL     OW58415   1.502   7.689   6.248 -0.1371 -0.2265  0.0819
18913SOL    HW158416   1.528   7.658   6.334  1.5393  1.6568  0.2854
18913SOL    HW258417   1.510   7.612   6.191  2.5360 -0.5621  0.8465
18914SOL     OW58418   9.024   6.259   5.115  0.1221  0.0467 -0.5048
18914SOL    HW158419   9.106   6.307   5.108  0.5597 -0.7411 -0.8297
18914SOL    HW258420   9.036   6.201   5.190 -0.7600  1.1117  0.4882
18915SOL     OW58421   9.081   4.292   0.279 -0.4862 -0.2305 -0.2402
18915SOL    HW158422   9.087   4.198   0.260 -1.9279 -0.5302  0.7169
18915SOL    HW258423   9.068   4.296   0.373  0.1935  0.9698 -0.1936
18916SOL     OW58424   5.335   8.536   3.716 -0.2272  0.0528 -0.4414
18916SOL    HW158425   5.290   8.452   3.711  2.1119 -1.2909  0.5371
18916SOL    HW258426   5.366   8.542   3.806 -1.1352  2.3872 -0.2613
18917SOL     OW58427   2.122   2.929   7.604  0.2607  0.1380 -0.7188
18917SOL    HW158428   2.165   2.987   7.540  0.2485  0.2042 -0.6668
18917SOL    HW258429   2.184   2.925   7.677  0.9075 -1.0429 -1.3176
18918SOL     OW58430   2.986   7.606   1.370  0.3370  0.1036  0.1768
18918SOL    HW158431   2.943   7.691   1.369  0.8221  0.3419 -0.7172
18918SOL    HW258432   3.009   7.592   1.462 -3.1392 -0.8016  0.9902
18919SOL     OW58433   3.123   2.121   6.906 -0.5656  0.0559  0.1711
18919SOL    HW158434   3.106   2.215   6.914  0.3138  0.4156 -1.7481
18919SOL    HW258435   3.101   2.101   6.816  1.8264 -0.9888 -0.2269
18920SOL     OW58436   6.420   6.682   5.149  0.0043  0.0248 -0.0223
18920SOL    HW158437   6.467   6.764   5.133  1.6793 -1.1289 -1.2300
18920SOL    HW258438   6.328   6.707   5.151  0.5010  1.9582 -0.2320
18921SOL     OW58439   6.244   6.439   5.616 -0.0065  0.6575  0.5683
18921SOL    HW158440   6.256   6.348   5.643  0.4064  0.6201  0.2622
18921SOL    HW258441   6.305   6.451   5.543 -0.3842  1.0489  0.3116
18922SOL     OW58442   3.927   1.540   2.007 -0.2518  0.1678 -0.8046
18922SOL    HW158443   3.929   1.445   1.995  0.7310  0.1937 -0.8921
18922SOL    HW258444   4.014   1.569   1.980  0.5526  0.7157  2.1794
18923SOL     OW58445   0.238   7.229   2.619  0.0188  0.2572 -0.1836
18923SOL    HW158446   0.292   7.150   2.620  0.6052  0.6379  1.8684
18923SOL    HW258447   0.301   7.301   2.628 -0.7392  0.7429  1.4666
18924SOL     OW58448   0.412   0.159   4.502  0.1675  0.3115  0.0788
18924SOL    HW158449   0.367   0.156   4.586  1.4428 -1.0202  0.7493
18924SOL    HW258450   0.492   0.109   4.516  0.6846  0.5728 -1.7649
18925SOL     OW58451   1.838   3.721   7.228  0.1490 -0.2042 -0.5241
18925SOL    HW158452   1.928   3.749   7.246  1.3335 -2.9549 -1.7390
18925SOL    HW258453   1.819   3.657   7.297 -0.6666 -0.0419 -0.5951
18926SOL     OW58454   4.913   4.320   7.574  0.2318 -0.4000 -0.1910
18926SOL    HW158455   4.976   4.310   7.503  1.4041  1.0930  0.6100
18926SOL    HW258456   4.951   4.272   7.647  0.1314 -0.0357  0.1034
18927SOL     OW58457   7.957   4.821   3.776  0.3346  0.0743  0.1830
18927SOL    HW158458   7.979   4.884   3.708  0.8893  0.3373  0.6070
18927SOL    HW258459   7.873   4.851   3.811 -0.6734 -0.8821 -1.3739
18928SOL     OW58460   5.313   4.691   4.209 -0.1822  0.2077  0.2245
18928SOL    HW158461   5.299   4.777   4.248  0.7124 -0.1217  1.2813
18928SOL    HW258462   5.301   4.705   4.115 -1.4405  1.1904  0.5197
18929SOL     OW58463   2.066   6.913   1.273 -0.4760 -0.2655 -0.2514
18929SOL    HW158464   2.058   6.911   1.178 -1.4415 -0.6861 -0.1644
18929SOL    HW258465   1.981   6.885   1.305 -0.2596  0.1959  0.7433
18930SOL     OW58466   3.959   0.570   2.158  0.4623  0.1101  0.8083
18930SOL    HW158467   4.005   0.579   2.241 -0.9801  0.8713  1.5393
18930SOL    HW258468   3.931   0.478   2.156  1.0854 -0.0860  0.8355
18931SOL     OW58469   5.599   2.214   2.035 -0.0250 -0.1951 -0.0376
18931SOL    HW158470   5.604   2.171   1.950 -1.0669  0.0165 -0.2152
18931SOL    HW258471   5.615   2.144   2.098  1.6889 -0.1650 -0.4326
18932SOL     OW58472   7.709   4.932   2.688  0.0929  0.2237  0.1309
18932SOL    HW158473   7.794   4.975   2.699 -0.0027  1.1708 -2.5233
18932SOL    HW258474   7.729   4.839   2.680  0.7026  0.2473  1.2808
18933SOL     OW58475   8.849   8.547   9.020 -0.6522 -0.4557 -0.0274
18933SOL    HW158476   8.862   8.506   8.935 -1.2309 -1.1376  0.2120
18933SOL    HW258477   8.912   8.620   9.022 -0.4553 -0.6055 -0.9228
18934SOL     OW58478   6.877   0.138   1.961  0.5042 -0.1099  0.0432
18934SOL    HW158479   6.800   0.154   2.017  0.7575  0.9220  0.1050
18934SOL    HW258480   6.947   0.190   2.002  1.7175 -2.4340  1.0224
18935SOL     OW58481   3.341   3.823   4.744 -0.2912  0.3463 -0.0017
18935SOL    HW158482   3.332   3.827   4.648  0.1718 -1.0577 -0.1051
18935SOL    HW258483   3.425   3.866   4.761 -0.3966  0.6454 -0.2163
18936SOL     OW58484   8.888   7.809   7.203 -0.1523 -0.2360 -0.0794
18936SOL    HW158485   8.887   7.813   7.107  0.0196 -0.2192 -0.0828
18936SOL    HW258486   8.818   7.868   7.231  2.6554  3.2852 -0.1134
18937SOL     OW58487   0.447   3.459   1.141 -0.2545  0.3847  0.2139
18937SOL    HW158488   0.448   3.546   1.180 -1.1403  0.5621 -0.1575
18937SOL    HW258489   0.452   3.399   1.216 -0.0729  0.7466  0.4915
18938SOL     OW58490   8.131   1.782   4.015  0.6067  0.5904 -0.2170
18938SOL    HW158491   8.118   1.822   3.929  1.7434  0.2710 -0.5539
18938SOL    HW258492   8.140   1.855   4.075  1.6707  0.8344 -0.6684
18939SOL     OW58493   6.021   4.215   5.008  0.0797  0.5742  0.2075
18939SOL    HW158494   5.946   4.265   4.976  0.2012 -0.4033 -1.6644
18939SOL    HW258495   5.986   4.128   5.027  0.4671  0.5028  0.6081
18940SOL     OW58496   3.603   4.033   5.313  0.1682  0.1839  0.0626
18940SOL    HW158497   3.612   4.096   5.241 -0.1728 -0.2359 -0.3540
18940SOL    HW258498   3.524   3.984   5.291  1.5173 -1.7180 -0.6632
18941SOL     OW58499   8.641   9.239   4.808 -0.3564  0.7083  0.3322
18941SOL    HW158500   8.679   9.183   4.874  2.1127 -0.7468 -2.2170
18941SOL    HW258501   8.569   9.188   4.771  0.7174 -0.0780 -0.7139
18942SOL     OW58502   4.641   9.237   1.382  0.0271  0.1589  0.7655
18942SOL    HW158503   4.703   9.194   1.323  0.4838  3.0219 -0.9640
18942SOL    HW258504   4.557   9.231   1.337  0.0615  0.8637  0.5923
18943SOL     OW58505   7.888   9.060   1.119  0.2485 -0.5117  0.4925
18943SOL    HW158506   7.908   9.081   1.210  0.3300 -0.1632  0.3931
18943SOL    HW258507   7.927   8.974   1.105  0.1587 -0.6044  0.8136
18944SOL     OW58508   9.102   7.266   1.264 -0.4995  0.0312 -0.2001
18944SOL    HW158509   9.173   7.206   1.285  0.5085  0.8422 -1.2319
18944SOL    HW258510   9.032   7.242   1.324  1.0187 -0.0870  1.5496
18945SOL     OW58511   0.636   0.562   3.527 -0.6932  0.4115 -0.2592
18945SOL    HW158512   0.684   0.486   3.560 -1.5068 -0.4236 -0.9327
18945SOL    HW258513   0.544   0.538   3.538 -0.9611  1.5671  0.0939
18946SOL     OW58514   1.952   0.379   9.095  0.7185  0.5091 -0.3376
18946SOL    HW158515   1.958   0.347   9.185  0.6475  2.5193  0.4007
18946SOL    HW258516   2.043   0.381   9.064  0.5626 -2.2953 -1.1024
18947SOL     OW58517   3.423   9.026   9.034 -0.1656 -0.4181 -0.0012
18947SOL    HW158518   3.393   9.108   9.072  1.7473 -0.5424  1.8408
18947SOL    HW258519   3.404   9.035   8.940  1.2698  2.6976 -0.0644
18948SOL     OW58520   3.094   8.667   2.154 -0.4783 -0.3562  0.0062
18948SOL    HW158521   3.056   8.581   2.170  0.4306 -0.8056 -0.2657
18948SOL    HW258522   3.179   8.650   2.114  0.8023  0.6255  2.2459
18949SOL     OW58523   4.823   3.707   6.632 -0.3802 -0.1135 -0.1081
18949SOL    HW158524   4.808   3.662   6.715  1.5277 -2.5595 -1.0155
18949SOL    HW258525   4.856   3.793   6.656 -0.9904 -0.3595  1.6549
18950SOL     OW58526   5.310   5.126   5.984  0.9855 -0.3423 -0.2613
18950SOL    HW158527   5.382   5.074   6.021  2.0128 -0.0470 -1.7553
18950SOL    HW258528   5.332   5.132   5.890  0.0936  1.4968 -0.3699
18951SOL     OW58529   3.451   1.793   5.759 -0.0860 -0.1781 -0.3105
18951SOL    HW158530   3.511   1.724   5.730  0.0822  0.1423 -0.7192
18951SOL    HW258531   3.495   1.833   5.834 -0.5702 -1.0774  0.4762
18952SOL     OW58532   2.850   8.650   7.333 -0.7607  0.1688 -0.2389
18952SOL    HW158533   2.930   8.601   7.348 -0.5243  0.2984 -1.0797
18952SOL    HW258534   2.780   8.585   7.339 -0.3410 -0.5528 -2.8165
18953SOL     OW58535   1.291   6.124   1.125 -0.0648  0.0694 -0.6760
18953SOL    HW158536   1.356   6.194   1.123  0.5762 -0.4034  1.9433
18953SOL    HW258537   1.207   6.170   1.113  0.3872  1.2531  0.5031
18954SOL     OW58538   6.779   9.161   3.933 -0.5223 -0.4353 -0.5365
18954SOL    HW158539   6.757   9.198   4.019  0.7010 -0.7346 -0.0911
18954SOL    HW258540   6.752   9.229   3.871  0.4055  0.6397  0.1980
18955SOL     OW58541   7.180   2.195   1.092  0.0643 -0.0273  0.3443
18955SOL    HW158542   7.174   2.128   1.024  2.5292  0.2750 -0.1926
18955SOL    HW258543   7.160   2.277   1.047  1.1078  0.0974  0.0960
18956SOL     OW58544   3.183   9.037   1.681 -0.5735  0.1758 -0.9951
18956SOL    HW158545   3.267   9.009   1.644  0.1534  1.4013 -0.3112
18956SOL    HW258546   3.145   9.093   1.614  0.1646  1.3742 -0.4277
18957SOL     OW58547   6.386   9.031   3.257 -0.3917 -0.4647  0.3731
18957SOL    HW158548   6.295   9.007   3.276 -0.2920 -2.3219 -1.2796
18957SOL    HW258549   6.385   9.125   3.244 -2.2752 -0.6181 -0.6323
18958SOL     OW58550   2.696   7.870   2.841  0.1098  0.3678 -0.2278
18958SOL    HW158551   2.721   7.861   2.933  2.0542 -0.2647 -0.7925
18958SOL    HW258552   2.608   7.834   2.837 -0.3494  1.2178  1.5529
18959SOL     OW58553   1.953   1.936   4.562  0.0553 -0.2037 -0.0941
18959SOL    HW158554   1.995   1.932   4.476 -2.2483 -0.0582 -1.2605
18959SOL    HW258555   1.903   1.855   4.569 -0.2749  0.0666  0.8485
18960SOL     OW58556   6.284   1.167   0.678 -0.2254  0.0746 -0.1326
18960SOL    HW158557   6.304   1.195   0.589 -1.8419 -4.1277 -1.9567
18960SOL    HW258558   6.208   1.220   0.703  0.3437  1.4072 -1.1868
18961SOL     OW58559   8.829   3.153   1.224  0.0225  0.5118  0.2912
18961SOL    HW158560   8.734   3.153   1.233 -0.1255  0.0458 -1.1203
18961SOL    HW258561   8.848   3.230   1.170  0.3505  0.1214 -0.1610
18962SOL     OW58562   3.020   1.537   4.351 -0.0803  0.8792 -0.1500
18962SOL    HW158563   2.942   1.530   4.295 -0.2334 -1.1281  0.2763
18962SOL    HW258564   3.031   1.449   4.387  2.9820  0.8643 -1.0089
18963SOL     OW58565   3.337   0.298   9.240 -0.5152 -0.0498  0.5043
18963SOL    HW158566   3.300   0.366   9.296  1.1379  1.2165  0.0824
18963SOL    HW258567   3.344   0.338   9.154 -1.7156 -1.5304 -0.3176
18964SOL     OW58568   7.924   1.458   6.561  0.1338 -0.1123  0.5644
18964SOL    HW158569   7.952   1.429   6.474 -0.0658 -0.9590  0.7758
18964SOL    HW258570   7.985   1.415   6.621 -0.6079 -0.6611  0.9268
18965SOL     OW58571   1.950   2.629   7.783 -0.9493  0.6478 -0.0843
18965SOL    HW158572   1.906   2.566   7.840 -0.8586  2.0057  1.5126
18965SOL    HW258573   2.024   2.661   7.834 -2.0029  3.3613 -0.1469
18966SOL     OW58574   0.588   3.461   5.289 -0.4777 -0.1624  0.1393
18966SOL    HW158575   0.574   3.404   5.365 -1.0268  0.0352  0.1873
18966SOL    HW258576   0.626   3.541   5.326  2.3472 -1.2852 -0.1624
18967SOL     OW58577   1.413   7.305   8.539 -0.2691 -0.2863  0.2830
18967SOL    HW158578   1.495   7.316   8.588 -0.1218  0.1313 -0.0555
18967SOL    HW258579   1.347   7.348   8.593  0.1631  1.5581 -0.6383
18968SOL     OW58580   5.678   5.181   3.749  0.4767  0.1242  0.1531
18968SOL    HW158581   5.680   5.181   3.653  1.2775 -0.0276  0.1701
18968SOL    HW258582   5.770   5.183   3.775  0.2442  2.3963  0.9293
18969SOL     OW58583   1.957   0.539   3.495  0.2606 -0.9283  0.0980
18969SOL    HW158584   2.009   0.605   3.449 -0.1269 -0.0593  0.8871
18969SOL    HW258585   1.999   0.456   3.474  1.7984 -0.2639  0.5287
18970SOL     OW58586   8.381   7.011   4.760 -0.4328 -0.7598  0.4140
18970SOL    HW158587   8.421   7.081   4.812 -0.5685  0.4541 -1.0745
18970SOL    HW258588   8.287   7.027   4.767 -0.4133  0.2477 -1.2946
18971SOL     OW58589   6.257   1.969   2.145  0.2750 -0.2747  0.1998
18971SOL    HW158590   6.241   2.015   2.228  0.7931 -0.9537  0.6885
18971SOL    HW258591   6.302   1.888   2.171 -0.0123 -0.7343 -0.7043
18972SOL     OW58592   7.905   2.570   8.329  0.4146 -0.1195 -0.8571
18972SOL    HW158593   7.980   2.601   8.279 -1.2656  3.0316 -1.5467
18972SOL    HW258594   7.843   2.539   8.263 -0.2678  0.4791 -0.5021
18973SOL     OW58595   5.875   3.776   2.340 -0.1599 -0.2897  0.2234
18973SOL    HW158596   5.873   3.871   2.352 -0.6809 -0.3344  0.5323
18973SOL    HW258597   5.783   3.752   2.327 -0.0389 -0.7580  0.2263
18974SOL     OW58598   5.645   8.872   1.899 -0.6773 -1.3380 -0.1988
18974SOL    HW158599   5.627   8.810   1.829 -0.7709 -1.1177 -0.3716
18974SOL    HW258600   5.568   8.869   1.955 -0.5518 -1.6033 -0.0379
18975SOL     OW58601   1.468   5.940   6.437  0.3876  1.0287 -0.6909
18975SOL    HW158602   1.447   6.026   6.474 -0.0607  0.6536 -0.0646
18975SOL    HW258603   1.561   5.929   6.453  0.1966  0.8719  0.3236
18976SOL     OW58604   2.245   2.126   5.122  0.4788 -0.4257 -0.0801
18976SOL    HW158605   2.192   2.101   5.047  0.0845 -0.5923  0.2569
18976SOL    HW258606   2.327   2.159   5.083  0.8045 -1.7595 -0.5391
18977SOL     OW58607   6.438   4.951   1.091 -0.1017  0.2303 -0.0850
18977SOL    HW158608   6.342   4.956   1.094 -0.0355  0.8412  1.3441
18977SOL    HW258609   6.456   4.876   1.033 -1.4818 -1.7519  1.9395
18978SOL     OW58610   8.618   4.458   0.863  0.5300  0.1954 -0.2823
18978SOL    HW158611   8.643   4.505   0.943 -0.4912 -0.2230  0.2966
18978SOL    HW258612   8.701   4.435   0.822  1.0697  0.3710  0.6836
18979SOL     OW58613   4.580   4.735   3.967  0.5753  0.3840 -0.0238
18979SOL    HW158614   4.582   4.793   4.043 -1.5516  0.6590 -0.1425
18979SOL    HW258615   4.609   4.650   4.001 -0.3538  0.5063  1.0995
18980SOL     OW58616   2.168   8.157   4.250 -0.6274  0.2911 -0.0793
18980SOL    HW158617   2.177   8.244   4.210  0.2325  0.0389 -0.4492
18980SOL    HW258618   2.253   8.141   4.292 -0.8182 -0.3278  0.0793
18981SOL     OW58619   6.136   3.618   7.835 -0.8991  0.1726  0.0562
18981SOL    HW158620   6.085   3.674   7.893  0.2023 -0.5376  1.7759
18981SOL    HW258621   6.110   3.529   7.859  0.8507 -0.1875  0.7256
18982SOL     OW58622   8.031   1.927   9.285  0.5226  0.3576  0.1439
18982SOL    HW158623   7.944   1.889   9.271  1.0174  0.2933 -2.9602
18982SOL    HW258624   8.020   2.019   9.263  1.3395  0.2697 -0.6239
18983SOL     OW58625   2.402   7.023   8.690 -0.0133 -0.5841 -0.2535
18983SOL    HW158626   2.308   7.014   8.676  0.0006  1.3337 -1.7244
18983SOL    HW258627   2.443   6.982   8.613  0.2868  1.1003 -0.9965
18984SOL     OW58628   2.607   8.723   5.682  0.3704 -0.0969 -0.5325
18984SOL    HW158629   2.574   8.679   5.604 -0.2763 -0.4295 -0.0747
18984SOL    HW258630   2.584   8.815   5.669  0.5595 -0.0996 -0.8853
18985SOL     OW58631   0.058   4.303   8.272  0.3417  0.2141  0.0845
18985SOL    HW158632   0.123   4.357   8.318 -0.9350  2.7428 -0.9692
18985SOL    HW258633   0.068   4.327   8.180 -2.2847  0.8890 -0.0646
18986SOL     OW58634   4.722   0.243   0.795 -0.8216  0.2290  0.2845
18986SOL    HW158635   4.721   0.327   0.749 -0.8272  0.0476 -0.0412
18986SOL    HW258636   4.684   0.263   0.881 -0.1782  0.7084  0.4651
18987SOL     OW58637   5.721   0.915   5.377  0.1364 -0.3343  0.6765
18987SOL    HW158638   5.755   0.953   5.296  0.6599 -0.1964  0.9609
18987SOL    HW258639   5.737   0.821   5.368  3.3866  0.0053  2.0962
18988SOL     OW58640   3.905   1.806   7.610 -0.5497  0.5573  0.6707
18988SOL    HW158641   3.888   1.718   7.577 -1.5655  0.6568  0.9053
18988SOL    HW258642   3.920   1.794   7.704 -2.7386  0.8391  1.1045
18989SOL     OW58643   6.593   2.901   1.717  0.2258 -0.4504 -0.2012
18989SOL    HW158644   6.559   2.830   1.771  1.7811 -0.4549  0.8236
18989SOL    HW258645   6.677   2.867   1.684 -0.6846 -0.4530 -2.6507
18990SOL     OW58646   8.915   1.467   6.532  0.5782 -0.3394  0.4804
18990SOL    HW158647   8.863   1.499   6.458  1.1742  0.8227  0.5613
18990SOL    HW258648   8.912   1.371   6.523 -1.1615 -0.2719  0.2089
18991SOL     OW58649   4.194   3.709   1.509 -0.0820 -0.4943  0.5152
18991SOL    HW158650   4.266   3.677   1.455 -0.6865  0.0264 -0.6256
18991SOL    HW258651   4.236   3.768   1.573  0.5971 -0.8593  0.4086
18992SOL     OW58652   6.044   1.316   0.000  0.4148 -0.4929  0.4513
18992SOL    HW158653   6.131   1.286   0.026  0.4810 -2.5200 -1.8451
18992SOL    HW258654   6.061   1.389  -0.059  0.7006 -2.0357 -1.4461
18993SOL     OW58655   0.312   7.859   6.310  0.3888 -0.7064  0.3410
18993SOL    HW158656   0.363   7.826   6.236  0.9768 -1.2177  0.9538
18993SOL    HW258657   0.226   7.879   6.274  1.1627  0.6205 -0.8112
18994SOL     OW58658   9.196   9.075   2.315  0.1864  0.0126  0.0279
18994SOL    HW158659   9.147   9.035   2.387  0.2032 -1.8563 -0.9864
18994SOL    HW258660   9.130   9.097   2.250  0.3617  0.2933 -0.0590
18995SOL     OW58661   2.408   2.926   0.245  0.1950  0.0610 -0.1061
18995SOL    HW158662   2.422   3.013   0.283 -2.4256  0.5077 -0.0873
18995SOL    HW258663   2.449   2.866   0.307  0.7557  1.1680  0.6130
18996SOL     OW58664   7.651   6.812   0.253 -0.1725  0.3330 -0.1305
18996SOL    HW158665   7.651   6.908   0.249  0.4181  0.2868 -1.5596
18996SOL    HW258666   7.627   6.792   0.343 -2.7576  1.7952 -0.4547
18997SOL     OW58667   1.615   6.692   6.417 -0.6007 -0.1121  0.0761
18997SOL    HW158668   1.643   6.727   6.332 -1.2647  1.0105  0.3146
18997SOL    HW258669   1.536   6.641   6.396 -0.6398 -0.0167 -0.0094
18998SOL     OW58670   1.813   4.318   9.020  0.2774 -0.3957 -0.1384
18998SOL    HW158671   1.768   4.234   9.009  0.8286 -0.6203 -0.7152
18998SOL    HW258672   1.871   4.305   9.095  0.1677 -0.4441 -0.0620
18999SOL     OW58673   3.768   3.876   2.263 -0.4367  0.0325  0.3502
18999SOL    HW158674   3.852   3.905   2.226  0.0430  1.7810  2.6554
18999SOL    HW258675   3.762   3.783   2.241  1.5356  0.1783 -0.8836
19000SOL     OW58676   1.328   0.549   5.610 -0.1206  0.5299 -0.1809
19000SOL    HW158677   1.322   0.643   5.593 -2.5073  0.1211 -1.7803
19000SOL    HW258678   1.270   0.509   5.545 -0.0732 -1.9628  1.2618
19001SOL     OW58679   2.818   2.205   2.058 -0.1016  0.4939  0.5523
19001SOL    HW158680   2.876   2.204   1.982 -1.1813  0.4487 -0.2855
19001SOL    HW258681   2.863   2.259   2.122  1.1127  0.0163  0.1038
19002SOL     OW58682   8.442   4.374   0.663 -0.2583  0.0627 -0.5696
19002SOL    HW158683   8.367   4.434   0.665 -0.0924  0.3238 -1.9988
19002SOL    HW258684   8.490   4.393   0.744 -1.7382 -0.1154  0.3573
19003SOL     OW58685   0.938   1.566   5.067 -0.1363  0.0457  0.2032
19003SOL    HW158686   1.003   1.633   5.092 -0.7025  0.4329  0.6540
19003SOL    HW258687   0.862   1.617   5.038 -0.1994 -0.4099 -0.4338
19004SOL     OW58688   1.746   4.072   2.662 -0.1244  0.1363  0.1607
19004SOL    HW158689   1.739   4.095   2.755 -0.4504  0.7325 -0.0132
19004SOL    HW258690   1.700   4.142   2.616  1.2696  0.6075 -0.5456
19005SOL     OW58691   1.824   3.432   1.228 -0.5600  0.0489 -0.1911
19005SOL    HW158692   1.839   3.495   1.158  2.9313 -0.4591  0.0084
19005SOL    HW258693   1.898   3.444   1.287 -1.2006 -2.4483  1.1861
19006SOL     OW58694   6.460   8.146   5.845  0.6708 -0.0840 -0.8855
19006SOL    HW158695   6.555   8.141   5.854  0.7695  0.8992 -1.2697
19006SOL    HW258696   6.445   8.226   5.794 -0.3755 -0.0624 -0.5630
19007SOL     OW58697   5.379   4.637   7.596 -0.6376 -0.1163  0.6078
19007SOL    HW158698   5.317   4.693   7.550  1.1362  1.2554 -0.1704
19007SOL    HW258699   5.412   4.690   7.668  0.2175 -0.5417  0.5404
19008SOL     OW58700   2.795   2.617   8.138 -0.5756 -0.0886 -0.2643
19008SOL    HW158701   2.814   2.707   8.114  0.0580 -0.0434  0.4013
19008SOL    HW258702   2.764   2.576   8.057 -0.0041  0.4859 -0.7693
19009SOL     OW58703   9.011   8.719   4.202 -0.3376 -0.5713 -0.6685
19009SOL    HW158704   8.922   8.708   4.166 -0.9305 -1.2844  0.9560
19009SOL    HW258705   9.017   8.812   4.223 -0.8881 -0.6196 -0.2946
19010SOL     OW58706   6.821   0.977   3.221 -0.1373 -0.1848  0.0642
19010SOL    HW158707   6.743   0.957   3.169  1.5519 -1.4020 -2.0590
19010SOL    HW258708   6.787   0.989   3.310 -2.7443 -0.6549 -0.8104
19011SOL     OW58709   1.783   1.947   5.694  0.4146 -0.0429 -0.0288
19011SOL    HW158710   1.848   1.969   5.626  1.0474 -0.6446  0.3723
19011SOL    HW258711   1.795   1.853   5.708 -0.9955 -0.2795 -0.4006
19012SOL     OW58712   1.373   2.576   1.864  0.0467 -0.4114 -0.3051
19012SOL    HW158713   1.375   2.534   1.950  0.5287 -1.7973 -0.9729
19012SOL    HW258714   1.280   2.581   1.842 -0.0721 -0.1431  0.2500
19013SOL     OW58715   3.272   0.497   6.845  0.6504  0.0027 -0.0682
19013SOL    HW158716   3.227   0.464   6.922 -1.6880  1.3404 -0.8076
19013SOL    HW258717   3.205   0.498   6.776  1.8311  1.9474 -1.2388
19014SOL     OW58718   1.859   5.548   0.919 -0.0464 -0.0654  0.0288
19014SOL    HW158719   1.940   5.597   0.930 -0.6753  1.5468 -2.1956
19014SOL    HW258720   1.795   5.594   0.972 -0.0558  0.0411 -0.0755
19015SOL     OW58721   9.213   7.770   4.199 -0.0705  0.1644  0.2790
19015SOL    HW158722   9.143   7.738   4.256 -0.6146  0.4857 -0.2140
19015SOL    HW258723   9.275   7.812   4.259 -1.0242  1.1863  0.5577
19016SOL     OW58724   3.284   7.976   6.052 -0.5565 -0.3778 -0.2379
19016SOL    HW158725   3.275   7.881   6.050  1.4863 -0.5723 -3.2733
19016SOL    HW258726   3.195   8.009   6.040 -1.7350 -1.8191  3.9593
19017SOL     OW58727   4.158   8.720   7.165 -0.3672  0.0902  0.1359
19017SOL    HW158728   4.216   8.723   7.242  1.3659  0.5046 -1.1405
19017SOL    HW258729   4.075   8.687   7.198  0.7661 -1.0319  1.9402
19018SOL     OW58730   5.267   7.271   2.463 -0.2569 -0.2828 -0.2254
19018SOL    HW158731   5.284   7.361   2.489 -0.4222 -0.3234  0.0279
19018SOL    HW258732   5.352   7.227   2.472 -0.8605 -0.9663  3.0156
19019SOL     OW58733   4.851   2.625   6.526 -0.1653  0.5704 -0.1206
19019SOL    HW158734   4.926   2.576   6.562 -1.3424 -2.2134 -1.3069
19019SOL    HW258735   4.779   2.606   6.586 -0.3923  1.7284 -0.0187
19020SOL     OW58736   3.289   6.639   8.363 -0.1508  0.0605  0.4423
19020SOL    HW158737   3.376   6.678   8.375 -1.1243  2.3852  0.2443
19020SOL    HW258738   3.253   6.635   8.452 -0.3781  0.4284  0.3675
19021SOL     OW58739   7.907   2.520   6.172  0.1179  0.3954 -0.6830
19021SOL    HW158740   7.987   2.469   6.188  0.0643  0.8614  1.1395
19021SOL    HW258741   7.840   2.476   6.224 -1.3278 -1.2400 -3.8172
19022SOL     OW58742   2.810   8.617   8.801 -0.2198  0.3319 -0.3889
19022SOL    HW158743   2.740   8.553   8.786 -0.7684  0.3858  1.7651
19022SOL    HW258744   2.764   8.701   8.810  0.3553  0.7785 -1.5902
19023SOL     OW58745   5.010   6.974   9.151  0.0651  0.3323  0.1017
19023SOL    HW158746   5.047   6.912   9.089 -4.1224 -2.7444  0.5383
19023SOL    HW258747   5.020   6.932   9.237  0.9965  2.2134  0.9658
19024SOL     OW58748   6.091   5.697   5.800  0.3892 -0.6572  0.1932
19024SOL    HW158749   6.080   5.737   5.886 -0.7458  0.6615 -0.5388
19024SOL    HW258750   6.167   5.741   5.762  1.2226 -1.6179  0.7094
19025SOL     OW58751   3.002   7.545   4.478 -0.0957 -0.7682  0.1665
19025SOL    HW158752   2.934   7.558   4.544  0.9331  1.0515  0.8747
19025SOL    HW258753   2.960   7.573   4.396 -0.6140 -0.8777  0.3883
19026SOL     OW58754   5.571   7.434   3.442  0.7419 -0.4804  0.9630
19026SOL    HW158755   5.605   7.444   3.531 -0.0508  1.2300  1.0964
19026SOL    HW258756   5.549   7.524   3.415  0.0239 -1.1099 -0.5695
19027SOL     OW58757   6.258   1.582   8.910  0.1778  0.4662  0.3372
19027SOL    HW158758   6.289   1.494   8.886 -2.7751 -0.7512  0.7074
19027SOL    HW258759   6.215   1.614   8.831  0.6048  1.2785  0.4371
19028SOL     OW58760   2.225   6.655   7.549 -0.3082  0.0571  0.1673
19028SOL    HW158761   2.140   6.636   7.589  0.3412 -0.8134  1.1701
19028SOL    HW258762   2.267   6.569   7.541  0.7805  0.5628  0.3858
19029SOL     OW58763   1.334   6.182   0.062 -0.0420 -0.3768 -0.2347
19029SOL    HW158764   1.422   6.177   0.100  0.5636  1.0358 -1.3880
19029SOL    HW258765   1.308   6.273   0.074 -1.7101 -0.9821  0.8297
19030SOL     OW58766   0.187   1.393   2.067  0.0055  0.6014  0.1211
19030SOL    HW158767   0.273   1.427   2.091  0.0717  0.3761  0.2051
19030SOL    HW258768   0.145   1.374   2.151 -0.2715  1.0715  0.0896
19031SOL     OW58769   1.547   5.398   3.619 -0.0479  0.6164  0.3546
19031SOL    HW158770   1.584   5.365   3.536 -1.5748 -0.3156  0.0181
19031SOL    HW258771   1.502   5.479   3.595 -1.0775 -0.0108  0.1234
19032SOL     OW58772   0.507   0.288   3.346  0.2638  0.2406  0.3617
19032SOL    HW158773   0.465   0.365   3.308 -0.1413 -0.3243 -0.3433
19032SOL    HW258774   0.467   0.280   3.433 -1.9741 -0.9782 -0.7548
19033SOL     OW58775   9.116   6.189   9.268 -0.0746  0.1324  0.5725
19033SOL    HW158776   9.050   6.220   9.330 -0.0698 -0.5013  0.8935
19033SOL    HW258777   9.085   6.221   9.183 -0.8887 -0.3013  0.6980
19034SOL     OW58778   2.702   7.919   5.517  0.6956  0.1926 -0.2961
19034SOL    HW158779   2.685   7.970   5.438  1.0980  0.2319 -0.3574
19034SOL    HW258780   2.636   7.849   5.515  0.0544  0.7855 -0.1369
19035SOL     OW58781   7.571   5.567   4.387 -0.6638 -0.2658 -0.2014
19035SOL    HW158782   7.651   5.514   4.385 -0.0864  0.6282 -2.0128
19035SOL    HW258783   7.565   5.598   4.477  1.2553 -0.0395 -0.1205
19036SOL     OW58784   8.380   1.116   9.218 -0.2117  0.0082  0.6456
19036SOL    HW158785   8.463   1.158   9.240  1.4235 -2.0542 -1.3256
19036SOL    HW258786   8.363   1.056   9.291  0.9956 -0.8641  0.2337
19037SOL     OW58787   5.051   6.727   9.018 -0.3676  0.0498  0.7352
19037SOL    HW158788   4.962   6.706   9.047 -0.4787  0.9940  1.1046
19037SOL    HW258789   5.080   6.649   8.970 -1.3688 -0.2872  0.6710
19038SOL     OW58790   7.164   1.038   5.880 -0.2441  0.1013  0.4805
19038SOL    HW158791   7.193   1.079   5.798 -0.5172 -1.9260 -0.6610
19038SOL    HW258792   7.077   1.073   5.895 -0.0442  0.7762  0.0964
19039SOL     OW58793   1.354   7.150   2.510 -0.1930  0.1327 -0.2434
19039SOL    HW158794   1.310   7.106   2.582 -0.9898  1.3109  0.0158
19039SOL    HW258795   1.403   7.222   2.552 -1.2337  1.2653 -0.9314
19040SOL     OW58796   6.002   0.792   9.176  0.3097  0.4120  0.1021
19040SOL    HW158797   5.995   0.851   9.101  0.6668  0.7574  0.3430
19040SOL    HW258798   5.914   0.755   9.186 -0.1841  1.7209  0.6342
19041SOL     OW58799   0.066   3.542   9.078  0.2006  0.6959 -0.1795
19041SOL    HW158800   0.031   3.574   9.161 -0.8229  0.4421 -0.4947
19041SOL    HW258801   0.160   3.536   9.091  0.0850  1.0404  0.8303
19042SOL     OW58802   0.756   2.659   7.475 -0.3163  0.1348 -0.3705
19042SOL    HW158803   0.748   2.734   7.415 -3.9271  0.9431  0.9992
19042SOL    HW258804   0.692   2.596   7.442 -0.0779 -0.7025  0.7569
19043SOL     OW58805   4.492   4.367   6.234  0.9121 -0.5354  0.0432
19043SOL    HW158806   4.500   4.447   6.182  2.0087  0.3967  1.6436
19043SOL    HW258807   4.542   4.302   6.184  0.9570  0.0463 -0.6897
19044SOL     OW58808   8.938   7.700   8.324 -0.3522  0.1242 -0.5206
19044SOL    HW158809   8.864   7.738   8.371 -1.4940  0.3617 -2.4553
19044SOL    HW258810   9.001   7.772   8.317 -1.2430  0.8184 -1.5429
19045SOL     OW58811   3.492   2.123   1.335 -0.1447  0.4720 -0.0723
19045SOL    HW158812   3.433   2.076   1.394  1.4113 -0.1653  1.0162
19045SOL    HW258813   3.576   2.076   1.342  1.3313  3.1247  0.6956
19046SOL     OW58814   8.239   5.317   1.924 -0.3063 -0.0892  0.5262
19046SOL    HW158815   8.250   5.349   1.834 -1.8175 -0.5406  0.1622
19046SOL    HW258816   8.146   5.295   1.930 -0.3914  0.7408  2.4774
19047SOL     OW58817   1.062   2.623   3.303 -0.2541 -0.0723 -0.5458
19047SOL    HW158818   1.061   2.590   3.393  0.1700  1.6018  0.0925
19047SOL    HW258819   1.129   2.570   3.259  1.9305  1.3211  1.0090
19048SOL     OW58820   0.407   5.801   3.896 -0.0088 -0.0504  0.1430
19048SOL    HW158821   0.400   5.757   3.981 -1.5696 -0.6362 -0.2606
19048SOL    HW258822   0.345   5.754   3.840  0.0725  1.1407 -0.9708
19049SOL     OW58823   5.013   6.783   5.073  0.6063  0.5054 -0.3206
19049SOL    HW158824   5.044   6.742   4.993 -0.6828  0.7880 -0.9736
19049SOL    HW258825   5.000   6.711   5.134 -0.0869  0.0939 -0.9397
19050SOL     OW58826   1.186   2.858   7.689 -0.1406 -0.3806  0.2678
19050SOL    HW158827   1.234   2.789   7.734 -0.7044 -0.4997  0.7015
19050SOL    HW258828   1.252   2.906   7.641  0.1730 -1.6411 -0.5843
19051SOL     OW58829   1.467   0.473   1.851 -0.2214  0.3601 -0.2776
19051SOL    HW158830   1.558   0.488   1.826  0.0446 -0.0459  0.4336
19051SOL    HW258831   1.420   0.548   1.815  0.5813  1.2074  0.3994
19052SOL     OW58832   3.583   1.077   4.945  0.3560 -0.2635 -0.1778
19052SOL    HW158833   3.630   0.994   4.956  0.7042  0.2220  2.2247
19052SOL    HW258834   3.500   1.064   4.991  0.3045  0.6283 -0.0103
19053SOL     OW58835   7.205   1.782   1.145  0.1149 -0.0239  0.2051
19053SOL    HW158836   7.285   1.730   1.148  0.1936  0.0525 -0.5074
19053SOL    HW258837   7.134   1.717   1.150  0.2160 -0.1794 -0.3109
19054SOL     OW58838   5.117   5.556   8.129  0.1432 -0.1371  0.0715
19054SOL    HW158839   5.066   5.507   8.063 -1.9800 -0.5278  1.9228
19054SOL    HW258840   5.091   5.647   8.116 -0.7837 -0.2906  0.7528
19055SOL     OW58841   5.403   8.394   4.669  0.5373  0.0181  0.0733
19055SOL    HW158842   5.355   8.316   4.700 -0.1421 -0.0365 -1.0763
19055SOL    HW258843   5.490   8.384   4.706  0.2661 -0.9625  0.4906
19056SOL     OW58844   9.035   6.903   0.855 -0.4807 -0.5518 -0.4102
19056SOL    HW158845   9.113   6.957   0.839 -0.2610 -0.5864  0.5182
19056SOL    HW258846   9.059   6.848   0.929 -0.4274 -2.4820 -1.8256
19057SOL     OW58847   7.249   0.106   4.936  0.0443  0.8730  0.0062
19057SOL    HW158848   7.309   0.125   5.009 -1.6497  2.0040  1.1212
19057SOL    HW258849   7.269   0.015   4.914  0.7313  0.5635  1.7504
19058SOL     OW58850   2.068   6.388   1.524 -0.3136 -0.4734 -0.5167
19058SOL    HW158851   2.027   6.469   1.495 -0.1739 -0.4565 -0.6675
19058SOL    HW258852   2.022   6.319   1.475  0.5848 -0.3737 -1.5300
19059SOL     OW58853   2.179   3.582   7.500  0.7686  1.0123  0.0083
19059SOL    HW158854   2.217   3.668   7.481  0.4541  0.9651 -0.8219
19059SOL    HW258855   2.138   3.555   7.418  0.2344  0.3969  0.4760
19060SOL     OW58856   5.069   6.200   4.048  0.0009  0.3255  0.2935
19060SOL    HW158857   5.042   6.292   4.044 -2.2191 -0.3437 -0.8851
19060SOL    HW258858   5.005   6.158   4.106 -0.0446 -0.8028 -0.5552
19061SOL     OW58859   1.757   3.555   2.735  0.4479 -0.1091  0.1205
19061SOL    HW158860   1.737   3.462   2.721  0.6003 -0.1002 -0.1586
19061SOL    HW258861   1.808   3.557   2.816 -1.6850 -0.0186  1.4983
19062SOL     OW58862   0.725   5.477   5.404 -0.0828 -0.1228 -0.6726
19062SOL    HW158863   0.677   5.537   5.461 -0.4996 -2.0153  1.0020
19062SOL    HW258864   0.767   5.535   5.339 -2.8679  1.7434 -0.9317
19063SOL     OW58865   2.352   4.324   2.975 -0.2578 -0.2248 -0.7552
19063SOL    HW158866   2.414   4.254   2.954  0.9031  0.0390  1.7234
19063SOL    HW258867   2.386   4.401   2.930  0.2582 -0.4853 -0.8127
19064SOL     OW58868   3.156   3.769   4.271  0.1229 -0.0573 -0.6253
19064SOL    HW158869   3.117   3.786   4.356  0.0480 -1.0346 -0.4541
19064SOL    HW258870   3.088   3.791   4.208 -1.0176 -2.4666 -0.3004
19065SOL     OW58871   0.306   6.675   6.089  0.0823 -0.3212 -0.7580
19065SOL    HW158872   0.375   6.695   6.152 -2.3390 -1.3741  2.3630
19065SOL    HW258873   0.310   6.579   6.080 -0.4752 -0.3082 -1.1601
19066SOL     OW58874   6.733   1.559   6.843  0.4033  0.0560 -0.0176
19066SOL    HW158875   6.680   1.519   6.774  0.1886 -0.7850  0.6273
19066SOL    HW258876   6.822   1.529   6.825  0.2430 -0.7110  0.4634
19067SOL     OW58877   2.069   2.723   2.421 -0.0519  0.6047 -0.4090
19067SOL    HW158878   2.147   2.668   2.418  0.0501  0.8169 -1.5760
19067SOL    HW258879   2.099   2.807   2.457  0.6407  1.3119 -2.5719
19068SOL     OW58880   1.205   6.507   1.143  0.2515 -0.0722  0.5795
19068SOL    HW158881   1.272   6.474   1.204  0.9189  0.7549  0.3102
19068SOL    HW258882   1.188   6.596   1.173  1.1833  0.6262 -0.9384
19069SOL     OW58883   8.597   8.692   7.615 -0.2651 -0.3517 -0.2321
19069SOL    HW158884   8.626   8.602   7.630  0.8068  0.4018  2.4775
19069SOL    HW258885   8.535   8.709   7.686 -0.7248  0.9515 -0.9340
19070SOL     OW58886   0.642   5.818   2.409  0.0075 -0.5946  0.0062
19070SOL    HW158887   0.551   5.792   2.398 -1.0406  2.5413  0.6062
19070SOL    HW258888   0.686   5.790   2.329 -2.0590  0.0632 -1.3934
19071SOL     OW58889   8.963   6.834   1.658 -0.0364 -0.2922 -0.5055
19071SOL    HW158890   9.055   6.806   1.664 -0.3137 -1.5540 -1.8278
19071SOL    HW258891   8.917   6.775   1.718 -0.0583  0.0526 -0.1792
19072SOL     OW58892   0.775   8.821   8.240 -0.6919 -0.3506 -0.0821
19072SOL    HW158893   0.832   8.758   8.284  0.8818  1.9784  1.3433
19072SOL    HW258894   0.703   8.835   8.301 -0.0718  0.6122  0.4394
19073SOL     OW58895   0.131   3.213   8.302 -0.0728 -0.2444  0.2663
19073SOL    HW158896   0.065   3.144   8.294 -1.3901  0.8726  1.2450
19073SOL    HW258897   0.138   3.228   8.396  0.8522  0.3626  0.1034
19074SOL     OW58898   7.742   7.035   1.209 -0.0061 -0.0388 -0.6921
19074SOL    HW158899   7.829   7.073   1.201 -0.3903  1.2598  1.0161
19074SOL    HW258900   7.739   6.999   1.298 -0.9830 -0.6616 -0.9686
19075SOL     OW58901   7.181   2.887   4.197  0.3742 -0.2371  0.3229
19075SOL    HW158902   7.221   2.944   4.262  0.9178  1.3693 -1.3777
19075SOL    HW258903   7.237   2.809   4.195  0.7560  0.0133  1.2487
19076SOL     OW58904   2.577   8.677   2.128 -0.7976 -0.3167  0.2229
19076SOL    HW158905   2.517   8.602   2.136 -0.0592 -0.7642  1.8247
19076SOL    HW258906   2.662   8.637   2.107 -0.4813  0.1040  0.7107
19077SOL     OW58907   3.905   8.360   8.974 -0.0363  0.0282 -0.5379
19077SOL    HW158908   3.906   8.402   9.060  0.6943 -0.2933 -0.3900
19077SOL    HW258909   3.815   8.370   8.944 -0.6534 -1.1033  0.8655
19078SOL     OW58910   8.445   0.630   1.825  0.1732 -0.1266 -0.4007
19078SOL    HW158911   8.528   0.677   1.830  1.0675 -1.5937 -0.9787
19078SOL    HW258912   8.381   0.689   1.864  1.8319  0.2095  1.9103
19079SOL     OW58913   5.031   0.650   5.649 -0.0924  0.3238 -0.2861
19079SOL    HW158914   5.055   0.694   5.567 -1.3852 -1.4056 -1.6287
19079SOL    HW258915   5.109   0.659   5.704  1.0846  0.8506 -1.9829
19080SOL     OW58916   4.606   8.451   2.136 -0.2138 -0.6527 -0.4214
19080SOL    HW158917   4.615   8.501   2.055 -2.5655  1.4587  0.5655
19080SOL    HW258918   4.671   8.490   2.195  1.0224 -1.7463 -1.0080
19081SOL     OW58919   5.132   3.610   2.969 -0.1299 -0.1597  0.4439
19081SOL    HW158920   5.130   3.612   3.064  3.8288  0.0193  0.6021
19081SOL    HW258921   5.220   3.642   2.946 -1.5346  1.2665 -3.3038
19082SOL     OW58922   1.620   8.339   0.306  0.1487  0.0516  0.3888
19082SOL    HW158923   1.539   8.382   0.336  0.0387  0.6299 -0.7062
19082SOL    HW258924   1.667   8.319   0.387 -1.4553 -1.0354  1.0916
19083SOL     OW58925   0.714   3.015   8.508 -0.4379  0.1634  0.4364
19083SOL    HW158926   0.776   2.944   8.489 -0.2585 -0.3291  2.6934
19083SOL    HW258927   0.628   2.975   8.500 -0.3482 -0.1980  1.2045
19084SOL     OW58928   8.368   1.046   1.372  0.1596 -0.1413  0.4292
19084SOL    HW158929   8.309   0.976   1.401  0.1559  1.0249  3.4246
19084SOL    HW258930   8.344   1.122   1.426  0.9160  1.8757 -1.9623
19085SOL     OW58931   4.414   7.105   8.877 -0.0778  0.4817 -0.2985
19085SOL    HW158932   4.358   7.095   8.954  0.3283  2.1877  0.2519
19085SOL    HW258933   4.360   7.154   8.815 -0.1429 -0.2480 -0.8196
19086SOL     OW58934   3.407   7.012   0.621 -0.3790  0.0782 -0.9410
19086SOL    HW158935   3.437   7.100   0.643 -1.4531  0.3259 -0.4082
19086SOL    HW258936   3.486   6.965   0.595  0.2326  1.1372 -1.0330
19087SOL     OW58937   4.231   7.543   7.702  0.2650  0.1563 -0.1688
19087SOL    HW158938   4.284   7.463   7.707 -0.1842 -0.3158 -2.4989
19087SOL    HW258939   4.155   7.518   7.650  0.6603  2.3880 -1.8440
19088SOL     OW58940   7.363   6.724   7.242  0.4009  0.6664  0.5217
19088SOL    HW158941   7.409   6.736   7.325  1.0125 -1.4532  0.5168
19088SOL    HW258942   7.386   6.635   7.214 -0.9138  0.8414 -1.2204
19089SOL     OW58943   4.103   5.284   6.235 -0.3289  0.1541 -0.3636
19089SOL    HW158944   4.038   5.276   6.165 -0.0015  0.5932 -0.7226
19089SOL    HW258945   4.177   5.231   6.205  0.5921  1.9347 -1.2727
19090SOL     OW58946   6.579   5.022   0.722 -0.0087  0.0734  0.0634
19090SOL    HW158947   6.624   5.107   0.722 -0.1260  0.1528 -1.2522
19090SOL    HW258948   6.610   4.978   0.643 -3.3275  0.7567 -1.7547
19091SOL     OW58949   5.525   5.949   5.761 -0.0239 -0.1694 -0.5872
19091SOL    HW158950   5.448   5.908   5.723  1.1456 -1.5755 -1.4704
19091SOL    HW258951   5.573   5.984   5.686 -0.1938  1.4358  0.0264
19092SOL     OW58952   1.029   0.938   5.793 -0.3513  0.7581 -0.0169
19092SOL    HW158953   0.940   0.903   5.793 -0.2073  0.3726 -1.2296
19092SOL    HW258954   1.084   0.864   5.820 -0.2004  0.4481 -1.1566
19093SOL     OW58955   1.793   0.973   0.547  0.1920  0.3677  0.3454
19093SOL    HW158956   1.742   1.008   0.474 -1.0712 -0.9184  0.6076
19093SOL    HW258957   1.735   0.981   0.623  1.4001  1.4531  1.1674
19094SOL     OW58958   8.725   7.993   2.800 -0.1457  0.2318 -0.2990
19094SOL    HW158959   8.820   7.983   2.799 -0.3311 -1.6679 -1.9754
19094SOL    HW258960   8.696   7.940   2.874  0.0041 -0.2477 -0.5826
19095SOL     OW58961   4.294   6.690   7.541  0.3932 -0.6972 -0.3655
19095SOL    HW158962   4.327   6.779   7.529  1.5570 -1.0466  0.1064
19095SOL    HW258963   4.367   6.634   7.514  0.1045 -1.4951  0.4663
19096SOL     OW58964   3.636   4.037   7.329  0.0819 -0.0407  0.7705
19096SOL    HW158965   3.674   4.057   7.415  1.0069 -0.4813  0.4646
19096SOL    HW258966   3.546   4.011   7.349 -0.2842  1.6508  1.4342
19097SOL     OW58967   7.183   4.044   2.675  0.2365 -0.3121 -0.5694
19097SOL    HW158968   7.273   4.062   2.702  1.0402 -0.9211 -2.7283
19097SOL    HW258969   7.161   3.960   2.716  0.3475  0.2135  0.5982
19098SOL     OW58970   7.776   5.922   4.186  0.5261  0.0574  0.1147
19098SOL    HW158971   7.871   5.932   4.182  0.6003 -1.1177 -2.0706
19098SOL    HW258972   7.743   5.974   4.113 -0.3586 -0.9563 -0.2272
19099SOL     OW58973   3.225   2.487   1.909  0.3124  0.2725 -0.4101
19099SOL    HW158974   3.303   2.510   1.857  0.8148 -0.0929  0.1757
19099SOL    HW258975   3.218   2.557   1.974  2.1178 -1.3939  1.6758
19100SOL     OW58976   1.591   6.244   1.311  0.3301  0.0809 -0.4290
19100SOL    HW158977   1.661   6.227   1.249  2.3694  1.9243  1.3293
19100SOL    HW258978   1.575   6.159   1.353  1.1249 -0.4643 -1.2263
19101SOL     OW58979   0.193   8.230   5.074  0.0492  0.2982  0.2322
19101SOL    HW158980   0.128   8.279   5.124 -0.4855 -0.8093  0.6278
19101SOL    HW258981   0.160   8.141   5.072  2.3352 -0.6031  1.7449
19102SOL     OW58982   8.632   6.057   3.809  0.1028 -0.9087  0.6104
19102SOL    HW158983   8.719   6.079   3.844 -1.2904  1.8106  2.5411
19102SOL    HW258984   8.632   6.093   3.720  1.4527 -2.2660  0.0383
19103SOL     OW58985   3.274   1.759   2.668 -0.2623  0.1460  0.2241
19103SOL    HW158986   3.237   1.743   2.582  0.5435 -1.8383  0.2206
19103SOL    HW258987   3.300   1.851   2.666  2.1607 -0.4973 -2.6398
19104SOL     OW58988   8.539   2.518   5.970  0.7339  0.2001  0.1980
19104SOL    HW158989   8.491   2.526   5.888 -0.8887 -0.2511  1.0823
19104SOL    HW258990   8.595   2.441   5.958 -0.1796 -0.4183 -0.1529
19105SOL     OW58991   5.581   9.086   3.118 -0.0930  0.0888 -0.4788
19105SOL    HW158992   5.584   9.046   3.205  0.3222  0.1432 -0.4668
19105SOL    HW258993   5.654   9.047   3.071 -1.4047 -1.3118 -1.4033
19106SOL     OW58994   4.120   7.041   5.287 -0.0890  0.1061 -0.2461
19106SOL    HW158995   4.132   6.952   5.253 -0.8254 -0.4504  0.9275
19106SOL    HW258996   4.025   7.055   5.283  0.1694  1.5329 -2.1299
19107SOL     OW58997   2.367   5.813   3.933  0.2196  0.1129 -0.3583
19107SOL    HW158998   2.273   5.791   3.933  0.6091 -1.5874 -0.6335
19107SOL    HW258999   2.393   5.806   4.024  0.2846 -0.2420 -0.4075
19108SOL     OW59000   1.457   4.124   6.502  0.2972  0.3643  0.6711
19108SOL    HW159001   1.398   4.131   6.577  0.1515  2.1075  0.4021
19108SOL    HW259002   1.415   4.060   6.444 -0.1105 -0.2032  1.5879
19109SOL     OW59003   0.757   5.796   4.570 -0.4562 -0.0700  0.0748
19109SOL    HW159004   0.851   5.791   4.588 -0.4850 -0.8239  0.0542
19109SOL    HW259005   0.728   5.876   4.614  0.9515  2.4583 -3.3832
19110SOL     OW59006   1.174   5.681   2.884  0.3185  0.1287 -0.0072
19110SOL    HW159007   1.122   5.662   2.962 -0.0283  1.6232  0.1439
19110SOL    HW259008   1.191   5.775   2.889 -1.4516  0.6420 -2.7951
19111SOL     OW59009   0.462   6.207   4.870 -0.2155  0.2907  0.7649
19111SOL    HW159010   0.537   6.204   4.928  0.7614  0.9098 -0.4308
19111SOL    HW259011   0.394   6.157   4.915  1.0517 -0.6583  1.6565
19112SOL     OW59012   5.334   5.088   3.678  0.0966 -0.1827  0.4802
19112SOL    HW159013   5.377   5.039   3.749  2.5181 -1.4854 -1.7772
19112SOL    HW259014   5.252   5.040   3.663 -0.3435 -0.0165  2.2192
19113SOL     OW59015   0.210   3.965   2.062 -0.0157 -0.5535  0.1831
19113SOL    HW159016   0.160   3.980   2.143 -0.0986 -0.8415  0.1869
19113SOL    HW259017   0.159   4.007   1.994 -0.7485 -1.6391  0.0431
19114SOL     OW59018   0.232   2.641   8.544 -0.3031  0.0614 -0.0448
19114SOL    HW159019   0.146   2.603   8.526 -0.9565  1.7435 -0.5116
19114SOL    HW259020   0.279   2.634   8.461 -0.2347 -0.2066  0.0154
19115SOL     OW59021   3.244   5.689   3.381  0.6186  0.1955 -0.1370
19115SOL    HW159022   3.233   5.784   3.377 -0.3179  0.0722 -0.4140
19115SOL    HW259023   3.208   5.657   3.299 -0.1716 -0.5109  0.4773
19116SOL     OW59024   0.055   3.377   3.427 -0.3626  0.6617  0.0877
19116SOL    HW159025   0.033   3.330   3.347 -1.5116  1.9098 -0.3466
19116SOL    HW259026   0.042   3.470   3.405 -0.0351  1.0585  1.5081
19117SOL     OW59027   1.258   7.645   8.268 -0.1625  1.0295  0.4254
19117SOL    HW159028   1.280   7.680   8.354 -0.6568  0.5977  0.7256
19117SOL    HW259029   1.257   7.550   8.280 -2.1669  1.0384  0.4036
19118SOL     OW59030   1.930   0.087   0.869 -0.5566  0.1486 -0.2135
19118SOL    HW159031   1.913   0.181   0.870 -0.9367  0.0790 -0.0890
19118SOL    HW259032   1.998   0.075   0.936 -0.5707  0.3219 -0.1679
19119SOL     OW59033   8.481   8.690   0.582  0.4601  0.4253  0.4029
19119SOL    HW159034   8.495   8.698   0.488  0.7987 -0.8980  0.3309
19119SOL    HW259035   8.387   8.696   0.593  0.4546  1.0873  0.0322
19120SOL     OW59036   1.612   3.512   8.332 -0.2392 -0.2501 -0.0118
19120SOL    HW159037   1.702   3.544   8.325 -1.3253  2.4537 -1.9564
19120SOL    HW259038   1.585   3.538   8.420  0.9771 -1.4448  0.7473
19121SOL     OW59039   6.826   3.473   1.201 -0.1203  0.2708 -0.2474
19121SOL    HW159040   6.891   3.433   1.144 -0.4291  0.1150 -0.4914
19121SOL    HW259041   6.748   3.419   1.192 -0.7359  1.2694 -1.0513
19122SOL     OW59042   6.953   1.703   3.845 -0.1469 -0.1953 -0.3072
19122SOL    HW159043   6.944   1.644   3.770  1.3598 -0.5267 -0.2388
19122SOL    HW259044   6.947   1.791   3.807 -1.0101 -0.3686 -0.5889
19123SOL     OW59045   0.663   3.853   1.960 -0.0564 -0.7304  0.4383
19123SOL    HW159046   0.630   3.767   1.933  0.8400 -0.7111 -0.7728
19123SOL    HW259047   0.603   3.915   1.919  1.8129 -0.6714 -2.3846
19124SOL     OW59048   7.906   0.529   1.563  0.1485 -0.4023  0.0688
19124SOL    HW159049   7.851   0.543   1.639  1.1743 -3.2093  1.4071
19124SOL    HW259050   7.993   0.557   1.591  0.1762  0.3554 -0.7392
19125SOL     OW59051   0.041   7.057   1.952 -0.2274  0.5332  0.5782
19125SOL    HW159052  -0.044   7.093   1.979 -0.3239 -0.5465  1.7219
19125SOL    HW259053   0.104   7.127   1.971 -0.7488  1.0490  0.4359
19126SOL     OW59054   6.580   4.570   0.774  0.2486 -0.2064  0.3129
19126SOL    HW159055   6.597   4.476   0.768  0.0666 -0.1966 -0.4479
19126SOL    HW259056   6.522   4.588   0.700  1.7852  0.8291 -0.6711
19127SOL     OW59057   8.723   8.435   7.313  0.5136  0.2526 -0.2327
19127SOL    HW159058   8.767   8.497   7.255 -0.6209  0.4270 -0.9395
19127SOL    HW259059   8.706   8.485   7.393 -0.6523  0.9788 -0.9045
19128SOL     OW59060   0.200   5.834   9.091 -0.1770 -0.2020 -0.1150
19128SOL    HW159061   0.112   5.800   9.104 -0.3293  0.9968  2.4036
19128SOL    HW259062   0.251   5.794   9.162  0.2852  2.4588  1.1271
19129SOL     OW59063   5.713   5.196   3.466 -0.1322  0.2465  0.5251
19129SOL    HW159064   5.800   5.165   3.440 -0.6360 -1.7110  1.0865
19129SOL    HW259065   5.654   5.154   3.404 -0.9564 -1.1296  2.1917
19130SOL     OW59066   6.090   7.238   8.350 -0.5247  0.1754 -0.0535
19130SOL    HW159067   6.020   7.189   8.307 -0.3716 -1.1311  1.1480
19130SOL    HW259068   6.163   7.235   8.289 -0.4499 -1.2991  0.0877
19131SOL     OW59069   0.768   0.331   5.096  0.1808 -0.4190  0.4132
19131SOL    HW159070   0.823   0.317   5.173 -0.8727  3.0946  1.9237
19131SOL    HW259071   0.825   0.377   5.033 -0.2461  0.9118  0.9744
19132SOL     OW59072   6.132   6.230   7.918 -0.0472 -0.1358  0.2689
19132SOL    HW159073   6.086   6.193   7.994 -1.7743  0.0059 -0.6771
19132SOL    HW259074   6.202   6.283   7.956  0.1751 -1.4206  1.7275
19133SOL     OW59075   8.082   7.694   4.095  0.4985  0.5095 -0.2687
19133SOL    HW159076   8.131   7.645   4.162 -0.1304 -1.2035 -1.0321
19133SOL    HW259077   8.033   7.627   4.048  0.2921  1.7978 -1.9238
19134SOL     OW59078   5.289   6.665   5.832  0.2917  0.2066 -0.0408
19134SOL    HW159079   5.213   6.673   5.774  0.8103 -0.2547 -0.7898
19134SOL    HW259080   5.253   6.628   5.912 -0.7279  2.3958  0.5647
19135SOL     OW59081   1.292   2.862   4.616  0.1121 -0.0803  0.1763
19135SOL    HW159082   1.369   2.896   4.570  0.9101  0.2757  1.7504
19135SOL    HW259083   1.241   2.940   4.639  0.1315 -0.2059  0.6370
19136SOL     OW59084   0.171   6.790   5.906  0.6093  0.2982 -0.6905
19136SOL    HW159085   0.221   6.737   5.968 -1.6905  0.3091  1.2195
19136SOL    HW259086   0.212   6.876   5.910  0.2543  0.4009  1.1058
19137SOL     OW59087   1.860   1.947   0.245  0.3849 -0.1425  0.5095
19137SOL    HW159088   1.819   1.910   0.323  0.8305  0.3183  0.9688
19137SOL    HW259089   1.887   2.035   0.271  1.2930 -0.2875  0.1037
19138SOL     OW59090   2.788   4.409   0.149  0.0179  0.4640  0.2716
19138SOL    HW159091   2.861   4.350   0.130  2.5361  1.8858  4.7605
19138SOL    HW259092   2.797   4.480   0.086 -1.8724 -2.7128 -3.8905
19139SOL     OW59093   6.303   4.526   6.761 -0.4237 -0.6026 -0.1185
19139SOL    HW159094   6.266   4.561   6.842 -0.0691 -0.9104  0.1789
19139SOL    HW259095   6.316   4.433   6.778  0.6828 -0.4623 -0.1438
19140SOL     OW59096   0.392   9.263   5.402 -0.4750  0.4275  0.0951
19140SOL    HW159097   0.396   9.320   5.478  1.3168 -0.2574  0.5272
19140SOL    HW259098   0.455   9.193   5.420 -2.1307 -1.3385 -0.7191
19141SOL     OW59099   7.025   6.864   3.357 -0.2778  0.7772  0.1064
19141SOL    HW159100   7.112   6.869   3.317 -0.8758  1.5710 -1.0987
19141SOL    HW259101   6.964   6.866   3.284 -1.3340  0.6250  0.9711
19142SOL     OW59102   8.300   6.891   6.931  0.3022 -1.2531 -0.1785
19142SOL    HW159103   8.321   6.806   6.970 -0.0756 -1.1692  0.2109
19142SOL    HW259104   8.360   6.953   6.973  2.5072 -1.7657 -2.4842
19143SOL     OW59105   2.239   6.289   7.254 -0.0845 -0.1460  0.3506
19143SOL    HW159106   2.145   6.270   7.259 -0.2442  0.5498  0.1280
19143SOL    HW259107   2.260   6.327   7.340 -0.1881  0.4634  0.1101
19144SOL     OW59108   6.122   8.422   1.022  0.0931  0.1790 -0.2159
19144SOL    HW159109   6.118   8.467   1.106  1.7834  0.8111 -0.4607
19144SOL    HW259110   6.035   8.436   0.984 -0.3262  0.8120  0.9438
19145SOL     OW59111   0.899   3.117   5.565  0.0410  0.4190  0.5360
19145SOL    HW159112   0.972   3.075   5.519  1.3029  1.3752  1.6344
19145SOL    HW259113   0.824   3.105   5.507  0.7779 -1.7432 -0.0009
19146SOL     OW59114   6.621   7.943   4.289  0.0647  0.6263 -0.3117
19146SOL    HW159115   6.606   7.989   4.372 -0.5420  1.4927 -0.8931
19146SOL    HW259116   6.693   7.991   4.247  1.1667 -0.5272  0.2400
19147SOL     OW59117   7.872   8.002   1.227  0.1791 -0.5684 -0.2312
19147SOL    HW159118   7.831   8.000   1.141 -0.9664 -2.5641  0.3261
19147SOL    HW259119   7.818   8.060   1.279 -0.4584 -1.1540 -0.2325
19148SOL     OW59120   2.633   3.759   4.771 -0.0390  0.0325  0.1809
19148SOL    HW159121   2.709   3.816   4.778  0.1313  0.0759 -1.6652
19148SOL    HW259122   2.668   3.675   4.742 -0.4967 -0.4799  1.0898
19149SOL     OW59123   1.972   5.458   7.269 -0.0081  0.6456 -0.5945
19149SOL    HW159124   1.975   5.374   7.223  0.4791  0.3561 -0.0355
19149SOL    HW259125   1.992   5.437   7.360  2.2181  1.6198 -0.8171
19150SOL     OW59126   4.239   7.498   4.598 -0.2446 -0.0488 -0.0958
19150SOL    HW159127   4.204   7.487   4.687  0.1618 -1.4168 -0.0870
19150SOL    HW259128   4.177   7.556   4.555 -2.1684 -1.8386  0.1615
19151SOL     OW59129   2.021   5.372   4.447  0.0098 -0.3816 -0.4363
19151SOL    HW159130   2.008   5.279   4.467 -1.3538 -0.0795  0.1460
19151SOL    HW259131   1.938   5.400   4.409 -0.0723  0.9333  0.6944
19152SOL     OW59132   0.374   8.568   5.923  0.2879  0.1976 -0.0330
19152SOL    HW159133   0.284   8.537   5.925  0.6855 -1.0783 -1.1177
19152SOL    HW259134   0.403   8.565   6.014 -0.5633  0.0014  0.2311
19153SOL     OW59135   1.712   7.867   1.230  0.1975 -0.3095 -0.2721
19153SOL    HW159136   1.725   7.945   1.176  0.9990  0.2218  0.6544
19153SOL    HW259137   1.621   7.841   1.215 -0.1433  0.9479 -0.4060
19154SOL     OW59138   5.638   1.933   1.080 -0.1238  0.2336  0.1125
19154SOL    HW159139   5.618   2.025   1.064 -1.9296 -0.4136 -1.5010
19154SOL    HW259140   5.722   1.920   1.037  0.7839  1.4253  1.4653
19155SOL     OW59141   3.800   0.922   4.077 -0.0033  0.0408  0.1430
19155SOL    HW159142   3.836   0.933   4.165 -0.5501  1.5165  0.2014
19155SOL    HW259143   3.848   0.848   4.041  2.1807  1.1383  0.6883
19156SOL     OW59144   4.187   6.249   6.351 -0.4342 -0.4503 -0.4143
19156SOL    HW159145   4.262   6.255   6.410 -0.0297  1.4993 -1.1003
19156SOL    HW259146   4.126   6.189   6.395  0.4881 -0.1636  1.2719
19157SOL     OW59147   6.694   6.386   3.163  0.6232 -0.3482 -0.2981
19157SOL    HW159148   6.680   6.347   3.250  0.4864  0.7089  0.1581
19157SOL    HW259149   6.789   6.394   3.156  0.5798  0.8657  0.3442
19158SOL     OW59150   0.102   6.539   7.011  0.2085 -0.1119 -0.5888
19158SOL    HW159151   0.047   6.576   6.942  0.0736  3.2700  1.2123
19158SOL    HW259152   0.152   6.613   7.044  2.7072 -2.3139  0.7377
19159SOL     OW59153   1.028   4.032   8.784 -0.2209 -0.0338 -0.1878
19159SOL    HW159154   0.995   4.038   8.874  0.2874 -0.8388  0.0627
19159SOL    HW259155   1.066   4.118   8.767  2.4905 -0.8120  1.5183
19160SOL     OW59156   3.498   6.733   3.662  0.2602 -0.4752  0.5538
19160SOL    HW159157   3.568   6.795   3.678 -0.8932  0.8314  0.6225
19160SOL    HW259158   3.504   6.713   3.569 -0.0181  0.5659  0.3046
19161SOL     OW59159   6.511   5.916   4.142  0.3004 -0.4077  0.1006
19161SOL    HW159160   6.576   5.972   4.183  0.6701  0.4590 -1.6347
19161SOL    HW259161   6.551   5.829   4.141  0.7857 -0.1920  0.4466
19162SOL     OW59162   0.819   0.686   1.371  0.6001  0.5468 -0.2137
19162SOL    HW159163   0.891   0.712   1.315  0.3178  0.6635 -0.5189
19162SOL    HW259164   0.841   0.597   1.399  0.9316  0.6371 -0.1905
19163SOL     OW59165   5.703   1.512   4.769  0.2391  0.2178 -0.3251
19163SOL    HW159166   5.755   1.495   4.847 -0.6656  0.6488  0.3767
19163SOL    HW259167   5.614   1.483   4.792  0.3143 -1.1956 -1.7601
19164SOL     OW59168   7.109   4.879   8.950  0.0915  0.3700 -0.1276
19164SOL    HW159169   7.103   4.974   8.958  1.1395  0.4274 -0.0521
19164SOL    HW259170   7.193   4.863   8.908  1.0515 -0.6471  2.1121
19165SOL     OW59171   4.930   4.258   5.023 -0.5032  0.3578  0.2199
19165SOL    HW159172   4.882   4.277   4.942  0.2554 -1.3294 -0.6489
19165SOL    HW259173   4.974   4.341   5.044 -0.0308  0.5856 -1.5621
19166SOL     OW59174   7.344   2.571   1.507  0.3834  0.2131 -0.5286
19166SOL    HW159175   7.422   2.567   1.562 -0.0553 -1.1838  0.0286
19166SOL    HW259176   7.272   2.585   1.569 -0.0149 -0.5030 -0.8218
19167SOL     OW59177   8.863   6.999   4.298  0.1320 -0.3884 -0.1222
19167SOL    HW159178   8.918   7.021   4.223 -0.6029 -0.9716 -0.8383
19167SOL    HW259179   8.916   7.023   4.374  0.1496  1.9816 -0.8437
19168SOL     OW59180   0.947   5.690   0.657 -0.1420  0.1165  0.5166
19168SOL    HW159181   0.948   5.748   0.581  0.1559 -0.6362 -0.0607
19168SOL    HW259182   0.863   5.707   0.699 -0.0102  1.0437  0.4174
19169SOL     OW59183   5.286   7.258   5.128 -0.1882 -0.3882 -0.1825
19169SOL    HW159184   5.234   7.198   5.181  0.0193 -1.3220 -1.0064
19169SOL    HW259185   5.358   7.285   5.185 -1.1275  0.2699  0.6892
19170SOL     OW59186   1.746   6.952   1.563  0.7143 -0.0398 -0.4668
19170SOL    HW159187   1.778   6.914   1.481 -0.3344 -2.7864  0.3211
19170SOL    HW259188   1.655   6.974   1.544  0.6006 -0.2685 -0.1892
19171SOL     OW59189   5.390   5.651   1.447  0.0419 -0.4190 -0.3185
19171SOL    HW159190   5.463   5.591   1.464  0.1907 -0.4151 -0.9605
19171SOL    HW259191   5.427   5.738   1.464 -0.1583 -0.5022  0.5570
19172SOL     OW59192   1.032   6.026   7.570  0.3247 -0.4847  0.5894
19172SOL    HW159193   1.080   6.106   7.591  1.7075 -1.2584  0.4098
19172SOL    HW259194   0.964   6.022   7.637  0.2515  0.8225  0.6179
19173SOL     OW59195   8.790   7.520   3.903 -0.0680 -0.4873  0.1335
19173SOL    HW159196   8.847   7.489   3.973  0.8727  2.8333  0.9071
19173SOL    HW259197   8.845   7.516   3.824  0.6760  1.0291  0.5692
19174SOL     OW59198   5.845   3.896   3.148 -0.0291 -0.2487  0.3847
19174SOL    HW159199   5.809   3.864   3.231  1.0053  0.7184  1.2161
19174SOL    HW259200   5.933   3.857   3.144 -1.1513 -2.7308 -1.7079
19175SOL     OW59201   7.223   4.978   3.655  0.3234 -0.1640 -0.2055
19175SOL    HW159202   7.159   4.989   3.725  1.4891 -0.7861  1.0048
19175SOL    HW259203   7.294   4.929   3.696  1.4032  0.1860 -1.6096
19176SOL     OW59204   3.631   0.935   8.653  0.0544  0.0613 -0.5579
19176SOL    HW159205   3.545   0.961   8.619 -0.5016 -1.3887 -0.3395
19176SOL    HW259206   3.632   0.967   8.743 -0.1875  0.2623 -0.6256
19177SOL     OW59207   0.350   5.435   2.433 -0.3327  0.2027  0.6180
19177SOL    HW159208   0.306   5.394   2.358 -0.2417 -1.0816  1.2595
19177SOL    HW259209   0.312   5.523   2.436 -0.3101  0.2939 -0.9554
19178SOL     OW59210   0.978   7.049   7.937  1.1506  0.2978 -0.1026
19178SOL    HW159211   1.026   6.983   7.887  0.8957  0.1829 -0.1962
19178SOL    HW259212   1.029   7.059   8.018 -0.5282 -2.3676  1.3607
19179SOL     OW59213   4.598   6.215   8.508  0.2163  0.0501  0.3075
19179SOL    HW159214   4.692   6.213   8.525  0.3597 -4.0612 -0.5755
19179SOL    HW259215   4.589   6.189   8.416 -1.8009  0.6187  0.3111
19180SOL     OW59216   6.166   8.183   4.199  0.0908 -0.4674 -0.0695
19180SOL    HW159217   6.207   8.099   4.182 -0.2139 -0.1997 -2.3195
19180SOL    HW259218   6.075   8.172   4.171  0.3642  0.9660 -1.6020
19181SOL     OW59219   9.225   5.307   0.402 -0.1283  0.1924  0.2974
19181SOL    HW159220   9.141   5.313   0.448 -0.7419 -0.3133 -0.7453
19181SOL    HW259221   9.216   5.367   0.328  0.4161  0.1095  0.1618
19182SOL     OW59222   7.563   5.186   4.435  0.1645  0.8855 -0.0469
19182SOL    HW159223   7.591   5.204   4.525  0.8362 -2.5481  0.5005
19182SOL    HW259224   7.627   5.233   4.381  2.2548 -0.3523  1.2653
19183SOL     OW59225   5.306   5.718   9.010  0.1103 -0.3000  0.0494
19183SOL    HW159226   5.360   5.781   8.963  0.7110 -0.4990  0.4725
19183SOL    HW259227   5.217   5.753   9.004  0.5449  0.9891  0.9469
19184SOL     OW59228   4.583   2.843   5.010  0.1176 -0.5271 -0.2217
19184SOL    HW159229   4.624   2.781   4.950  0.9586 -0.1330 -0.0536
19184SOL    HW259230   4.645   2.915   5.018  0.5681 -1.1069  2.0415
19185SOL     OW59231   0.797   0.431   6.519  0.1830  0.0900  0.2146
19185SOL    HW159232   0.773   0.488   6.592  1.0618 -0.1097  0.6651
19185SOL    HW259233   0.874   0.382   6.550  0.2085 -0.4224 -0.6246
19186SOL     OW59234   6.805   6.946   0.821 -0.4491  0.5694 -0.6773
19186SOL    HW159235   6.780   6.855   0.840 -2.4525  1.2688  0.1701
19186SOL    HW259236   6.741   6.975   0.756 -1.4119  2.1754  0.9543
19187SOL     OW59237   4.395   1.085   4.382 -0.6118  0.2138 -0.6210
19187SOL    HW159238   4.376   1.159   4.324 -0.7918 -0.8207 -1.9267
19187SOL    HW259239   4.310   1.045   4.400 -0.6248  0.8784  0.8656
19188SOL     OW59240   8.326   7.255   0.246  0.0445  0.3804  0.0683
19188SOL    HW159241   8.281   7.281   0.166  0.5847  0.2767 -0.2723
19188SOL    HW259242   8.260   7.207   0.296 -0.3086  0.4893 -0.2934
19189SOL     OW59243   9.263   1.298   3.462 -0.0832  0.0793  0.2168
19189SOL    HW159244   9.293   1.247   3.537  0.4399 -0.9538 -0.6824
19189SOL    HW259245   9.169   1.311   3.478  0.4778  1.9102  2.2213
19190SOL     OW59246   8.486   0.537   0.258  0.5593 -0.8204 -0.1719
19190SOL    HW159247   8.577   0.522   0.284  0.4879  0.8406  1.1148
19190SOL    HW259248   8.435   0.523   0.338 -0.2962 -1.4623 -0.8145
19191SOL     OW59249   3.578   3.693   6.981 -0.3494 -0.4798 -0.2774
19191SOL    HW159250   3.499   3.744   6.964 -0.7758 -0.9477  0.2684
19191SOL    HW259251   3.568   3.663   7.072  2.2745  2.6742  1.1589
19192SOL     OW59252   8.088   5.601   6.423 -0.1991  0.0245 -0.7071
19192SOL    HW159253   8.118   5.541   6.355 -0.1331  0.4526 -1.0582
19192SOL    HW259254   8.168   5.640   6.459 -0.3784  2.6743 -3.0214
19193SOL     OW59255   3.098   5.215   6.126 -1.2650  0.0591  0.3184
19193SOL    HW159256   3.082   5.224   6.220 -0.7306  0.2589  0.3913
19193SOL    HW259257   3.079   5.301   6.090  1.1236  0.7328  0.6211
19194SOL     OW59258   2.670   0.383   0.616  0.0671  0.0188 -0.8472
19194SOL    HW159259   2.692   0.304   0.565 -0.8725 -0.4998 -0.4431
19194SOL    HW259260   2.588   0.414   0.578 -0.4362 -0.1484  0.1067
19195SOL     OW59261   5.024   6.279   7.813 -0.1785 -0.3170  0.1031
19195SOL    HW159262   5.061   6.294   7.726 -2.1714 -1.2718 -0.9403
19195SOL    HW259263   5.079   6.331   7.872  2.9317 -1.8865 -1.3329
19196SOL     OW59264   8.292   4.259   3.444 -0.2712  0.2396 -0.0558
19196SOL    HW159265   8.213   4.227   3.402 -0.8724  1.3949  0.1645
19196SOL    HW259266   8.261   4.322   3.509  0.7706 -0.0466  0.7287
19197SOL     OW59267   1.433   7.854   1.298 -0.1425 -0.0080 -0.4186
19197SOL    HW159268   1.352   7.826   1.257  0.2667 -1.5252 -0.2079
19197SOL    HW259269   1.437   7.805   1.380  0.6976  0.4981 -0.1472
19198SOL     OW59270   4.225   8.193   2.040 -0.0854 -0.6759 -0.6416
19198SOL    HW159271   4.151   8.198   1.980 -1.2672  0.2511  0.8563
19198SOL    HW259272   4.240   8.283   2.069  0.8399 -1.0212  0.0112
19199SOL     OW59273   7.719   8.993   3.255 -0.2358  0.0473 -0.2056
19199SOL    HW159274   7.811   9.010   3.231 -0.1300  0.5878  0.5767
19199SOL    HW259275   7.702   8.905   3.221  0.0926  0.5586 -1.7453
19200SOL     OW59276   5.460   0.248   8.120  0.1279  0.0815  0.4261
19200SOL    HW159277   5.452   0.325   8.064  0.2455 -0.2046  0.0157
19200SOL    HW259278   5.522   0.274   8.189  1.0388 -0.0221 -0.3511
19201SOL     OW59279   5.468   4.195   7.358  0.2887 -0.1362 -1.2000
19201SOL    HW159280   5.476   4.249   7.279 -1.0002 -0.2707 -1.4315
19201SOL    HW259281   5.474   4.105   7.326 -0.4703 -0.1970 -1.1823
19202SOL     OW59282   6.381   8.611   4.087 -0.0768 -0.6866 -0.0957
19202SOL    HW159283   6.467   8.621   4.126 -0.0783 -1.5607  0.1330
19202SOL    HW259284   6.392   8.640   3.996  0.3380 -0.3409  0.0647
19203SOL     OW59285   4.703   1.330   1.970  0.3807 -0.2107  0.0994
19203SOL    HW159286   4.771   1.394   1.992 -0.4447  0.2671  1.2781
19203SOL    HW259287   4.752   1.253   1.941  1.4271  0.1529  0.8796
19204SOL     OW59288   8.490   2.637   7.529  0.5075  0.4809 -0.6936
19204SOL    HW159289   8.418   2.596   7.480 -1.3120  0.4021  1.9421
19204SOL    HW259290   8.476   2.731   7.517 -0.7620  0.4946  0.7654
19205SOL     OW59291   6.085   5.538   2.901 -0.0597  0.0165  0.6041
19205SOL    HW159292   6.036   5.597   2.958  1.1009  1.6402 -0.0287
19205SOL    HW259293   6.143   5.489   2.960 -1.0610 -0.5396  1.1336
19206SOL     OW59294   6.290   5.898   1.385 -0.8105 -0.2123 -0.0101
19206SOL    HW159295   6.203   5.911   1.347 -0.7332 -0.3620 -0.2408
19206SOL    HW259296   6.308   5.805   1.371 -0.5478 -0.1475 -0.1034
19207SOL     OW59297   0.029   6.668   2.999 -0.1213 -0.0771 -0.0615
19207SOL    HW159298   0.026   6.714   3.083  0.5339  0.4729 -0.3331
19207SOL    HW259299  -0.005   6.581   3.018  0.4289 -0.0961  0.8691
19208SOL     OW59300   7.609   5.629   2.088  0.2204  0.1256  0.0870
19208SOL    HW159301   7.678   5.605   2.026  2.2822  2.6643  1.2896
19208SOL    HW259302   7.606   5.555   2.149  0.0430 -1.1680 -1.4448
19209SOL     OW59303   2.649   1.548   1.171 -0.0623 -0.3724  0.2395
19209SOL    HW159304   2.609   1.567   1.086  0.8070 -1.6569 -0.4764
19209SOL    HW259305   2.742   1.535   1.150  0.0410 -1.3454  1.2895
19210SOL     OW59306   2.308   1.446   2.769  0.2693 -0.2809 -0.1368
19210SOL    HW159307   2.343   1.402   2.691  0.4598 -0.8980  0.2987
19210SOL    HW259308   2.342   1.396   2.843  2.2271  1.8357  0.4710
19211SOL     OW59309   8.521   2.744   5.558 -0.6497  0.3007 -0.2576
19211SOL    HW159310   8.460   2.813   5.584  0.7548  1.5045 -0.1469
19211SOL    HW259311   8.600   2.790   5.530  1.6822 -1.2721  3.2710
19212SOL     OW59312   5.046   8.426   4.802  0.4041 -0.6987  0.2758
19212SOL    HW159313   5.126   8.398   4.847  0.6751 -0.0150  0.2336
19212SOL    HW259314   5.014   8.500   4.854  1.1913  0.6604 -1.1182
19213SOL     OW59315   0.699   6.774   0.423 -0.7986  0.4075  0.6050
19213SOL    HW159316   0.738   6.855   0.457 -1.3116  0.0494  2.1086
19213SOL    HW259317   0.746   6.757   0.342  0.3954  1.3794  1.0666
19214SOL     OW59318   3.297   6.128   7.478  0.1807  0.6261 -0.3909
19214SOL    HW159319   3.306   6.189   7.404 -0.6943  1.3162  0.0700
19214SOL    HW259320   3.359   6.160   7.543 -0.8228  1.4818  0.1544
19215SOL     OW59321   4.088   1.606   5.680 -0.8396 -0.1718  0.2664
19215SOL    HW159322   4.150   1.679   5.682  0.0478 -0.9293  1.5133
19215SOL    HW259323   4.123   1.548   5.613 -1.4912  0.4984 -0.6572
19216SOL     OW59324   5.830   0.891   0.504  0.1910 -0.5179 -0.0334
19216SOL    HW159325   5.797   0.818   0.556  0.4938 -0.8541 -0.3190
19216SOL    HW259326   5.920   0.868   0.482 -0.2024 -0.7686 -1.4245
19217SOL     OW59327   5.765   0.152   1.948 -0.3649  0.3605 -0.4167
19217SOL    HW159328   5.838   0.204   1.916  0.6696  0.2061  1.5814
19217SOL    HW259329   5.776   0.066   1.907 -0.7981  1.0289 -1.9610
19218SOL     OW59330   2.195   3.216   7.689 -0.3951 -0.0754  0.0728
19218SOL    HW159331   2.113   3.204   7.737  0.9038  0.1176  2.4619
19218SOL    HW259332   2.244   3.135   7.704  0.0897  0.0461 -0.8365
19219SOL     OW59333   2.180   5.753   7.698  0.4347  0.0670 -0.2637
19219SOL    HW159334   2.112   5.713   7.644  0.7323 -0.6116 -0.1440
19219SOL    HW259335   2.133   5.784   7.776  0.1571  0.1966 -0.4823
19220SOL     OW59336   1.727   6.828   2.294  0.1515 -0.5592  0.2544
19220SOL    HW159337   1.745   6.735   2.305 -0.1964 -0.6036  0.4372
19220SOL    HW259338   1.690   6.856   2.377  1.0607 -0.0647  0.4884
19221SOL     OW59339   3.666   7.357   6.222  0.0725 -0.0897  0.4980
19221SOL    HW159340   3.625   7.279   6.184 -0.3203  1.2470 -1.9016
19221SOL    HW259341   3.760   7.337   6.223  0.1793  0.0934 -1.9098
19222SOL     OW59342   4.163   2.174   2.406  0.2497 -0.5395 -0.1757
19222SOL    HW159343   4.076   2.212   2.416  0.6328  0.2695  0.0406
19222SOL    HW259344   4.216   2.215   2.474  0.6987 -1.3504 -0.0303
19223SOL     OW59345   8.660   6.075   6.777 -0.7064  0.3462 -0.6496
19223SOL    HW159346   8.749   6.081   6.813 -0.6172  1.3912 -1.0334
19223SOL    HW259347   8.628   6.165   6.777 -1.9392 -0.0913 -0.0963
19224SOL     OW59348   1.635   4.209   3.548 -0.4802 -0.1639  0.5370
19224SOL    HW159349   1.606   4.208   3.639 -0.5872 -2.1059  0.4999
19224SOL    HW259350   1.595   4.131   3.509 -0.3644  0.5883 -1.1611
19225SOL     OW59351   3.168   3.342   4.338 -0.0289 -0.1130 -0.0995
19225SOL    HW159352   3.179   3.328   4.244  0.1218 -0.1595 -0.0749
19225SOL    HW259353   3.209   3.427   4.354 -0.0145 -0.1260 -0.0667
19226SOL     OW59354   1.711   6.679   4.574  0.0785 -0.0476 -0.0482
19226SOL    HW159355   1.775   6.723   4.517  0.1949  0.0001  0.1178
19226SOL    HW259356   1.672   6.750   4.624  0.9420 -0.2336  0.8957
19227SOL     OW59357   3.308   4.743   3.917 -0.2549  0.0090 -1.3562
19227SOL    HW159358   3.389   4.694   3.925 -0.6595 -0.5237 -0.4195
19227SOL    HW259359   3.302   4.794   3.998 -0.7073  0.2760 -1.5491
19228SOL     OW59360   3.150   6.972   0.749 -0.0047  0.2876 -0.1010
19228SOL    HW159361   3.241   6.993   0.731 -0.4484  1.8070 -0.6583
19228SOL    HW259362   3.125   6.910   0.680  0.0844  1.2778 -1.0183
19229SOL     OW59363   2.300   7.071   4.308  0.3944  0.1220  0.3017
19229SOL    HW159364   2.393   7.052   4.316 -0.1258 -2.6294  0.2298
19229SOL    HW259365   2.293   7.125   4.229  1.8559  0.0317  0.0937
19230SOL     OW59366   0.666   2.548   8.466 -0.4272 -0.3700  0.5217
19230SOL    HW159367   0.701   2.611   8.403  1.0961 -0.0614  1.6256
19230SOL    HW259368   0.645   2.471   8.414  1.0214 -0.2081 -0.3503
19231SOL     OW59369   5.780   6.475   1.081  0.3761  0.4165 -0.3442
19231SOL    HW159370   5.857   6.455   1.028 -0.5317  1.0360 -1.9261
19231SOL    HW259371   5.734   6.392   1.089  0.4939  0.3288 -0.5736
19232SOL     OW59372   8.742   3.562   6.100  0.7917 -0.1684  0.2192
19232SOL    HW159373   8.796   3.635   6.130  0.3727  0.9968 -1.7437
19232SOL    HW259374   8.672   3.604   6.048  0.3565 -1.9252 -0.6440
19233SOL     OW59375   9.130   5.886   1.173 -0.6437  1.0201 -0.5422
19233SOL    HW159376   9.223   5.867   1.156 -1.2739 -1.6783 -1.2486
19233SOL    HW259377   9.114   5.967   1.126  1.3234  1.4358 -0.5598
19234SOL     OW59378   3.108   1.406   5.675 -0.4857 -0.1209  0.4145
19234SOL    HW159379   3.155   1.345   5.732  1.5401  0.6441 -0.3970
19234SOL    HW259380   3.058   1.461   5.735 -0.2332 -0.8615  1.3203
19235SOL     OW59381   7.926   4.853   0.817 -0.1380  0.1562 -0.3577
19235SOL    HW159382   7.862   4.785   0.839 -1.0298  0.7725 -0.9883
19235SOL    HW259383   7.971   4.872   0.899 -0.4786 -0.5832  0.0023
19236SOL     OW59384   1.489   2.004   0.342 -0.3481  0.2662  0.1633
19236SOL    HW159385   1.480   1.911   0.361 -0.6709  0.1025 -0.7739
19236SOL    HW259386   1.486   2.010   0.246 -0.8090  1.2874  0.2306
19237SOL     OW59387   2.055   2.570   4.275 -0.0320  0.5966  0.0999
19237SOL    HW159388   2.083   2.501   4.215 -3.4159 -0.5587 -0.2510
19237SOL    HW259389   2.026   2.641   4.217 -2.0792 -0.0222  0.3034
19238SOL     OW59390   7.715   5.566   3.096 -0.0599 -0.7194 -0.2254
19238SOL    HW159391   7.778   5.512   3.143 -0.2950 -1.6593 -0.9774
19238SOL    HW259392   7.730   5.655   3.129  0.4301 -1.2120  0.9076
19239SOL     OW59393   4.762   1.223   0.068 -0.2825  0.1216 -0.4456
19239SOL    HW159394   4.728   1.312   0.077 -0.6266 -0.0003 -0.5220
19239SOL    HW259395   4.847   1.225   0.113 -0.9745  0.0944  0.8822
19240SOL     OW59396   0.384   4.354   2.939 -0.4101 -0.6405 -0.2100
19240SOL    HW159397   0.476   4.333   2.955 -0.2153 -0.0133 -0.4740
19240SOL    HW259398   0.381   4.379   2.846 -0.5814  0.7111  0.1559
19241SOL     OW59399   5.893   0.504   5.596 -0.1260 -0.2037  0.1342
19241SOL    HW159400   5.899   0.425   5.649 -0.8418  0.0165  0.5429
19241SOL    HW259401   5.895   0.472   5.505  1.6527 -0.5371  0.2740
19242SOL     OW59402   0.055   8.341   2.890 -0.3219 -0.2747  0.1260
19242SOL    HW159403   0.123   8.361   2.826  1.1951 -1.2011  1.4111
19242SOL    HW259404   0.089   8.376   2.972 -0.2377 -2.9577  1.2665
19243SOL     OW59405   5.893   0.117   0.335 -0.8998 -0.6061 -0.7733
19243SOL    HW159406   5.970   0.133   0.389 -0.8864 -0.5721 -0.8015
19243SOL    HW259407   5.910   0.166   0.254 -0.6139 -1.2168 -1.0869
19244SOL     OW59408   1.366   7.805   6.878  0.3899 -0.2081  0.6827
19244SOL    HW159409   1.457   7.807   6.905  0.3007  0.8687  0.9114
19244SOL    HW259410   1.335   7.895   6.890 -0.0803 -0.0487 -1.4991
19245SOL     OW59411   8.134   7.312   0.043  0.2190 -0.3973  0.1277
19245SOL    HW159412   8.054   7.269   0.072  0.1446 -0.4346 -0.1327
19245SOL    HW259413   8.113   7.406   0.046 -0.0787 -0.4320 -0.6430
19246SOL     OW59414   8.652   4.822   3.636 -0.0739  0.4302 -0.0074
19246SOL    HW159415   8.625   4.755   3.700  0.9765 -0.2831 -0.2962
19246SOL    HW259416   8.644   4.905   3.684  0.0405 -0.0383  0.8374
19247SOL     OW59417   2.221   2.108   7.201  0.0503 -0.0577  0.9407
19247SOL    HW159418   2.162   2.184   7.195 -0.2583 -0.4854 -1.7257
19247SOL    HW259419   2.238   2.083   7.111  2.4108 -1.4655  1.7438
19248SOL     OW59420   4.372   8.308   7.611 -0.0593  0.2401 -0.0053
19248SOL    HW159421   4.292   8.331   7.564  0.3832 -0.1900 -0.9930
19248SOL    HW259422   4.351   8.323   7.703 -2.0830 -2.1947 -0.0297
19249SOL     OW59423   1.811   0.388   5.846 -0.5368 -0.2740 -0.1693
19249SOL    HW159424   1.852   0.313   5.889 -2.2819 -0.9442  0.3577
19249SOL    HW259425   1.757   0.429   5.914 -0.1770  1.0354 -0.6516
19250SOL     OW59426   0.617   7.373   2.353 -0.2115 -0.2472 -0.2659
19250SOL    HW159427   0.681   7.379   2.283  0.9903  0.2672  0.8652
19250SOL    HW259428   0.642   7.295   2.403  0.2077  0.5967  0.8433
19251SOL     OW59429   2.059   0.962   5.391  0.2930  0.0745  1.0733
19251SOL    HW159430   2.058   0.910   5.311 -2.5784  2.4146 -0.5237
19251SOL    HW259431   2.031   1.050   5.363 -1.6165  0.7503  4.7456
19252SOL     OW59432   0.039   5.539   8.910 -0.0661 -0.3724  0.6716
19252SOL    HW159433  -0.014   5.581   8.978  0.0570  0.0412  0.5132
19252SOL    HW259434   0.073   5.460   8.952  0.5935  0.2505  1.3239
19253SOL     OW59435   4.423   2.543   4.500 -0.0744 -0.4880 -0.0950
19253SOL    HW159436   4.466   2.598   4.566 -1.3957 -2.4569  2.4857
19253SOL    HW259437   4.476   2.464   4.496 -1.2465 -1.2942  0.2178
19254SOL     OW59438   7.902   2.161   7.607 -0.6622 -0.2344 -0.2235
19254SOL    HW159439   7.813   2.154   7.572 -0.8870 -0.8420  0.4548
19254SOL    HW259440   7.911   2.253   7.631 -1.7900 -0.5240  1.4249
19255SOL     OW59441   8.661   0.785   1.836  0.0911 -0.5910 -0.3284
19255SOL    HW159442   8.625   0.874   1.831  0.9599 -0.3674 -3.2494
19255SOL    HW259443   8.743   0.795   1.885  0.2854  0.2346 -0.8183
19256SOL     OW59444   6.761   6.940   2.160  0.1299 -0.0111  0.0263
19256SOL    HW159445   6.841   6.973   2.119 -0.2273  1.1449  0.2431
19256SOL    HW259446   6.788   6.861   2.207  0.7352 -0.7913 -1.6030
19257SOL     OW59447   1.134   1.964   7.492  0.3870  0.0984 -0.4695
19257SOL    HW159448   1.214   2.013   7.474  1.4073 -0.7050  1.6938
19257SOL    HW259449   1.159   1.872   7.479 -0.4136 -0.1073 -0.5901
19258SOL     OW59450   0.806   5.776   6.757  0.1175 -0.0062 -0.0463
19258SOL    HW159451   0.848   5.703   6.802 -1.1858  0.4135  1.9201
19258SOL    HW259452   0.799   5.844   6.824 -1.4839  0.7904 -0.9874
19259SOL     OW59453   7.260   2.791   9.221  0.2431  0.2438 -0.0088
19259SOL    HW159454   7.315   2.719   9.253 -0.6875  1.0442  3.6218
19259SOL    HW259455   7.321   2.852   9.181  1.1995 -1.8954 -1.9306
19260SOL     OW59456   6.883   6.747   8.170 -0.2422  0.3219  0.0721
19260SOL    HW159457   6.916   6.829   8.205  0.8963  0.1412 -0.5623
19260SOL    HW259458   6.846   6.769   8.085 -0.6489  0.3160  0.2477
19261SOL     OW59459   5.866   8.834   3.908  0.0598 -0.0992 -0.1690
19261SOL    HW159460   5.885   8.789   3.825  0.3159 -1.8654  0.8349
19261SOL    HW259461   5.774   8.817   3.924 -0.3787  1.5375 -0.8478
19262SOL     OW59462   5.204   6.700   0.488  0.5141  0.7631 -0.0202
19262SOL    HW159463   5.202   6.696   0.392  1.0347  0.1656 -0.0126
19262SOL    HW259464   5.112   6.695   0.514  0.4438 -0.2856 -0.4544
19263SOL     OW59465   4.865   4.581   8.149  0.2794 -0.8664  1.0729
19263SOL    HW159466   4.890   4.492   8.170  1.1088 -0.6125  1.1678
19263SOL    HW259467   4.947   4.627   8.134 -0.1516 -0.1857  0.7394
19264SOL     OW59468   8.590   8.843   2.721  0.1145 -0.2082 -0.0908
19264SOL    HW159469   8.666   8.787   2.704  1.0625  0.0702  2.8312
19264SOL    HW259470   8.615   8.929   2.687  0.4957 -0.4672 -0.4727
19265SOL     OW59471   1.223   5.910   4.432  0.2855 -0.0272  0.0982
19265SOL    HW159472   1.178   5.878   4.354  1.0018 -1.0733  0.1047
19265SOL    HW259473   1.307   5.944   4.399  1.1740 -1.7209  0.5649
19266SOL     OW59474   3.574   1.519   8.426  0.2322 -0.3518  0.5433
19266SOL    HW159475   3.571   1.424   8.430  1.9334 -0.4141  0.6000
19266SOL    HW259476   3.489   1.548   8.460 -1.4324 -1.9074 -2.0649
19267SOL     OW59477   2.687   3.206   4.215 -0.0410 -0.4362 -0.3275
19267SOL    HW159478   2.667   3.213   4.309  2.2660 -0.0327  0.1665
19267SOL    HW259479   2.610   3.243   4.171 -1.3446 -1.0422  1.3746
19268SOL     OW59480   4.057   3.182   8.958 -0.2034 -0.1535 -0.2832
19268SOL    HW159481   4.073   3.090   8.936  3.9760  0.7839 -1.5616
19268SOL    HW259482   4.128   3.205   9.018 -1.0626  2.3151 -0.1636
19269SOL     OW59483   4.352   1.664   6.972 -0.3906 -0.2835  0.1279
19269SOL    HW159484   4.313   1.740   6.929 -0.3402 -0.2452  0.1492
19269SOL    HW259485   4.382   1.608   6.900 -1.8024 -1.0085  0.0934
19270SOL     OW59486   4.808   0.513   1.567 -0.2454  0.1637 -0.2709
19270SOL    HW159487   4.828   0.441   1.507 -0.7798  0.7500 -1.1629
19270SOL    HW259488   4.890   0.562   1.574 -0.8007  1.4527 -2.4007
19271SOL     OW59489   4.754   6.401   6.881 -0.1247  0.5051  0.7559
19271SOL    HW159490   4.664   6.399   6.913 -0.2431 -1.3918  0.3864
19271SOL    HW259491   4.746   6.380   6.788  0.7411 -0.0828  0.8138
19272SOL     OW59492   7.942   3.583   7.632  0.0325  0.2592 -0.2929
19272SOL    HW159493   8.031   3.558   7.605  0.7071  0.0898  1.9324
19272SOL    HW259494   7.955   3.666   7.678 -1.0838  0.6049 -0.6016
19273SOL     OW59495   7.954   4.685   3.189  0.1443 -0.0590 -0.1126
19273SOL    HW159496   7.979   4.597   3.159  1.9486  0.5976 -0.6305
19273SOL    HW259497   7.874   4.705   3.142  2.0020  0.2559 -3.2725
19274SOL     OW59498   2.715   5.768   8.066  0.3616  0.0682 -0.6357
19274SOL    HW159499   2.674   5.795   7.984  0.8619  1.4589 -0.4479
19274SOL    HW259500   2.804   5.743   8.042  1.2985  2.7529 -0.2376
19275SOL     OW59501   5.838   7.469   1.475 -0.0862 -0.0532 -1.0092
19275SOL    HW159502   5.839   7.382   1.436 -2.3921  0.7083 -2.8542
19275SOL    HW259503   5.749   7.501   1.461  0.1722  1.8453  1.3675
19276SOL     OW59504   4.400   6.276   6.186  0.3559  0.3373 -0.7931
19276SOL    HW159505   4.458   6.301   6.258  1.2389 -3.0407 -0.2289
19276SOL    HW259506   4.313   6.271   6.225  0.0381  2.9382 -1.0653
19277SOL     OW59507   7.421   5.926   4.110  0.6497 -0.6298  0.4786
19277SOL    HW159508   7.482   5.869   4.157  0.2847  1.6489  3.8815
19277SOL    HW259509   7.403   5.998   4.170 -1.6318  1.3042 -2.3287
19278SOL     OW59510   9.156   0.003   0.241 -0.1719 -0.5142 -0.3376
19278SOL    HW159511   9.186   0.094   0.238 -0.3243 -0.3750  1.8109
19278SOL    HW259512   9.236  -0.048   0.251 -0.3126 -0.3848  1.6535
19279SOL     OW59513   3.026   6.075   0.355  0.3802  0.0115  0.2114
19279SOL    HW159514   3.118   6.079   0.329  0.2873 -0.4512 -0.1973
19279SOL    HW259515   3.017   5.995   0.405 -0.2324 -1.0658 -1.5462
19280SOL     OW59516   1.958   7.910   3.568  0.1644 -0.2043  0.1463
19280SOL    HW159517   2.025   7.978   3.562  0.8584 -0.6192  2.5627
19280SOL    HW259518   1.999   7.840   3.619 -1.0357 -1.8202 -1.0607
19281SOL     OW59519   5.657   8.953   0.811  0.1013  0.0055 -0.5396
19281SOL    HW159520   5.723   8.884   0.805 -0.8072 -0.9706  0.4610
19281SOL    HW259521   5.577   8.913   0.778 -0.1161  1.0337 -1.2967
19282SOL     OW59522   3.006   0.709   1.493 -0.3757  0.6437 -0.5509
19282SOL    HW159523   2.959   0.792   1.494  0.3943  1.0968  1.0035
19282SOL    HW259524   2.961   0.655   1.559  0.7197  0.7832  0.3410
19283SOL     OW59525   7.154   7.605   9.035  0.7112  0.1854 -0.3591
19283SOL    HW159526   7.243   7.568   9.034 -0.1184 -1.8424 -1.4777
19283SOL    HW259527   7.165   7.691   9.075  2.9868 -0.5528  0.7016
19284SOL     OW59528   0.400   2.519   6.649  0.6364  0.0548  0.5977
19284SOL    HW159529   0.380   2.488   6.560 -0.6242  1.7084  0.2763
19284SOL    HW259530   0.463   2.590   6.636  1.9184 -0.9610  1.1761
19285SOL     OW59531   6.004   4.723   4.112  0.7357 -0.1331  0.4666
19285SOL    HW159532   5.988   4.635   4.078 -0.0796 -0.8075  2.5427
19285SOL    HW259533   6.013   4.777   4.034 -2.4114 -1.4042 -0.8691
19286SOL     OW59534   4.949   0.559   7.322  0.2134  0.4184 -0.6285
19286SOL    HW159535   4.939   0.595   7.234 -1.5857 -0.6091 -0.8871
19286SOL    HW259536   4.859   0.555   7.356  0.4924 -2.4060 -0.0853
19287SOL     OW59537   4.942   0.907   2.867 -0.2305  0.3389 -0.3954
19287SOL    HW159538   4.946   1.002   2.877  0.8410  0.1210  1.5003
19287SOL    HW259539   5.032   0.878   2.883 -0.8452 -1.1103  0.5027
19288SOL     OW59540   4.015   0.279   0.254  0.5049  0.0878  0.1021
19288SOL    HW159541   3.990   0.238   0.172  1.5226  0.4492 -0.3905
19288SOL    HW259542   3.963   0.234   0.321 -1.5785  0.9186 -0.9164
19289SOL     OW59543   7.784   6.103   8.174  0.2995 -0.6115  0.2915
19289SOL    HW159544   7.879   6.098   8.181  0.4800  3.2645  1.8631
19289SOL    HW259545   7.767   6.171   8.109 -1.3105  1.2928  2.5913
19290SOL     OW59546   4.048   3.989   1.952 -0.0395 -0.0431 -0.0838
19290SOL    HW159547   4.019   3.975   2.042 -0.9825 -0.1079 -0.3895
19290SOL    HW259548   3.980   3.948   1.898  0.4751  0.0616 -0.8290
19291SOL     OW59549   4.561   5.063   1.290 -0.4208  0.3748  0.2616
19291SOL    HW159550   4.471   5.052   1.260 -0.6089  0.6766  0.7058
19291SOL    HW259551   4.611   5.079   1.210 -0.4540 -1.6107 -0.1894
19292SOL     OW59552   2.366   3.300   4.775  0.4479  0.7250  0.0481
19292SOL    HW159553   2.348   3.216   4.732  0.1827  0.9211 -0.2208
19292SOL    HW259554   2.457   3.293   4.804 -0.6682 -1.2231  3.4726
19293SOL     OW59555   0.323   7.349   3.154 -0.5973 -0.0341 -0.0641
19293SOL    HW159556   0.362   7.322   3.237 -2.0904 -1.0476  0.3115
19293SOL    HW259557   0.351   7.282   3.092 -0.5443  0.0278 -0.1079
19294SOL     OW59558   5.990   4.597   7.317 -0.4953 -0.0588  0.0496
19294SOL    HW159559   6.026   4.685   7.310  1.5270 -1.0446 -3.6392
19294SOL    HW259560   6.039   4.556   7.388 -0.2674  1.2679  0.6609
19295SOL     OW59561   8.032   7.778   2.522 -0.4463  0.0266  0.2198
19295SOL    HW159562   8.071   7.860   2.494  1.9309 -0.6128  1.4326
19295SOL    HW259563   8.034   7.782   2.618  0.6164 -1.7991  0.3129
19296SOL     OW59564   5.813   5.617   4.043 -0.0798 -0.2205 -0.0259
19296SOL    HW159565   5.785   5.645   4.130 -0.6180 -0.4484 -0.1238
19296SOL    HW259566   5.833   5.524   4.053  0.6129 -0.0688  0.0349
19297SOL     OW59567   1.260   1.245   3.606 -0.0963 -0.2215 -0.0812
19297SOL    HW159568   1.349   1.243   3.641 -0.3149 -0.6349  0.4419
19297SOL    HW259569   1.272   1.264   3.513  0.5332 -0.1620  0.0088
19298SOL     OW59570   1.385   2.824   4.133 -0.3052  0.0810  0.1638
19298SOL    HW159571   1.469   2.778   4.134 -1.4023 -1.9930  1.2085
19298SOL    HW259572   1.395   2.895   4.197  0.8240  0.2050 -0.1449
19299SOL     OW59573   4.651   6.847   7.239  0.2301 -0.1520 -0.1952
19299SOL    HW159574   4.654   6.811   7.151  0.3112 -1.8171  0.4740
19299SOL    HW259575   4.738   6.884   7.253  0.7491 -1.3779 -0.1924
19300SOL     OW59576   5.022   4.218   6.824  0.2352 -0.2506 -0.4544
19300SOL    HW159577   5.088   4.209   6.756  0.0655  1.3654 -0.8381
19300SOL    HW259578   5.029   4.309   6.853  0.6964 -1.0494  2.0844
19301SOL     OW59579   7.719   5.787   5.197  0.1500  0.1481  0.1013
19301SOL    HW159580   7.642   5.742   5.163 -1.4108  2.9030 -0.1956
19301SOL    HW259581   7.689   5.827   5.278  1.4293  0.7614  0.2817
19302SOL     OW59582   7.865   0.143   7.705  0.6487  0.0231 -0.2318
19302SOL    HW159583   7.921   0.212   7.669  1.6280 -0.9415 -0.5924
19302SOL    HW259584   7.794   0.134   7.642  0.7439  0.4048 -0.3954
19303SOL     OW59585   2.922   0.558   4.507 -0.1016  0.0852  0.3635
19303SOL    HW159586   2.993   0.592   4.452 -0.0985 -1.6431 -0.7469
19303SOL    HW259587   2.963   0.487   4.557 -0.2962  1.1458  2.0348
19304SOL     OW59588   7.938   0.866   0.068 -0.0558 -0.4749  0.8833
19304SOL    HW159589   7.929   0.771   0.066  0.0033 -0.5055  2.1423
19304SOL    HW259590   7.898   0.893   0.150 -0.1235  0.5972  0.5059
19305SOL     OW59591   1.604   3.773   1.147  0.6666  0.2501 -0.5014
19305SOL    HW159592   1.563   3.715   1.210  1.3840 -0.0883 -0.3438
19305SOL    HW259593   1.531   3.809   1.096  0.2094 -0.6123 -0.4559
19306SOL     OW59594   4.395   1.051   7.725  0.2194 -0.1361  0.1929
19306SOL    HW159595   4.432   1.021   7.643 -0.4955  1.3065 -0.6751
19306SOL    HW259596   4.439   0.998   7.792  1.9628 -0.2314 -0.9840
19307SOL     OW59597   3.827   2.225   8.740  0.5702 -0.5737  0.2039
19307SOL    HW159598   3.766   2.278   8.689  2.7881  1.1104 -0.7405
19307SOL    HW259599   3.780   2.206   8.822 -1.4520  0.1150 -0.7711
19308SOL     OW59600   4.111   4.379   4.426 -0.4481  0.4964  0.7547
19308SOL    HW159601   4.101   4.284   4.436 -0.2416  0.0760 -2.4222
19308SOL    HW259602   4.206   4.394   4.433 -0.3920  0.3455  0.3028
19309SOL     OW59603   0.982   5.143   0.500  0.2773 -0.5338 -0.3453
19309SOL    HW159604   0.966   5.211   0.434  1.3138  1.1620  1.1121
19309SOL    HW259605   1.076   5.126   0.494 -0.2167 -3.1415 -1.8789
19310SOL     OW59606   7.759   6.856   4.902  0.1947 -0.3129  0.3181
19310SOL    HW159607   7.760   6.951   4.893 -0.8063 -0.3262  0.0078
19310SOL    HW259608   7.851   6.830   4.899  0.6523  0.8675  2.9217
19311SOL     OW59609   2.758   7.582   7.816 -0.1721 -0.0182  0.1872
19311SOL    HW159610   2.830   7.644   7.803  0.0571 -0.4783 -0.7835
19311SOL    HW259611   2.746   7.579   7.911  1.6203 -0.5312  0.4235
19312SOL     OW59612   7.709   1.581   6.796 -0.0686 -0.2706 -0.0113
19312SOL    HW159613   7.703   1.504   6.853 -1.8581 -1.7574 -2.1208
19312SOL    HW259614   7.784   1.563   6.739  2.2681  1.6116  2.3457
19313SOL     OW59615   6.946   6.299   8.168  0.2836 -0.2290  0.1492
19313SOL    HW159616   6.852   6.284   8.161  0.1922 -0.4689  1.6007
19313SOL    HW259617   6.985   6.213   8.153  0.2391 -0.2232  0.0040
19314SOL     OW59618   1.759   2.319   7.884 -0.0485 -0.3851 -0.4450
19314SOL    HW159619   1.792   2.236   7.849  0.4487 -0.1809 -0.4687
19314SOL    HW259620   1.685   2.342   7.827 -0.8061 -1.3030  0.1564
19315SOL     OW59621   4.277   6.099   1.518  0.1080 -0.1186  0.0354
19315SOL    HW159622   4.266   6.029   1.453 -1.2048 -0.6190  0.7865
19315SOL    HW259623   4.342   6.066   1.579  1.8672  0.6287 -1.3720
19316SOL     OW59624   3.941   3.586   3.783  0.4511 -0.0034 -0.2141
19316SOL    HW159625   3.848   3.598   3.803  0.5242  0.6398 -0.2474
19316SOL    HW259626   3.965   3.665   3.735  0.6637 -0.8250 -1.4620
19317SOL     OW59627   1.028   9.058   8.784 -0.3556 -0.6363  0.1243
19317SOL    HW159628   1.036   9.083   8.692 -1.2993  0.6760  0.3868
19317SOL    HW259629   1.015   8.963   8.783  2.6489 -1.1019 -0.9308
19318SOL     OW59630   0.965   2.304   6.768 -0.2707 -0.4521 -0.0153
19318SOL    HW159631   0.977   2.209   6.770  0.2763 -0.3685  0.5922
19318SOL    HW259632   0.873   2.316   6.743 -0.4772 -1.1433  0.4126
19319SOL     OW59633   1.566   0.844   9.004  0.6175 -0.8075 -1.1430
19319SOL    HW159634   1.631   0.845   9.074 -1.6717  0.3217  1.0214
19319SOL    HW259635   1.612   0.879   8.928  1.9304  2.0604  0.9278
19320SOL     OW59636   3.542   8.598   2.728  0.4185 -0.2034  0.0460
19320SOL    HW159637   3.536   8.671   2.666 -1.2002 -0.3672 -0.0150
19320SOL    HW259638   3.570   8.523   2.674  3.4575  0.6578  0.3690
19321SOL     OW59639   3.317   3.180   0.891 -0.0689 -0.0144  0.2077
19321SOL    HW159640   3.324   3.095   0.934  0.9387 -0.6854 -1.2509
19321SOL    HW259641   3.289   3.240   0.961 -1.3564 -1.6343  1.1234
19322SOL     OW59642   2.227   7.799   2.986 -0.6238 -0.1233 -0.0155
19322SOL    HW159643   2.144   7.830   2.948 -0.8476 -0.9766 -0.2553
19322SOL    HW259644   2.216   7.812   3.080 -1.1916 -0.5788 -0.0097
19323SOL     OW59645   5.090   3.192   1.294  0.0627 -0.2519  0.3266
19323SOL    HW159646   4.996   3.194   1.315  0.1100 -0.0962  0.5250
19323SOL    HW259647   5.113   3.283   1.277  0.2047 -0.2731  0.4055
19324SOL     OW59648   9.062   2.221   5.763 -0.0963 -0.1614 -0.2608
19324SOL    HW159649   9.038   2.279   5.835 -2.0683 -0.5446 -0.6050
19324SOL    HW259650   9.102   2.146   5.806  0.3096  0.3756  0.3208
19325SOL     OW59651   5.598   1.445   6.010  0.0262  0.0974 -0.4582
19325SOL    HW159652   5.522   1.486   6.051 -0.1356  0.1298 -0.7902
19325SOL    HW259653   5.665   1.513   6.009  1.2569 -0.9347  3.0307
19326SOL     OW59654   6.858   7.378   5.152  0.6199 -0.5604  0.1239
19326SOL    HW159655   6.770   7.361   5.187  1.2117 -0.2859  1.8197
19326SOL    HW259656   6.892   7.292   5.129  0.3853 -0.8114  0.6919
19327SOL     OW59657   5.364   3.477   0.463 -0.7620  0.0892  0.4883
19327SOL    HW159658   5.337   3.494   0.553  0.8751  0.5675  0.9108
19327SOL    HW259659   5.292   3.427   0.425 -2.4810  1.8010  1.3893
19328SOL     OW59660   0.814   2.450   4.003  0.0939  1.0404  0.0634
19328SOL    HW159661   0.822   2.359   4.030  1.1116  1.0656 -0.1248
19328SOL    HW259662   0.816   2.447   3.907 -0.2589  1.2278  0.0488
19329SOL     OW59663   3.304   4.608   2.305 -0.3130  0.3356 -0.2546
19329SOL    HW159664   3.327   4.644   2.391 -0.2785 -0.2834 -0.0058
19329SOL    HW259665   3.366   4.537   2.290  0.9441  1.6907 -1.6584
19330SOL     OW59666   1.679   7.610   8.704 -0.0346  0.1838 -0.5061
19330SOL    HW159667   1.591   7.647   8.710 -0.6546 -0.8401 -2.7555
19330SOL    HW259668   1.736   7.680   8.736 -1.8305 -0.2257  3.8843
19331SOL     OW59669   2.519   6.579   6.213 -0.0919 -0.4633 -0.0493
19331SOL    HW159670   2.501   6.551   6.124 -0.8729 -0.7145  0.1876
19331SOL    HW259671   2.567   6.661   6.203  0.2120 -0.7201 -0.7032
19332SOL     OW59672   1.897   0.256   8.222 -0.0639 -0.1290 -0.0005
19332SOL    HW159673   1.858   0.343   8.209  3.0542  1.2280 -0.6028
19332SOL    HW259674   1.875   0.208   8.142  0.1872  0.8746 -0.6825
19333SOL     OW59675   7.080   0.025   0.551 -0.3137  0.6014  0.1663
19333SOL    HW159676   7.067   0.109   0.507  1.9398  0.0356 -1.6764
19333SOL    HW259677   7.144  -0.021   0.497 -0.1106 -1.5634  2.1538
19334SOL     OW59678   5.166   8.046   3.887  0.5167  0.2520 -0.3236
19334SOL    HW159679   5.222   8.087   3.953  1.6052 -1.6442 -0.0390
19334SOL    HW259680   5.125   7.972   3.933  0.8969 -0.7881 -1.6052
19335SOL     OW59681   7.532   0.634   1.514 -0.4459  0.4919 -0.3254
19335SOL    HW159682   7.594   0.699   1.481  0.3822  0.9827  2.0870
19335SOL    HW259683   7.497   0.673   1.595 -1.2951 -1.2750  0.1906
19336SOL     OW59684   6.927   4.285   7.229  0.2422  0.1760 -0.3956
19336SOL    HW159685   6.982   4.332   7.167  2.1692 -0.3854  0.8594
19336SOL    HW259686   6.963   4.196   7.232  0.2779  0.2266  1.6318
19337SOL     OW59687   7.841   1.060   7.712 -0.6053 -0.0918 -0.2044
19337SOL    HW159688   7.892   1.130   7.669 -1.8898  1.2603  0.4407
19337SOL    HW259689   7.893   1.037   7.789  0.7403 -1.1618 -1.4039
19338SOL     OW59690   5.597   0.021   5.859  0.2119 -0.2089 -0.2709
19338SOL    HW159691   5.587  -0.069   5.890 -0.8577 -0.1390 -0.3869
19338SOL    HW259692   5.613   0.072   5.939  1.7321 -0.6256 -0.3063
19339SOL     OW59693   0.339   6.268   4.147  0.4665  0.2254 -0.4064
19339SOL    HW159694   0.384   6.305   4.223  0.6679  1.9661 -1.3364
19339SOL    HW259695   0.247   6.293   4.159  0.7687  2.0272 -1.5655
19340SOL     OW59696   5.689   0.394   9.207  0.0310  0.0938  0.6613
19340SOL    HW159697   5.765   0.363   9.257 -0.1246 -0.7837  0.3593
19340SOL    HW259698   5.631   0.431   9.274 -0.8471 -2.4275  1.3649
19341SOL     OW59699   4.568   0.495   5.666  0.2125 -0.4290  0.8038
19341SOL    HW159700   4.653   0.515   5.628 -0.0345  0.6147  0.7789
19341SOL    HW259701   4.582   0.501   5.761 -0.3500  2.1072  0.7819
19342SOL     OW59702   8.630   8.606   2.482 -0.0340  0.3461  0.4960
19342SOL    HW159703   8.703   8.651   2.523  1.6446 -1.5197 -0.3554
19342SOL    HW259704   8.633   8.633   2.390 -1.9739  2.1938  0.9208
19343SOL     OW59705   7.511   4.949   8.968  0.5670 -0.3366 -0.2541
19343SOL    HW159706   7.469   5.013   9.025  1.6608 -0.1662  0.3794
19343SOL    HW259707   7.516   4.869   9.020  2.1039 -0.0150  0.1342
19344SOL     OW59708   3.249   8.122   0.112  0.2084 -0.7810  0.8805
19344SOL    HW159709   3.252   8.187   0.042  1.0524 -2.0831 -0.3266
19344SOL    HW259710   3.333   8.132   0.158  1.2040 -2.3695 -0.5709
19345SOL     OW59711   1.597   5.857   5.315 -0.0951  0.3795 -0.0738
19345SOL    HW159712   1.568   5.846   5.224  2.0585  0.2978 -0.7695
19345SOL    HW259713   1.518   5.882   5.362 -1.2661  0.3252 -1.9549
19346SOL     OW59714   3.242   7.853   8.452  0.4746  1.0628  0.0815
19346SOL    HW159715   3.244   7.849   8.356 -0.3265  1.2673  0.0542
19346SOL    HW259716   3.256   7.946   8.472  0.3545  1.0658  0.1538
19347SOL     OW59717   8.636   3.157   4.677  0.1454  0.1635 -0.3327
19347SOL    HW159718   8.571   3.109   4.728 -1.7764  1.4449 -1.5322
19347SOL    HW259719   8.714   3.100   4.678 -0.8386 -1.1950  1.4520
19348SOL     OW59720   8.720   2.056   9.055  0.0418 -0.1743  0.0495
19348SOL    HW159721   8.629   2.082   9.065  0.5928  1.7838  0.1362
19348SOL    HW259722   8.730   1.982   9.115 -1.6782 -0.9242 -0.5578
19349SOL     OW59723   1.922   8.431   4.746  1.0129  0.1339  0.3516
19349SOL    HW159724   1.987   8.386   4.692 -0.2579  0.1590 -1.2749
19349SOL    HW259725   1.968   8.455   4.826  2.5401 -1.3171 -0.0632
19350SOL     OW59726   8.047   3.169   8.909  0.3461 -0.5023 -0.1259
19350SOL    HW159727   8.138   3.140   8.918  0.7015  0.1131 -1.4924
19350SOL    HW259728   8.026   3.152   8.817 -1.7654 -2.9791  0.7478
19351SOL     OW59729   7.678   8.104   3.411  0.1705  0.1122 -0.0773
19351SOL    HW159730   7.746   8.089   3.477  2.0602  0.6977 -1.8519
19351SOL    HW259731   7.598   8.118   3.462  1.0067 -2.3227  2.0141
19352SOL     OW59732   4.354   5.994   3.566  0.0632  0.2795  0.2832
19352SOL    HW159733   4.357   6.045   3.647  0.1623 -0.7124  0.9084
19352SOL    HW259734   4.432   6.020   3.518  0.3223  0.4202  0.7802
19353SOL     OW59735   5.279   8.183   3.485 -0.3946  0.2366 -0.1923
19353SOL    HW159736   5.246   8.182   3.575 -1.0525  0.7641 -0.4220
19353SOL    HW259737   5.367   8.218   3.493  0.8046 -2.8270  0.6365
19354SOL     OW59738   6.710   7.848   4.719 -0.0321 -0.1518  0.4589
19354SOL    HW159739   6.687   7.841   4.811  1.6796 -1.7630  0.7836
19354SOL    HW259740   6.660   7.923   4.687 -2.8541 -1.3470  1.9790
19355SOL     OW59741   7.518   3.120   2.934  0.1101 -0.1763 -0.5003
19355SOL    HW159742   7.449   3.080   2.986 -0.3048  0.9958 -0.1300
19355SOL    HW259743   7.599   3.078   2.963 -0.3950 -1.2257 -0.6147
19356SOL     OW59744   8.044   6.752   4.957  0.8246  0.1516  0.5746
19356SOL    HW159745   8.051   6.684   5.024 -0.9715  0.3359  0.9913
19356SOL    HW259746   8.129   6.751   4.913  0.7779 -2.5437  0.4083
19357SOL     OW59747   7.426   5.048   9.219 -0.0372 -0.0984  0.0736
19357SOL    HW159748   7.353   4.988   9.228 -0.0299 -0.0291  0.6319
19357SOL    HW259749   7.445   5.077   9.308 -1.0737  1.9786 -0.3390
19358SOL     OW59750   2.906   2.966   0.253 -0.4859  0.1860 -0.0262
19358SOL    HW159751   2.921   3.059   0.267 -2.0753  0.8875 -2.5445
19358SOL    HW259752   2.906   2.956   0.158 -0.5259 -2.3560  0.2097
19359SOL     OW59753   0.467   5.484   0.403  0.5926 -0.1689  0.1648
19359SOL    HW159754   0.559   5.500   0.382  1.1318 -0.8130  1.9561
19359SOL    HW259755   0.469   5.429   0.482 -1.3165 -0.9930 -0.3170
19360SOL     OW59756   3.405   8.909   8.744 -0.4894  0.5259  0.5477
19360SOL    HW159757   3.422   8.860   8.664  0.4611 -0.1588  1.1539
19360SOL    HW259758   3.402   8.842   8.813 -1.7850  1.0516  1.0174
19361SOL     OW59759   7.614   0.589   0.082 -0.6227 -0.5526 -0.1832
19361SOL    HW159760   7.707   0.571   0.075 -0.4336  0.0306  0.6873
19361SOL    HW259761   7.601   0.670   0.031 -0.3281  0.3407  1.1294
19362SOL     OW59762   6.124   2.171   7.386 -0.0436 -0.1599 -0.0340
19362SOL    HW159763   6.071   2.248   7.406 -0.7077 -0.9592  1.3232
19362SOL    HW259764   6.122   2.119   7.466  1.4609 -0.9795 -0.5140
19363SOL     OW59765   8.274   4.651   3.033  0.0445 -0.1387 -0.4181
19363SOL    HW159766   8.330   4.694   2.969  2.5918 -2.5052  0.1599
19363SOL    HW259767   8.328   4.642   3.111 -2.2967  0.6936  1.3802
19364SOL     OW59768   9.001   8.534   1.187  0.7851 -0.2738 -0.3798
19364SOL    HW159769   9.032   8.467   1.126 -1.6119 -0.9807 -0.8855
19364SOL    HW259770   8.960   8.600   1.131  1.0304  0.4400  0.2784
19365SOL     OW59771   3.695   4.732   0.446 -0.1485 -0.3600 -0.2021
19365SOL    HW159772   3.619   4.674   0.446 -0.8906  0.6125 -1.0404
19365SOL    HW259773   3.714   4.747   0.353  0.6283 -0.0080  0.0045
19366SOL     OW59774   3.571   5.502   7.514  0.8656 -0.9520 -0.2291
19366SOL    HW159775   3.520   5.427   7.543  0.5799 -1.1010 -1.0944
19366SOL    HW259776   3.550   5.572   7.576 -0.0810 -1.1268 -0.3453
19367SOL     OW59777   6.416   5.888   8.745  0.0207  0.6802  0.3571
19367SOL    HW159778   6.341   5.939   8.715 -0.6711 -0.6582 -0.2164
19367SOL    HW259779   6.470   5.875   8.667 -0.8246 -1.1732  0.0488
19368SOL     OW59780   8.896   2.278   6.920  0.2659  0.5399  0.5009
19368SOL    HW159781   8.928   2.239   6.839  3.1055  1.9905  0.8837
19368SOL    HW259782   8.951   2.241   6.989 -1.7911 -0.2938  1.7565
19369SOL     OW59783   6.877   1.060   8.004  0.0062 -0.4117  0.5884
19369SOL    HW159784   6.928   1.041   8.083  0.2211  0.3129  0.6262
19369SOL    HW259785   6.797   1.008   8.015  0.5539 -1.2287  0.7256
19370SOL     OW59786   1.808   8.285   2.765  0.1636  0.3778 -0.4840
19370SOL    HW159787   1.739   8.279   2.831  1.0354 -0.4352  0.3757
19370SOL    HW259788   1.768   8.253   2.685  0.3219 -2.7825  0.6295
19371SOL     OW59789   5.869   5.231   0.827  0.5141 -0.1951  0.1456
19371SOL    HW159790   5.962   5.247   0.841  0.7704 -0.1742 -1.5360
19371SOL    HW259791   5.858   5.138   0.844  0.7390 -0.1056  0.8153
19372SOL     OW59792   0.635   8.706   1.765  0.6055 -0.0461  0.6149
19372SOL    HW159793   0.694   8.658   1.707 -1.4925  0.3264 -1.8707
19372SOL    HW259794   0.667   8.796   1.762  2.3535 -0.5588  2.4914
19373SOL     OW59795   2.311   0.130   6.591 -0.1141  0.2427  0.3178
19373SOL    HW159796   2.304   0.217   6.631 -2.2367  0.0064  0.5235
19373SOL    HW259797   2.225   0.115   6.552  0.6066 -1.2919 -0.7096
19374SOL     OW59798   8.054   5.456   3.034 -0.1177 -0.1624  0.2120
19374SOL    HW159799   7.991   5.476   2.964 -0.4079 -0.2438  0.4478
19374SOL    HW259800   8.133   5.428   2.988 -1.0362 -2.4446 -0.0759
19375SOL     OW59801   4.674   3.779   2.975  0.1003 -0.2963  0.3717
19375SOL    HW159802   4.705   3.696   3.011  0.0639 -0.9630 -1.0875
19375SOL    HW259803   4.723   3.790   2.893 -0.6113  0.6232  0.0556
19376SOL     OW59804   1.096   7.842   3.040  0.3334  0.1129 -0.1378
19376SOL    HW159805   1.053   7.849   2.955  1.5159  1.8939 -0.6269
19376SOL    HW259806   1.187   7.865   3.023  0.5850  0.4908  1.6134
19377SOL     OW59807   9.031   7.973   1.234 -0.7264  0.5259 -0.2388
19377SOL    HW159808   9.010   8.065   1.245 -0.8821  0.3524  1.0004
19377SOL    HW259809   8.951   7.927   1.259 -0.3805  0.0265 -0.0382
19378SOL     OW59810   3.260   7.322   5.297  0.8310  0.0195 -0.0720
19378SOL    HW159811   3.318   7.320   5.221  0.7266  0.1609 -0.1570
19378SOL    HW259812   3.297   7.390   5.353  0.6406  0.2479 -0.2162
19379SOL     OW59813   1.446   1.890   1.250  0.1791 -0.1632  0.6366
19379SOL    HW159814   1.371   1.950   1.246 -0.5898 -1.1128  0.6046
19379SOL    HW259815   1.511   1.936   1.304 -0.6689  0.4057  1.1847
19380SOL     OW59816   9.000   8.899   0.952  0.1155 -0.3214 -0.4657
19380SOL    HW159817   9.014   8.865   0.864 -0.4116  1.2978 -1.2006
19380SOL    HW259818   8.965   8.825   1.001  0.3221 -1.2186 -1.6412
19381SOL     OW59819   4.972   1.226   1.314 -0.5918  0.3711 -0.2828
19381SOL    HW159820   4.988   1.318   1.334  2.8198 -0.3635  0.7106
19381SOL    HW259821   5.026   1.208   1.237 -0.4769 -1.0241  0.1007
19382SOL     OW59822   3.094   2.584   8.049 -0.0347 -0.4349  0.2634
19382SOL    HW159823   3.056   2.656   7.998  0.1972 -1.2672 -1.0974
19382SOL    HW259824   3.108   2.514   7.986  1.7588 -0.9164  1.1712
19383SOL     OW59825   7.799   8.233   2.117  0.5396 -0.4088  0.0590
19383SOL    HW159826   7.839   8.152   2.087 -0.1533  0.0568 -2.1951
19383SOL    HW259827   7.705   8.219   2.105 -0.0380 -1.1838  4.5043
19384SOL     OW59828   3.324   0.721   7.561 -0.1360 -0.3720 -0.4517
19384SOL    HW159829   3.407   0.748   7.600 -1.2673  2.5116  0.1050
19384SOL    HW259830   3.337   0.733   7.467 -0.6813  2.4831 -0.2004
19385SOL     OW59831   5.491   3.551   7.288 -0.1455  0.3713  0.1722
19385SOL    HW159832   5.512   3.640   7.258 -1.6847  1.2087  1.5047
19385SOL    HW259833   5.436   3.514   7.219  0.9372  0.2392 -0.6367
19386SOL     OW59834   2.669   5.431   7.959 -0.5459 -0.2630 -0.2268
19386SOL    HW159835   2.625   5.487   8.022 -0.5582 -0.3536 -0.1558
19386SOL    HW259836   2.672   5.483   7.878  2.5530  1.2488  0.7693
19387SOL     OW59837   8.120   1.422   6.328 -0.3004 -0.2530 -0.6781
19387SOL    HW159838   8.111   1.488   6.259  0.5153 -1.5189 -2.0142
19387SOL    HW259839   8.082   1.343   6.291  0.8599 -1.1525  0.0206
19388SOL     OW59840   6.265   7.674   5.778 -0.3866  0.8365 -0.6936
19388SOL    HW159841   6.199   7.725   5.732  2.1491  2.5303 -2.5728
19388SOL    HW259842   6.316   7.632   5.709  0.0226 -1.1015  0.7395
19389SOL     OW59843   4.830   1.802   8.793  0.0421  0.0471  0.6271
19389SOL    HW159844   4.817   1.897   8.794 -3.3663 -0.2967 -2.0990
19389SOL    HW259845   4.745   1.766   8.815  0.9940 -2.4142  0.4225
19390SOL     OW59846   8.454   3.447   4.080  0.0303  0.2943  0.3958
19390SOL    HW159847   8.523   3.381   4.082  1.3112  1.5931  0.0437
19390SOL    HW259848   8.495   3.526   4.117 -0.8883  1.4245 -0.9544
19391SOL     OW59849   3.548   8.443   3.324  0.3511  0.4702  0.4768
19391SOL    HW159850   3.456   8.442   3.297  0.2977 -0.6969  0.6576
19391SOL    HW259851   3.555   8.519   3.382 -0.7912 -0.1277  1.4241
19392SOL     OW59852   8.708   3.925   2.986  0.0053 -0.2781 -0.3189
19392SOL    HW159853   8.759   3.884   3.056  0.5337 -0.4483 -0.8027
19392SOL    HW259854   8.652   3.855   2.953 -1.3938  0.1907  0.9848
19393SOL     OW59855   6.016   6.617   3.857  0.1508  0.2129 -0.2131
19393SOL    HW159856   6.068   6.674   3.914  1.2037 -1.7780  0.8674
19393SOL    HW259857   6.072   6.540   3.844 -0.6447  0.0506 -2.8301
19394SOL     OW59858   5.135   1.720   3.136  0.3236 -0.0232  0.8225
19394SOL    HW159859   5.163   1.680   3.053  3.3335 -1.2306  2.3407
19394SOL    HW259860   5.201   1.787   3.154 -1.5780  1.7995  1.1270
19395SOL     OW59861   7.937   7.101   3.519  0.2518  0.1766  0.2010
19395SOL    HW159862   7.958   7.022   3.568 -0.6683 -0.7372 -0.8779
19395SOL    HW259863   7.842   7.110   3.527 -0.2870 -1.4297 -3.5326
19396SOL     OW59864   0.886   1.491   2.059  0.8390 -0.0587  0.3483
19396SOL    HW159865   0.948   1.445   2.002 -0.1770 -0.9221 -0.0730
19396SOL    HW259866   0.912   1.466   2.148  0.3766 -1.3565  0.1266
19397SOL     OW59867   8.877   6.678   0.759 -0.5845 -0.0847 -0.1663
19397SOL    HW159868   8.888   6.691   0.665 -1.0540 -2.1630 -0.5355
19397SOL    HW259869   8.940   6.738   0.799 -1.2348  1.7225 -1.7583
19398SOL     OW59870   2.275   4.032   6.310  0.0156  0.1248  0.2525
19398SOL    HW159871   2.235   3.950   6.340  0.6682 -0.1585  0.3713
19398SOL    HW259872   2.251   4.096   6.378 -0.8162  0.1263 -0.0374
19399SOL     OW59873   3.747   7.793   8.024  0.1346  0.0348 -0.0792
19399SOL    HW159874   3.812   7.788   8.094 -0.1472  0.1671  0.1925
19399SOL    HW259875   3.767   7.875   7.978  1.3656 -0.8725 -1.1876
19400SOL     OW59876   0.680   8.509   1.296  0.0634  0.1226  0.3013
19400SOL    HW159877   0.646   8.598   1.300  1.1749  0.6216 -0.9433
19400SOL    HW259878   0.774   8.520   1.282  0.3380 -1.2459  0.9536
19401SOL     OW59879   3.346   3.969   0.839  0.6693  0.2585 -0.3652
19401SOL    HW159880   3.382   3.910   0.773  0.5317  0.0633 -0.2641
19401SOL    HW259881   3.337   4.053   0.793  0.0504 -0.0211 -0.7570
19402SOL     OW59882   1.352   5.181   9.109 -0.2472 -0.6656  0.4768
19402SOL    HW159883   1.278   5.240   9.093 -0.4403 -1.3867 -1.4340
19402SOL    HW259884   1.386   5.162   9.021  2.0355 -0.5572  1.3312
19403SOL     OW59885   1.344   3.802   6.701  0.6180  0.1211  0.0302
19403SOL    HW159886   1.428   3.764   6.675  0.0701 -0.9513 -0.2437
19403SOL    HW259887   1.359   3.840   6.787  1.1238 -1.0063  0.4514
19404SOL     OW59888   1.523   1.114   1.957 -0.1298  0.6532 -0.6464
19404SOL    HW159889   1.615   1.094   1.944  0.0228  0.8336  0.1020
19404SOL    HW259890   1.476   1.042   1.916  0.3576  0.2463 -0.4915
19405SOL     OW59891   3.946   1.300   1.477 -0.1619 -0.1159 -0.3308
19405SOL    HW159892   3.980   1.241   1.544  0.3507  0.3653 -0.1604
19405SOL    HW259893   3.995   1.381   1.490 -0.2955  0.0862 -1.0794
19406SOL     OW59894   5.896   4.996   1.115  0.1281 -0.1638  0.0646
19406SOL    HW159895   5.945   5.043   1.182 -0.0488  0.6619 -0.3873
19406SOL    HW259896   5.851   4.926   1.163  2.6135 -1.6413  0.3341
19407SOL     OW59897   8.996   8.139   3.204 -0.3000 -0.2202 -0.0196
19407SOL    HW159898   8.954   8.219   3.234 -0.6454 -0.6654  0.6965
19407SOL    HW259899   9.080   8.137   3.251  0.1792  0.2525 -0.8320
19408SOL     OW59900   0.874   5.041   4.097 -0.1732 -0.0207  0.1344
19408SOL    HW159901   0.824   4.971   4.140 -0.4601  0.3640  0.4275
19408SOL    HW259902   0.825   5.121   4.115 -0.5776  0.0840 -1.3360
19409SOL     OW59903   7.200   4.725   0.946 -0.3426  0.0957 -0.4523
19409SOL    HW159904   7.276   4.672   0.969 -0.9902 -1.5645 -1.9659
19409SOL    HW259905   7.236   4.802   0.901  0.7143  1.9102  3.3583
19410SOL     OW59906   5.643   6.701   6.520  0.3886  0.0819  0.2482
19410SOL    HW159907   5.671   6.685   6.430  1.5054 -1.6495  0.8848
19410SOL    HW259908   5.603   6.788   6.517  0.3168  0.0068 -1.9295
19411SOL     OW59909   7.569   3.705   3.971 -0.6496 -0.4776  0.2296
19411SOL    HW159910   7.612   3.691   3.886  0.2520  1.5709  0.3178
19411SOL    HW259911   7.629   3.667   4.035  0.3447  1.0309  0.2210
19412SOL     OW59912   3.480   3.479   2.509  0.8166 -0.5230  0.2432
19412SOL    HW159913   3.568   3.490   2.473  0.4712  1.5617  0.0241
19412SOL    HW259914   3.440   3.414   2.452  1.7355 -0.4458 -0.5180
19413SOL     OW59915   4.737   0.374   2.070 -0.2765 -0.4858 -0.2210
19413SOL    HW159916   4.790   0.348   1.995  0.0242 -1.8029  0.4171
19413SOL    HW259917   4.652   0.333   2.055 -0.6714  0.4574 -0.5569
19414SOL     OW59918   5.070   4.901   6.889 -0.2013  0.4749 -0.1670
19414SOL    HW159919   5.053   4.858   6.805  0.1331  0.2634 -0.1300
19414SOL    HW259920   5.042   4.991   6.876  1.1290  0.7830 -0.9567
19415SOL     OW59921   8.466   3.453   0.166  0.2769  0.2212 -0.2811
19415SOL    HW159922   8.508   3.474   0.083 -2.3435 -0.0976 -1.7496
19415SOL    HW259923   8.457   3.538   0.211 -0.6943  0.7711 -1.5000
19416SOL     OW59924   7.712   4.372   7.467  0.4405  0.0017 -0.0769
19416SOL    HW159925   7.626   4.398   7.434  0.4286 -0.7166 -0.6058
19416SOL    HW259926   7.727   4.429   7.543  0.4003  1.5629 -1.2076
19417SOL     OW59927   5.967   4.732   3.467  0.5518 -0.3416  0.2875
19417SOL    HW159928   5.978   4.662   3.403 -0.3979 -0.5063  0.3003
19417SOL    HW259929   5.882   4.715   3.507 -0.3165  1.5950 -0.6578
19418SOL     OW59930   0.358   4.563   5.667  0.5865 -0.2005 -0.2208
19418SOL    HW159931   0.309   4.633   5.623  1.8446 -0.7867 -2.6523
19418SOL    HW259932   0.410   4.607   5.734 -0.7694  0.8217  0.1690
19419SOL     OW59933   7.906   8.674   6.933  0.1747  0.0132 -0.0893
19419SOL    HW159934   7.928   8.667   6.840 -1.0395 -2.0223 -0.2544
19419SOL    HW259935   7.812   8.656   6.937  0.1968  0.1729  1.5219
19420SOL     OW59936   1.934   2.196   4.620  0.7314  0.1332  0.4712
19420SOL    HW159937   2.017   2.222   4.581  0.4294  0.6973  0.1998
19420SOL    HW259938   1.933   2.100   4.613 -0.0475  0.3192 -2.4186
19421SOL     OW59939   2.671   1.601   4.780 -0.8929 -0.2011  0.8389
19421SOL    HW159940   2.720   1.676   4.814 -1.0303  0.4209 -0.3303
19421SOL    HW259941   2.584   1.635   4.762 -0.1969  0.0580 -2.2657
19422SOL     OW59942   7.021   8.182   2.063 -0.1593 -0.8621  0.1870
19422SOL    HW159943   7.032   8.239   1.987 -1.1525 -1.0415 -0.0979
19422SOL    HW259944   7.017   8.242   2.137  1.9728 -0.7497  0.2378
19423SOL     OW59945   1.101   3.051   2.010 -0.0381  0.5151 -0.1553
19423SOL    HW159946   1.111   3.144   1.990 -0.3479  0.4887 -0.4336
19423SOL    HW259947   1.171   3.033   2.072  1.9158  0.2618 -2.3695
19424SOL     OW59948   8.700   6.497   7.424  0.4875 -0.3285  0.3213
19424SOL    HW159949   8.690   6.576   7.370 -1.0242 -0.1535  0.8344
19424SOL    HW259950   8.760   6.523   7.494  0.7279  0.0786 -0.0319
19425SOL     OW59951   9.056   1.415   0.902  0.1967  0.2288  0.0456
19425SOL    HW159952   9.150   1.397   0.903 -0.0968 -1.3106  0.3063
19425SOL    HW259953   9.044   1.471   0.824  1.5434  1.7963  0.9265
19426SOL     OW59954   8.864   3.570   1.416  0.2155 -0.4718  0.2278
19426SOL    HW159955   8.924   3.497   1.397 -0.5809 -1.4337  1.3253
19426SOL    HW259956   8.919   3.637   1.456  0.7424 -0.9443  0.3072
19427SOL     OW59957   2.603   2.947   8.257 -0.2722  0.1712  0.1240
19427SOL    HW159958   2.514   2.924   8.229 -0.0775 -1.0156  0.4470
19427SOL    HW259959   2.600   2.941   8.352 -0.4268  2.3256  0.2762
19428SOL     OW59960   8.164   3.042   4.631  0.6034  0.5242  0.8475
19428SOL    HW159961   8.160   3.109   4.562  1.0065 -0.1254  0.1854
19428SOL    HW259962   8.095   3.067   4.693  1.0512  1.8049  0.8396
19429SOL     OW59963   2.118   5.048   9.123  0.4359 -0.2050 -1.1827
19429SOL    HW159964   2.023   5.041   9.122  0.2770  0.8699  1.1951
19429SOL    HW259965   2.136   5.139   9.103  0.8501  0.0092  0.0742
19430SOL     OW59966   4.150   2.743   0.721  0.3199  0.1466 -0.1296
19430SOL    HW159967   4.098   2.690   0.660  1.1128  0.3394 -0.9864
19430SOL    HW259968   4.185   2.814   0.667  0.5659  0.6474  0.6768
19431SOL     OW59969   4.810   4.396   4.404  0.2241 -0.6388 -0.4751
19431SOL    HW159970   4.898   4.380   4.438  0.5542  0.0861 -0.9842
19431SOL    HW259971   4.802   4.338   4.329  0.1398 -0.9474 -0.2308
19432SOL     OW59972   1.979   8.950   2.105 -0.1111  0.2792 -0.4484
19432SOL    HW159973   2.058   8.996   2.077 -0.6087  2.2597  1.2842
19432SOL    HW259974   1.907   9.002   2.070 -0.6703 -0.2798 -0.1435
19433SOL     OW59975   8.782   4.023   3.384  0.3606 -0.0296 -0.0485
19433SOL    HW159976   8.774   3.937   3.425 -1.2248  0.7766  1.4021
19433SOL    HW259977   8.700   4.035   3.336  1.3342 -0.0798 -1.7260
19434SOL     OW59978   2.864   2.392   5.625  0.0043  0.2560 -0.1842
19434SOL    HW159979   2.941   2.374   5.572  0.1611  2.6347 -0.8272
19434SOL    HW259980   2.790   2.363   5.571  0.3986 -1.2749  0.0939
19435SOL     OW59981   2.855   2.894   8.112 -0.6321 -0.0956  0.4648
19435SOL    HW159982   2.919   2.940   8.167 -0.4306  1.2843 -0.9031
19435SOL    HW259983   2.775   2.896   8.164 -0.1976  0.3345  1.1389
19436SOL     OW59984   7.339   3.609   1.845  0.0322 -0.0882 -0.2371
19436SOL    HW159985   7.404   3.673   1.816 -0.3827  0.3521 -0.1974
19436SOL    HW259986   7.286   3.591   1.768  0.4904 -0.7954 -0.3860
19437SOL     OW59987   5.811   2.298   7.114  1.0081 -0.2109 -0.0260
19437SOL    HW159988   5.785   2.388   7.092  1.4404  0.0650  0.5743
19437SOL    HW259989   5.825   2.256   7.029  1.1331  0.3880 -0.3049
19438SOL     OW59990   3.072   6.210   4.334 -0.0436  0.4988 -0.5494
19438SOL    HW159991   3.003   6.165   4.284 -0.5651  1.1623 -0.4414
19438SOL    HW259992   3.105   6.276   4.273 -0.0735  0.7235 -0.3223
19439SOL     OW59993   8.382   6.272   5.899  0.4856  0.2247 -0.4667
19439SOL    HW159994   8.387   6.351   5.952 -1.3625 -0.9477  1.5495
19439SOL    HW259995   8.340   6.300   5.818  1.4028  1.6415 -0.4487
19440SOL     OW59996   3.126   0.471   4.180  0.5727  0.4440 -0.2750
19440SOL    HW159997   3.087   0.387   4.155 -0.1446  0.6729  0.0646
19440SOL    HW259998   3.146   0.513   4.096 -1.0623  0.8543 -0.4904
19441SOL     OW59999   4.861   3.607   1.379 -0.2238 -0.0893  0.3270
19441SOL    HW160000   4.792   3.648   1.327  0.1383 -0.1360 -0.1788
19441SOL    HW260001   4.916   3.679   1.409 -0.5009 -0.0495  0.7528
19442SOL     OW60002   6.564   0.836   4.719  0.1873  0.0684 -0.0541
19442SOL    HW160003   6.484   0.794   4.687  0.9427  0.2937 -2.3333
19442SOL    HW260004   6.623   0.764   4.740 -0.0070 -0.0598  0.0583
19443SOL     OW60005   5.173   0.826   4.644  0.1943 -0.0835  0.0263
19443SOL    HW160006   5.196   0.827   4.551  0.0154  0.5398 -0.0117
19443SOL    HW260007   5.213   0.905   4.680 -1.2221  0.6249  0.1092
19444SOL     OW60008   7.776   3.563   9.006  0.2079 -0.2125 -0.3378
19444SOL    HW160009   7.764   3.490   8.946 -0.7361 -1.0836  0.8713
19444SOL    HW260010   7.817   3.525   9.083 -0.8927  0.3713  0.5684
19445SOL     OW60011   0.032   3.560   6.014 -0.0683 -0.0751  0.8785
19445SOL    HW160012  -0.048   3.519   6.047 -0.0332  0.0780  1.1567
19445SOL    HW260013   0.004   3.646   5.983  0.1885  0.4408  2.0586
19446SOL     OW60014   6.324   8.341   6.980 -0.2450  0.3752  0.0007
19446SOL    HW160015   6.306   8.339   7.074  0.1715  0.8290  0.0895
19446SOL    HW260016   6.373   8.261   6.963  1.3183  1.2104  0.5011
19447SOL     OW60017   3.940   8.854   1.219 -0.0442  0.0404 -0.5372
19447SOL    HW160018   3.979   8.930   1.176 -0.1364  0.3000 -0.1762
19447SOL    HW260019   3.910   8.888   1.304 -0.3668 -0.3279 -0.4997
19448SOL     OW60020   7.215   4.321   8.746  0.4701  0.4297 -0.6169
19448SOL    HW160021   7.211   4.413   8.771  2.1889  0.3565 -0.0024
19448SOL    HW260022   7.144   4.279   8.795 -0.9011  1.5628 -1.5830
19449SOL     OW60023   2.564   6.970   4.313  0.5253  0.0019 -0.2524
19449SOL    HW160024   2.525   6.963   4.400  0.5848 -2.1004 -0.3885
19449SOL    HW260025   2.651   7.007   4.329 -0.3127  1.7823  0.3419
19450SOL     OW60026   2.254   5.259   6.595  0.2919  0.4639  0.8205
19450SOL    HW160027   2.318   5.263   6.523  1.1095  0.1004  1.5249
19450SOL    HW260028   2.303   5.225   6.669 -1.0454 -1.1636  1.0029
19451SOL     OW60029   3.781   4.142   4.378  0.3348  0.5095 -0.3870
19451SOL    HW160030   3.863   4.111   4.417  0.8685  1.1580 -0.9775
19451SOL    HW260031   3.748   4.206   4.440 -0.1411 -0.3265  0.2397
19452SOL     OW60032   2.259   6.695   6.586  0.0052  0.2535 -0.2737
19452SOL    HW160033   2.346   6.655   6.591 -1.3106 -2.5842  0.5320
19452SOL    HW260034   2.204   6.628   6.546 -2.3870  1.0615  1.5902
19453SOL     OW60035   3.294   6.550   4.188  1.0175  0.2555 -0.3535
19453SOL    HW160036   3.200   6.556   4.170  0.9394 -1.0643 -0.4253
19453SOL    HW260037   3.299   6.532   4.282  1.0575 -2.6479 -0.8423
19454SOL     OW60038   3.135   3.532   4.731  0.2516 -0.7011 -0.4509
19454SOL    HW160039   3.099   3.611   4.770  2.6075 -0.4922  1.3890
19454SOL    HW260040   3.078   3.461   4.762  0.2067 -0.1480  0.7261
19455SOL     OW60041   3.401   8.725   5.424 -0.3205 -0.4057  0.1216
19455SOL    HW160042   3.442   8.730   5.338  0.9115 -0.3924  0.6882
19455SOL    HW260043   3.310   8.702   5.407  0.2580 -1.8618 -1.1061
19456SOL     OW60044   5.935   6.967   3.450 -0.1315  0.1715  0.2762
19456SOL    HW160045   5.853   6.984   3.497  0.8747  0.8774  1.8257
19456SOL    HW260046   5.907   6.941   3.362 -2.0311 -0.0297  0.9043
19457SOL     OW60047   5.874   8.475   2.996 -0.2293 -0.4337  0.0295
19457SOL    HW160048   5.879   8.570   2.991 -0.2176 -0.5100 -1.9415
19457SOL    HW260049   5.784   8.454   2.970  0.4587 -1.0679 -1.9163
19458SOL     OW60050   0.740   6.593   2.886 -0.3397 -0.4178 -0.1642
19458SOL    HW160051   0.816   6.535   2.881  0.0567  0.1842 -1.2192
19458SOL    HW260052   0.776   6.680   2.897 -0.9622 -0.4325  2.0992
19459SOL     OW60053   5.534   0.460   6.773 -0.2026 -0.4027 -0.0573
19459SOL    HW160054   5.617   0.412   6.776  0.3262  0.5501  1.2752
19459SOL    HW260055   5.499   0.452   6.862 -0.6543  0.7000 -0.1256
19460SOL     OW60056   2.708   0.971   0.867  0.1593 -0.6123 -0.2076
19460SOL    HW160057   2.800   0.985   0.888 -0.5172 -0.2286  2.8597
19460SOL    HW260058   2.695   0.877   0.878  0.1337 -0.6319 -0.4039
19461SOL     OW60059   3.677   6.902   7.575 -0.0968 -0.6793  0.0373
19461SOL    HW160060   3.644   6.985   7.608 -2.1993 -1.5336  0.1089
19461SOL    HW260061   3.642   6.895   7.487  1.2941 -0.8179 -0.5253
19462SOL     OW60062   5.209   4.259   0.024  0.0472  0.2429  0.5952
19462SOL    HW160063   5.126   4.293   0.058 -0.2705 -0.5371  0.6107
19462SOL    HW260064   5.276   4.301   0.077 -0.3778  0.2271  1.1512
19463SOL     OW60065   1.370   8.728   3.483  0.5298  0.1173 -0.6433
19463SOL    HW160066   1.339   8.705   3.571 -1.9462  0.1180 -1.4793
19463SOL    HW260067   1.323   8.808   3.462  2.2013  0.9240 -1.4300
19464SOL     OW60068   4.922   1.278   6.715  0.1125  0.9441  0.4309
19464SOL    HW160069   4.911   1.339   6.788  1.7336 -0.2950  1.7445
19464SOL    HW260070   5.012   1.291   6.686  0.3084 -0.4312  0.3874
19465SOL     OW60071   7.200   6.609   0.021  0.0006 -0.1737  0.0157
19465SOL    HW160072   7.135   6.561   0.072  0.5488  0.0392  0.9379
19465SOL    HW260073   7.194   6.699   0.053  1.1243 -0.2648  0.5140
19466SOL     OW60074   1.477   7.065   6.171  0.3319 -0.7038 -0.1552
19466SOL    HW160075   1.514   7.139   6.219  0.0596 -1.3542  1.0749
19466SOL    HW260076   1.394   7.097   6.137  1.2716  0.2776 -1.6165
19467SOL     OW60077   4.505   6.390   7.000 -0.4458  0.1587 -0.3409
19467SOL    HW160078   4.465   6.416   7.082  0.0066  0.1275 -0.1076
19467SOL    HW260079   4.470   6.303   6.982 -0.5092  0.1475 -0.1578
19468SOL     OW60080   6.136   5.724   4.751  0.5342  0.2264 -0.7887
19468SOL    HW160081   6.188   5.710   4.672  2.0322 -1.5119  0.4704
19468SOL    HW260082   6.163   5.654   4.811 -1.2569  0.9426  0.9188
19469SOL     OW60083   6.780   4.213   4.647 -0.5615 -0.1316 -0.2237
19469SOL    HW160084   6.867   4.194   4.612 -0.8447  1.6856 -1.9677
19469SOL    HW260085   6.737   4.127   4.651  0.5216 -0.7449 -1.4523
19470SOL     OW60086   1.821   7.581   6.821  1.0567 -0.2768  0.3558
19470SOL    HW160087   1.838   7.490   6.848  0.8424 -0.8023 -1.2607
19470SOL    HW260088   1.878   7.633   6.877  2.6851 -1.5477 -0.1023
19471SOL     OW60089   7.646   4.497   3.167  0.7609  0.3265  0.0694
19471SOL    HW160090   7.682   4.494   3.079  0.4649 -1.1986 -0.0182
19471SOL    HW260091   7.662   4.409   3.203 -1.4164  0.1092  0.5973
19472SOL     OW60092   3.649   5.899   3.070 -0.1056  0.7103  1.0656
19472SOL    HW160093   3.676   5.811   3.093 -0.7536  0.3016  0.3025
19472SOL    HW260094   3.724   5.954   3.093  0.6202 -0.1443  0.7847
19473SOL     OW60095   1.376   9.207   5.246 -0.0884  0.2835  0.1267
19473SOL    HW160096   1.414   9.146   5.310 -0.2563  0.2964  0.2373
19473SOL    HW260097   1.291   9.169   5.223  0.0129  0.2251 -0.1645
19474SOL     OW60098   4.331   6.798   5.461  0.0898 -0.0799  0.0327
19474SOL    HW160099   4.297   6.812   5.549 -0.8173  1.8358 -0.6032
19474SOL    HW260100   4.373   6.881   5.439  0.2306 -0.5270 -1.3824
19475SOL     OW60101   3.242   5.191   7.018  0.1136 -0.1524 -0.3485
19475SOL    HW160102   3.183   5.246   7.069 -1.2649 -1.4941 -0.4589
19475SOL    HW260103   3.188   5.156   6.947  1.0331 -1.3689 -0.4866
19476SOL     OW60104   1.339   6.303   5.880  0.7164  0.4725  0.4189
19476SOL    HW160105   1.339   6.277   5.972  0.1562  0.5674  0.4445
19476SOL    HW260106   1.415   6.258   5.842  0.0183 -0.8328  0.5681
19477SOL     OW60107   2.984   9.114   8.808 -0.8941 -0.3131  0.0222
19477SOL    HW160108   3.010   9.041   8.753 -3.8402 -0.8168 -0.7919
19477SOL    HW260109   3.067   9.154   8.837  0.7070 -2.0962 -1.9840
19478SOL     OW60110   2.601   2.051   9.126 -0.0395 -0.0912 -0.2218
19478SOL    HW160111   2.670   1.985   9.127  0.0218 -0.0502  3.0160
19478SOL    HW260112   2.609   2.093   9.041  3.0861 -0.9393 -0.3938
19479SOL     OW60113   4.376   2.847   4.747 -0.1065  0.4631 -0.6933
19479SOL    HW160114   4.386   2.756   4.774 -0.9763  0.5416 -0.0872
19479SOL    HW260115   4.454   2.865   4.695  0.9075 -0.1063  0.6169
19480SOL     OW60116   9.241   7.807   8.270  0.2338 -0.4678  0.4286
19480SOL    HW160117   9.335   7.826   8.260  0.4994 -2.1515 -0.4569
19480SOL    HW260118   9.202   7.836   8.187 -0.0015 -0.0458  0.6821
19481SOL     OW60119   4.443   5.713   8.006  0.5591  0.4668  0.0090
19481SOL    HW160120   4.470   5.623   7.987 -1.3723 -0.4981  1.6229
19481SOL    HW260121   4.414   5.747   7.922  1.3094 -0.4123 -0.6206
19482SOL     OW60122   5.130   4.783   3.723 -0.9786  0.4996 -0.7233
19482SOL    HW160123   5.089   4.723   3.661  0.6584 -2.1144  0.6357
19482SOL    HW260124   5.062   4.801   3.787 -1.2621 -0.5359 -0.7224
19483SOL     OW60125   0.362   5.048   2.913  0.7874 -0.4338  0.0298
19483SOL    HW160126   0.329   5.018   2.997 -0.9696  0.7727 -0.2082
19483SOL    HW260127   0.333   5.139   2.906  0.2117 -0.7482 -2.2156
19484SOL     OW60128   5.393   1.679   5.027  0.4060 -0.4435  0.0653
19484SOL    HW160129   5.360   1.716   4.945  0.3503  0.7668  0.6281
19484SOL    HW260130   5.329   1.704   5.092  0.8557 -0.7358  0.6234
19485SOL     OW60131   3.050   0.404   2.684  0.2360  0.1252  0.4243
19485SOL    HW160132   3.130   0.416   2.734  0.7250 -0.8227 -0.1130
19485SOL    HW260133   3.074   0.343   2.614 -0.8453  0.1530  0.0118
19486SOL     OW60134   9.162   8.229   6.734  0.2078 -1.0402 -0.2939
19486SOL    HW160135   9.216   8.157   6.766  2.8810  1.3433  0.6750
19486SOL    HW260136   9.198   8.249   6.648  1.5320  1.1858  0.7502
19487SOL     OW60137   0.401   4.698   3.758 -0.1491  0.2938 -0.2775
19487SOL    HW160138   0.475   4.665   3.809 -0.9517 -0.2031  0.5979
19487SOL    HW260139   0.345   4.741   3.823 -0.7687  0.3966 -0.8747
19488SOL     OW60140   7.566   6.974   9.089  0.1113 -0.3043  0.0906
19488SOL    HW160141   7.655   6.946   9.069  0.7446 -0.0312  2.3653
19488SOL    HW260142   7.510   6.926   9.028  1.8096 -0.4195 -1.4029
19489SOL     OW60143   0.034   4.721   4.973  0.3430 -0.0980  0.5280
19489SOL    HW160144   0.075   4.638   4.993 -1.1447 -1.3371 -1.3582
19489SOL    HW260145  -0.043   4.724   5.029  0.0561 -0.3055  0.1540
19490SOL     OW60146   3.205   4.406   3.162 -0.3060  0.1903  0.4011
19490SOL    HW160147   3.173   4.367   3.080 -0.9890  1.0183  0.2694
19490SOL    HW260148   3.130   4.454   3.196  0.2921  0.7043  0.9863
19491SOL     OW60149   8.336   5.176   6.123 -0.3005  0.0779  0.5941
19491SOL    HW160150   8.287   5.140   6.049  0.7565  0.9925 -0.5753
19491SOL    HW260151   8.325   5.111   6.193 -0.0832 -1.5435 -0.8299
19492SOL     OW60152   0.301   1.564   6.893 -0.7744  0.0868 -0.5090
19492SOL    HW160153   0.296   1.477   6.933  1.2378 -0.2241 -0.8669
19492SOL    HW260154   0.280   1.550   6.801  0.8826 -0.2810 -0.8551
19493SOL     OW60155   0.484   5.346   3.924  0.2862 -0.2303 -0.4887
19493SOL    HW160156   0.468   5.252   3.929  1.8047 -0.4374  0.7756
19493SOL    HW260157   0.504   5.372   4.014 -0.9681  1.4681 -0.6829
19494SOL     OW60158   3.361   0.936   1.998  0.6170  0.5578 -0.3675
19494SOL    HW160159   3.366   0.847   2.032  1.0563 -0.4197 -2.9053
19494SOL    HW260160   3.446   0.951   1.957 -0.2361  1.3333 -1.8837
19495SOL     OW60161   4.477   0.777   5.542 -0.6595  0.0417 -0.6631
19495SOL    HW160162   4.447   0.803   5.455 -1.0775  2.0132  0.0374
19495SOL    HW260163   4.572   0.783   5.537 -0.6844  0.1955 -0.9642
19496SOL     OW60164   3.005   0.195   0.299 -0.1968 -0.0259 -0.2782
19496SOL    HW160165   3.092   0.165   0.274 -1.2275 -2.5540 -1.0069
19496SOL    HW260166   3.021   0.263   0.365  2.3390  0.8446 -1.7135
19497SOL     OW60167   7.164   3.513   1.658  0.1366  0.0866 -0.2439
19497SOL    HW160168   7.189   3.421   1.654  0.4193  0.1185  0.8757
19497SOL    HW260169   7.069   3.512   1.645  0.2926 -0.2555 -1.4759
19498SOL     OW60170   8.364   7.740   8.094  0.4566  0.5345  0.1987
19498SOL    HW160171   8.278   7.702   8.111 -0.0426  1.8380  0.6724
19498SOL    HW260172   8.417   7.667   8.061 -0.8615 -0.2475 -0.2129
19499SOL     OW60173   4.231   1.298   2.803  0.0802 -0.3265 -0.2987
19499SOL    HW160174   4.157   1.315   2.862  0.1667 -1.3553  0.1204
19499SOL    HW260175   4.245   1.204   2.810  1.3810 -0.1478 -0.4442
19500SOL     OW60176   8.871   7.328   7.235 -0.0941  0.4166  0.0615
19500SOL    HW160177   8.784   7.333   7.196 -0.0877 -1.2050 -0.1753
19500SOL    HW260178   8.855   7.327   7.330 -0.2852  0.9709  0.0352
19501SOL     OW60179   5.331   2.502   7.764 -0.3737 -0.0248 -0.3757
19501SOL    HW160180   5.336   2.596   7.751 -0.6978  0.2076  1.1488
19501SOL    HW260181   5.311   2.467   7.677 -0.2762  1.3018 -0.9415
19502SOL     OW60182   1.843   2.420   3.990 -0.5208 -0.0142  0.1745
19502SOL    HW160183   1.908   2.354   3.967  0.1097  0.9310 -0.8119
19502SOL    HW260184   1.893   2.500   4.004 -1.6252  1.2440 -2.6228
19503SOL     OW60185   7.693   4.763   3.090  0.1713  0.0006  0.0376
19503SOL    HW160186   7.653   4.686   3.130 -1.2420  1.1917  0.9849
19503SOL    HW260187   7.639   4.780   3.012 -0.7615  1.2069  0.9384
19504SOL     OW60188   1.748   6.115   4.293 -0.3508  0.1763  0.8835
19504SOL    HW160189   1.762   6.207   4.317  1.9886  0.7337 -2.3227
19504SOL    HW260190   1.814   6.067   4.343  1.1139  0.7384 -0.4756
19505SOL     OW60191   7.468   0.989   3.250 -0.2219 -0.1351 -0.6909
19505SOL    HW160192   7.382   1.028   3.239 -0.6620 -0.3164  1.8305
19505SOL    HW260193   7.527   1.046   3.200 -1.5250  0.9785 -0.9833
19506SOL     OW60194   5.929   5.056   3.404 -0.5964  0.1561 -0.0428
19506SOL    HW160195   5.989   5.083   3.334 -1.0794  1.1700 -0.0706
19506SOL    HW260196   5.950   4.964   3.419  2.2960  0.9670  1.2487
19507SOL     OW60197   4.927   3.662   4.082  0.5252  0.1094  0.7154
19507SOL    HW160198   4.981   3.724   4.031 -0.2754  0.3509  0.1476
19507SOL    HW260199   4.917   3.704   4.167  0.2649  0.6259  0.4406
19508SOL     OW60200   1.402   5.753   6.696 -0.2398 -0.5029 -0.4818
19508SOL    HW160201   1.402   5.714   6.783  1.2999  1.5280  0.4725
19508SOL    HW260202   1.489   5.734   6.661 -0.3954 -0.2123 -1.0399
19509SOL     OW60203   4.262   5.960   5.013 -0.4965  0.3020 -0.3542
19509SOL    HW160204   4.338   5.907   4.989  0.1967  1.4670 -0.7436
19509SOL    HW260205   4.196   5.896   5.041  0.8173 -0.6754  0.5470
19510SOL     OW60206   5.867   1.490   9.063 -0.0992  0.5343  0.0645
19510SOL    HW160207   5.851   1.437   9.142  0.5913 -2.0164 -1.4422
19510SOL    HW260208   5.955   1.525   9.076  0.6269 -1.1234 -0.2017
19511SOL     OW60209   4.214   0.299   6.428  0.2435  0.5183  0.5971
19511SOL    HW160210   4.189   0.323   6.517  0.4749  0.2291  0.7391
19511SOL    HW260211   4.183   0.209   6.418  1.8772 -0.0974  1.0194
19512SOL     OW60212   4.398   9.276   1.888 -0.0490  0.8807 -0.3736
19512SOL    HW160213   4.398   9.199   1.945  0.6363  1.3778  0.3085
19512SOL    HW260214   4.428   9.243   1.804  2.7656  0.8658  0.5909
19513SOL     OW60215   8.176   4.781   3.945 -0.4432  0.0412 -0.0033
19513SOL    HW160216   8.168   4.867   3.986  0.3445 -0.0542  0.3488
19513SOL    HW260217   8.103   4.779   3.882  0.6515  1.7288 -1.3990
19514SOL     OW60218   1.198   5.197   3.855 -0.2139 -0.5180 -0.2988
19514SOL    HW160219   1.248   5.176   3.776 -0.3882 -0.4897 -0.4167
19514SOL    HW260220   1.258   5.248   3.908 -0.1246 -0.4649 -0.4506
19515SOL     OW60221   0.240   6.832   5.647 -0.2400 -0.1530  0.6286
19515SOL    HW160222   0.250   6.755   5.703 -1.3584 -0.6369  0.1696
19515SOL    HW260223   0.319   6.884   5.664 -0.1799 -0.6834  2.0365
19516SOL     OW60224   0.305   6.100   4.649 -0.3106 -0.2233 -0.2238
19516SOL    HW160225   0.377   6.107   4.587 -0.4720 -1.5443 -0.5859
19516SOL    HW260226   0.341   6.132   4.732 -0.0221  1.3150 -0.9344
19517SOL     OW60227   3.344   7.871   5.464 -0.5131 -0.1054  0.1306
19517SOL    HW160228   3.316   7.896   5.552  0.4900  1.7807 -0.0714
19517SOL    HW260229   3.271   7.819   5.430 -1.1689 -0.3388  1.8465
19518SOL     OW60230   0.779   6.021   0.853 -0.5673 -0.1367  0.1663
19518SOL    HW160231   0.765   5.932   0.822 -0.8327  0.0145 -0.1508
19518SOL    HW260232   0.859   6.050   0.808  1.1641 -1.2141  2.4369
19519SOL     OW60233   6.006   3.376   1.823 -0.2746 -0.1692 -0.3902
19519SOL    HW160234   6.042   3.341   1.905 -1.7179 -0.2387  0.2330
19519SOL    HW260235   5.927   3.325   1.807 -0.6639  0.6563 -1.1814
19520SOL     OW60236   8.762   7.068   6.673  0.1382 -0.7408 -0.0775
19520SOL    HW160237   8.744   6.986   6.626 -0.9035  0.2068 -1.3373
19520SOL    HW260238   8.770   7.134   6.605 -0.3530  0.4551  1.0156
19521SOL     OW60239   3.010   8.004   6.303  0.1017 -0.1397 -0.1970
19521SOL    HW160240   2.994   7.919   6.343  2.3312 -0.0716  0.8744
19521SOL    HW260241   2.943   8.061   6.342 -1.4153 -1.3808 -0.9450
19522SOL     OW60242   6.160   0.141   4.286  0.1546 -0.0484  0.3095
19522SOL    HW160243   6.153   0.046   4.300  0.6564 -0.2813 -0.9702
19522SOL    HW260244   6.070   0.172   4.283 -0.0488 -0.7203 -0.7546
19523SOL     OW60245   8.713   3.247   6.975  0.0919  0.1968  0.3256
19523SOL    HW160246   8.734   3.338   6.998 -0.2339  0.2966  0.2313
19523SOL    HW260247   8.683   3.252   6.885 -0.6996  0.1100  0.5806
19524SOL     OW60248   2.900   6.217   0.569 -0.4766  0.0406  0.2601
19524SOL    HW160249   2.812   6.245   0.545 -0.1501  0.3050 -0.6368
19524SOL    HW260250   2.913   6.135   0.521  0.2058  0.6103 -0.5288
19525SOL     OW60251   9.243   1.382   1.486 -0.3942 -0.0387  0.4956
19525SOL    HW160252   9.241   1.316   1.417  1.8327  0.2004  0.1629
19525SOL    HW260253   9.187   1.453   1.453 -0.2747 -0.4205 -0.5516
19526SOL     OW60254   6.397   0.552   8.458  0.8973  0.2011  0.0525
19526SOL    HW160255   6.338   0.514   8.392 -0.5841  0.4555  1.1990
19526SOL    HW260256   6.482   0.512   8.440  0.2595 -0.5727 -1.3173
19527SOL     OW60257   7.290   4.311   6.537  0.4809 -0.0322  0.3657
19527SOL    HW160258   7.380   4.308   6.568  0.5427 -0.6403  0.1398
19527SOL    HW260259   7.295   4.281   6.446  0.0055 -0.4008  0.4602
19528SOL     OW60260   3.013   2.746   3.326  0.3274  0.2576  0.3856
19528SOL    HW160261   3.085   2.736   3.263  0.4959  1.7734  0.3219
19528SOL    HW260262   3.027   2.832   3.365 -0.6519 -0.0357  1.4050
19529SOL     OW60263   1.448   6.559   0.502  0.6290  0.3187  0.5793
19529SOL    HW160264   1.495   6.478   0.484 -0.8943 -0.5887  0.5775
19529SOL    HW260265   1.457   6.610   0.422 -1.3226 -1.3149 -0.7387
19530SOL     OW60266   3.611   5.362   5.785  0.0668  0.2968 -0.4380
19530SOL    HW160267   3.661   5.281   5.781 -0.2635 -0.0007  1.0428
19530SOL    HW260268   3.539   5.342   5.845  0.4631  1.9455  0.6091
19531SOL     OW60269   7.155   6.517   1.679  0.1327  0.4199 -0.0459
19531SOL    HW160270   7.075   6.521   1.733 -0.9220  1.9847 -1.6580
19531SOL    HW260271   7.216   6.576   1.723 -0.0767  0.2625  0.4586
19532SOL     OW60272   2.339   7.312   8.424 -0.0911  0.0705  0.3542
19532SOL    HW160273   2.254   7.330   8.383  1.1163  0.3383 -2.1434
19532SOL    HW260274   2.355   7.219   8.406  0.9586  0.4659 -0.7707
19533SOL     OW60275   4.174   7.153   3.861  0.3808 -0.1375  0.1802
19533SOL    HW160276   4.191   7.229   3.917  0.5925  0.1870 -0.3196
19533SOL    HW260277   4.257   7.137   3.817 -0.3848  1.0588 -1.7982
19534SOL     OW60278   0.833   6.819   1.233  0.2162 -0.0855  0.5887
19534SOL    HW160279   0.899   6.873   1.277  0.5829  0.0143 -0.0812
19534SOL    HW260280   0.753   6.832   1.284  0.3614  0.9116  0.5717
19535SOL     OW60281   6.506   3.055   3.268  0.5224  0.4746 -0.2830
19535SOL    HW160282   6.566   3.073   3.196  3.9049  1.1717  2.5332
19535SOL    HW260283   6.491   3.141   3.308  0.8462 -0.2436  1.4198
19536SOL     OW60284   1.963   8.023   5.843  0.4485  0.1323 -0.6381
19536SOL    HW160285   1.888   7.996   5.790  0.9191 -0.9930 -0.7364
19536SOL    HW260286   2.012   7.943   5.858  0.0317  0.3245  2.0117
19537SOL     OW60287   7.557   2.273   3.439 -0.0450 -0.3419 -0.5636
19537SOL    HW160288   7.606   2.222   3.504 -0.0840  1.3502  0.8301
19537SOL    HW260289   7.624   2.305   3.378  0.3073  0.0834  0.0404
19538SOL     OW60290   0.381   3.000   6.577  0.2317  0.0236  0.7297
19538SOL    HW160291   0.412   3.075   6.526  0.0587 -0.1828  0.3175
19538SOL    HW260292   0.330   3.039   6.648  0.0618  0.2903  0.4622
19539SOL     OW60293   2.640   2.838   4.164  0.0602  0.5206 -0.0302
19539SOL    HW160294   2.686   2.756   4.182 -0.6522  0.0259 -0.4178
19539SOL    HW260295   2.707   2.906   4.173  0.5912 -0.0731  0.5782
19540SOL     OW60296   5.427   7.186   3.770 -0.5179  0.1962  0.5172
19540SOL    HW160297   5.448   7.237   3.848 -2.4018  3.3402 -0.9787
19540SOL    HW260298   5.513   7.159   3.737  0.3179 -1.5224  3.7999
19541SOL     OW60299   5.777   6.115   0.893 -0.5957 -0.0761 -0.3846
19541SOL    HW160300   5.741   6.031   0.866  0.1617 -0.8850  1.0435
19541SOL    HW260301   5.700   6.169   0.913 -1.0687 -0.6627 -0.6279
19542SOL     OW60302   0.952   5.546   5.207 -0.5541 -0.7535 -0.8045
19542SOL    HW160303   1.039   5.528   5.172  0.5956  0.1252  1.5136
19542SOL    HW260304   0.938   5.639   5.190  0.1733 -0.2316  1.3455
19543SOL     OW60305   3.645   8.702   5.253  0.1329 -0.4030 -0.3662
19543SOL    HW160306   3.670   8.771   5.315  0.1741  0.4914 -1.3725
19543SOL    HW260307   3.724   8.648   5.245  1.0144  1.0528 -1.7168
19544SOL     OW60308   3.508   8.233   2.738 -0.2196 -0.1948 -0.1221
19544SOL    HW160309   3.555   8.262   2.816 -0.5836  1.0742 -0.3744
19544SOL    HW260310   3.451   8.163   2.769  1.6745 -1.6162  0.2315
19545SOL     OW60311   7.485   8.858   4.516 -0.1880  0.0395 -0.7423
19545SOL    HW160312   7.575   8.887   4.504 -0.8550  2.1244 -0.9993
19545SOL    HW260313   7.450   8.850   4.428  0.0727 -1.9636 -0.6935
19546SOL     OW60314   4.068   0.508   9.231  0.0438 -0.4408 -0.1418
19546SOL    HW160315   4.047   0.414   9.229 -1.3528 -0.1259 -1.5199
19546SOL    HW260316   4.015   0.542   9.303 -1.7775 -0.2136 -1.5557
19547SOL     OW60317   8.514   5.294   1.837 -0.1260  0.1006  0.0726
19547SOL    HW160318   8.451   5.346   1.887 -0.8121 -1.3716  0.7393
19547SOL    HW260319   8.490   5.309   1.745  0.2490  1.6767  0.2172
19548SOL     OW60320   7.847   7.409   1.316  0.4705  0.1859 -0.0830
19548SOL    HW160321   7.786   7.478   1.341  0.6785  0.5659 -0.6224
19548SOL    HW260322   7.907   7.403   1.391 -0.1574 -0.1134  0.3973
19549SOL     OW60323   8.408   3.235   4.256  0.0477  0.2432 -0.2053
19549SOL    HW160324   8.479   3.262   4.314 -0.8197  0.3613  0.8159
19549SOL    HW260325   8.396   3.309   4.196 -1.0239  1.3412  1.3415
19550SOL     OW60326   4.018   7.489   5.409 -0.2133  0.4801 -0.1086
19550SOL    HW160327   4.071   7.466   5.332  0.1473 -0.3902  0.3863
19550SOL    HW260328   3.963   7.413   5.424 -1.1794  1.1459 -0.2515
19551SOL     OW60329   1.370   1.599   7.034 -0.3159 -0.5262  0.4629
19551SOL    HW160330   1.314   1.563   6.965  0.6928 -2.3451  0.5348
19551SOL    HW260331   1.428   1.660   6.988  0.1998 -1.5615 -0.2908
19552SOL     OW60332   1.788   8.544   5.451 -0.2412  0.0235  0.0013
19552SOL    HW160333   1.762   8.632   5.477  0.6626  0.6234 -1.0883
19552SOL    HW260334   1.873   8.531   5.493 -0.1266 -0.1174 -0.2728
19553SOL     OW60335   0.150   4.103   9.150 -0.7351  0.0757  0.9053
19553SOL    HW160336   0.234   4.062   9.126  0.0516  1.1904  1.7282
19553SOL    HW260337   0.173   4.166   9.217 -1.6278  3.2750 -1.6818
19554SOL     OW60338   2.114   1.568   8.601 -0.7712  0.0093  0.4058
19554SOL    HW160339   2.024   1.545   8.577 -0.6104  0.3541 -0.5457
19554SOL    HW260340   2.108   1.661   8.626 -0.5849  0.1840 -0.1884
19555SOL     OW60341   1.313   3.477   5.094  0.7290 -0.3135  0.2524
19555SOL    HW160342   1.227   3.518   5.086  0.8630 -0.1421 -0.3130
19555SOL    HW260343   1.294   3.385   5.112  0.4225 -0.3946 -0.4720
19556SOL     OW60344   2.975   8.548   1.566 -0.3378  0.5258 -0.3397
19556SOL    HW160345   2.979   8.635   1.605 -0.4496  0.3649  0.0407
19556SOL    HW260346   2.994   8.561   1.473  1.1767  0.7512 -0.0007
19557SOL     OW60347   6.443   3.065   5.566 -0.4232  0.0399 -0.2937
19557SOL    HW160348   6.440   2.987   5.622  1.1993  2.0062  2.6534
19557SOL    HW260349   6.357   3.067   5.523 -1.4174 -1.9774  1.4988
19558SOL     OW60350   4.211   3.048   4.518 -0.3049 -0.1795  0.0958
19558SOL    HW160351   4.240   3.008   4.600 -1.0286  2.8309  1.8833
19558SOL    HW260352   4.159   2.979   4.475  1.1072 -2.2066  1.5418
19559SOL     OW60353   3.584   3.827   1.118 -0.2404  0.1125 -0.7330
19559SOL    HW160354   3.595   3.732   1.116  1.1329  0.2693 -0.7539
19559SOL    HW260355   3.581   3.848   1.211  1.8419  0.2998 -0.6783
19560SOL     OW60356   7.316   3.254   0.546 -0.2776 -0.7139 -0.2542
19560SOL    HW160357   7.295   3.173   0.498 -1.0094 -0.2906 -0.6550
19560SOL    HW260358   7.252   3.257   0.617  0.6265 -1.1907  0.6008
19561SOL     OW60359   3.366   5.422   4.089  0.0154  0.1205 -0.3304
19561SOL    HW160360   3.303   5.474   4.140  0.3034  0.4708 -0.3311
19561SOL    HW260361   3.441   5.410   4.147  0.8203  1.4942 -1.0577
19562SOL     OW60362   1.775   3.515   5.190  0.2739 -0.1483  0.4384
19562SOL    HW160363   1.695   3.527   5.140  0.7794 -2.0573 -0.8652
19562SOL    HW260364   1.813   3.603   5.197  0.5899  0.0647 -3.2373
19563SOL     OW60365   5.312   4.124   0.734  0.4181  0.0657  0.5198
19563SOL    HW160366   5.404   4.138   0.714  0.0853 -1.0817 -2.0333
19563SOL    HW260367   5.311   4.056   0.801  1.4643  1.4474  1.9715
19564SOL     OW60368   2.235   7.979   5.019 -0.0717 -0.2957  0.3304
19564SOL    HW160369   2.305   7.914   5.022  0.9570  0.8635  2.5052
19564SOL    HW260370   2.156   7.930   5.043  0.2506 -1.2443 -0.4994
19565SOL     OW60371   8.449   8.101   1.392  0.2705 -0.5609 -0.4859
19565SOL    HW160372   8.411   8.126   1.476 -1.0662  0.6558 -1.4288
19565SOL    HW260373   8.373   8.090   1.334  1.1243 -2.3080 -1.2970
19566SOL     OW60374   6.001   9.056   0.278  0.2558  0.4880  0.4798
19566SOL    HW160375   6.083   9.105   0.275  1.2782 -1.3028 -2.0242
19566SOL    HW260376   6.027   8.967   0.300 -1.2787  0.3339  1.8068
19567SOL     OW60377   3.265   6.779   2.022 -0.0714 -0.8399  0.2051
19567SOL    HW160378   3.183   6.788   1.974  0.5606 -0.2516 -0.7713
19567SOL    HW260379   3.331   6.819   1.966  0.9569 -1.6438  0.8095
19568SOL     OW60380   0.400   3.501   7.614  0.3894 -0.0250  0.1242
19568SOL    HW160381   0.454   3.550   7.676  0.7811 -1.6020  1.0542
19568SOL    HW260382   0.442   3.415   7.607 -0.3273 -0.2802 -1.4204
19569SOL     OW60383   1.653   5.871   2.991  0.0023 -0.2956  0.2601
19569SOL    HW160384   1.662   5.794   2.935  0.9835 -0.3056  0.4222
19569SOL    HW260385   1.743   5.897   3.010 -0.3165 -0.1187  1.5759
19570SOL     OW60386   7.819   4.710   8.556  0.4417 -0.1312  0.6801
19570SOL    HW160387   7.782   4.629   8.590 -0.2642  0.1745  0.6541
19570SOL    HW260388   7.842   4.761   8.635 -0.1221  0.0973  0.6945
19571SOL     OW60389   1.860   2.121   6.885  0.6471  0.1008 -0.3223
19571SOL    HW160390   1.915   2.182   6.835 -0.4945  0.4775 -1.1286
19571SOL    HW260391   1.918   2.048   6.906  1.2707  0.1888 -1.7301
19572SOL     OW60392   6.898   1.840   2.811 -0.5152  0.0779  0.6353
19572SOL    HW160393   6.856   1.779   2.751 -0.4142  0.9126 -0.3074
19572SOL    HW260394   6.863   1.818   2.897 -2.7103  0.6144 -0.1044
19573SOL     OW60395   7.524   3.347   6.324  0.3330 -0.1426  0.2609
19573SOL    HW160396   7.610   3.335   6.283 -0.4483 -0.8114 -1.1983
19573SOL    HW260397   7.462   3.343   6.252 -1.0440 -0.9710  1.4650
19574SOL     OW60398   0.912   6.613   6.442  0.0235  0.3991 -0.5682
19574SOL    HW160399   0.911   6.709   6.448  1.0553  0.4237 -0.7418
19574SOL    HW260400   0.879   6.595   6.354  0.6414  0.6259 -0.8470
19575SOL     OW60401   1.458   8.439   5.775  0.2303 -0.7192  0.2012
19575SOL    HW160402   1.453   8.497   5.851  0.4219 -1.6885  0.9710
19575SOL    HW260403   1.442   8.496   5.700 -0.4325  0.1723  1.0041
19576SOL     OW60404   0.418   9.205   2.327 -0.7264 -0.1142 -0.3517
19576SOL    HW160405   0.481   9.213   2.399  0.5595  1.3313 -1.5911
19576SOL    HW260406   0.447   9.128   2.278 -1.8886 -1.3885  0.9033
19577SOL     OW60407   2.163   5.694   3.227  0.1856 -0.0738  0.1486
19577SOL    HW160408   2.226   5.717   3.159  0.7303  1.3779  1.1126
19577SOL    HW260409   2.080   5.731   3.197 -0.1194 -1.5438 -0.8765
19578SOL     OW60410   2.788   7.800   1.475  0.4101 -0.0837 -0.4037
19578SOL    HW160411   2.814   7.889   1.450  1.5568 -0.2243  0.2721
19578SOL    HW260412   2.762   7.807   1.567  2.3138 -0.8133  0.1971
19579SOL     OW60413   4.612   7.564   3.841 -0.1177 -0.0167  0.5922
19579SOL    HW160414   4.608   7.658   3.861  0.2355  0.2380 -0.4698
19579SOL    HW260415   4.705   7.547   3.828 -0.1736 -0.5357  0.8767
19580SOL     OW60416   2.857   6.650   6.830 -0.2928 -0.4336 -0.3752
19580SOL    HW160417   2.861   6.681   6.920  0.0121  1.2801 -0.9669
19580SOL    HW260418   2.779   6.691   6.793  0.5831  0.3153 -1.4214
19581SOL     OW60419   7.755   6.111   4.644 -0.0838 -0.0325  0.0869
19581SOL    HW160420   7.786   6.075   4.561  0.4161  1.2758 -0.3157
19581SOL    HW260421   7.826   6.095   4.706  1.0098  2.0667 -0.5906
19582SOL     OW60422   3.928   2.975   3.026 -0.0560 -0.1676  0.9438
19582SOL    HW160423   3.984   3.052   3.023 -0.4197  0.1052  1.0914
19582SOL    HW260424   3.861   2.997   3.091  0.3012 -0.9254  1.5758
19583SOL     OW60425   6.126   3.417   2.314 -0.2350 -0.4494 -0.0742
19583SOL    HW160426   6.054   3.381   2.366  0.4603  0.3221  1.4534
19583SOL    HW260427   6.203   3.405   2.369  0.6924 -0.5727 -1.3813
19584SOL     OW60428   5.934   2.045   2.115  0.3307 -0.3831 -0.2301
19584SOL    HW160429   5.845   2.036   2.148 -0.3504  0.2191 -1.8457
19584SOL    HW260430   5.953   1.961   2.073  0.8516 -0.8113  0.8307
19585SOL     OW60431   2.196   9.034   3.469  0.4728  1.0145 -0.5162
19585SOL    HW160432   2.280   8.992   3.486  0.9855  2.0440 -0.4742
19585SOL    HW260433   2.218   9.123   3.440 -0.6007  1.3730 -0.2842
19586SOL     OW60434   0.287   4.715   6.638 -0.0233  0.1017 -0.3922
19586SOL    HW160435   0.341   4.645   6.603  1.9860  1.2226  0.4086
19586SOL    HW260436   0.335   4.795   6.619 -2.1034  1.2636 -0.9489
19587SOL     OW60437   5.263   5.007   1.059 -0.5263 -0.0106  0.1450
19587SOL    HW160438   5.176   4.977   1.032 -0.0629 -0.8001 -0.5003
19587SOL    HW260439   5.281   5.081   1.002 -0.6737 -0.0036  0.1068
19588SOL     OW60440   5.888   6.073   8.179  0.1756  1.0228  0.1256
19588SOL    HW160441   5.859   6.159   8.210  0.8443  1.0944  0.5422
19588SOL    HW260442   5.983   6.076   8.183  0.2205  0.4549 -0.3934
19589SOL     OW60443   3.048   8.473   1.302 -0.0662 -0.0597  0.5482
19589SOL    HW160444   2.984   8.538   1.272 -1.2267 -0.7930  1.3667
19589SOL    HW260445   3.102   8.454   1.225 -0.2686  1.2346  0.0864
19590SOL     OW60446   6.352   6.272   2.408  0.2450 -0.1094  0.2685
19590SOL    HW160447   6.425   6.230   2.454  0.9004  0.0890 -0.5798
19590SOL    HW260448   6.326   6.343   2.465  0.2747 -0.6005  0.8988
19591SOL     OW60449   5.131   2.172   3.892 -0.3052 -0.2143 -0.6064
19591SOL    HW160450   5.093   2.090   3.861 -3.0879  0.2048  1.5557
19591SOL    HW260451   5.079   2.196   3.968  1.8693  2.4438  0.1244
19592SOL     OW60452   6.602   8.660   4.925 -0.1242  0.0964  0.5579
19592SOL    HW160453   6.516   8.702   4.932  0.3379  1.1554  0.0093
19592SOL    HW260454   6.659   8.714   4.980  0.2224 -0.5059  0.7922
19593SOL     OW60455   2.323   1.881   9.112 -0.2504  0.1755 -0.1202
19593SOL    HW160456   2.335   1.834   9.029  0.3476 -0.3271  0.2414
19593SOL    HW260457   2.314   1.973   9.086  3.1514  0.4727 -0.5741
19594SOL     OW60458   2.383   6.791   5.879 -0.0684 -0.1445 -0.0483
19594SOL    HW160459   2.452   6.741   5.923  1.1847  0.8715 -0.8094
19594SOL    HW260460   2.336   6.834   5.950 -0.4736 -1.5261  0.5370
19595SOL     OW60461   4.261   6.773   5.715  0.2046  0.2070 -0.0426
19595SOL    HW160462   4.235   6.843   5.774  3.9612  0.1148  1.8132
19595SOL    HW260463   4.232   6.692   5.758 -1.1384  0.3870 -0.5804
19596SOL     OW60464   2.517   2.371   1.647  0.3267 -0.1767  0.4833
19596SOL    HW160465   2.592   2.425   1.674 -0.1301 -1.0384  3.6823
19596SOL    HW260466   2.553   2.283   1.638  0.0996 -0.2175 -0.0424
19597SOL     OW60467   5.122   3.467   1.335  0.3865  0.2994  0.4909
19597SOL    HW160468   5.163   3.480   1.420 -1.0642  0.6778  1.1469
19597SOL    HW260469   5.048   3.529   1.334  0.8423  0.8395 -1.3384
19598SOL     OW60470   1.665   3.446   7.051  0.4339  0.0819 -0.1172
19598SOL    HW160471   1.700   3.526   7.013 -0.4850 -0.0257 -1.2160
19598SOL    HW260472   1.674   3.380   6.981 -1.1702 -0.1466 -0.1217
19599SOL     OW60473   4.205   7.488   7.315  0.2729 -0.1846  0.0174
19599SOL    HW160474   4.293   7.454   7.326  0.6798  0.5031 -0.9663
19599SOL    HW260475   4.154   7.414   7.282  1.0786  0.0475 -1.8237
19600SOL     OW60476   9.166   3.841   4.888  0.0132 -0.0451 -0.3125
19600SOL    HW160477   9.232   3.907   4.908  0.1707 -0.1843 -0.3731
19600SOL    HW260478   9.192   3.806   4.803  0.0617 -0.3454 -0.1754
19601SOL     OW60479   4.018   3.151   2.227 -0.6980  0.7718 -0.1311
19601SOL    HW160480   3.934   3.112   2.251 -1.0804  2.0697  0.6499
19601SOL    HW260481   4.076   3.130   2.300 -0.0901 -0.8355 -1.0366
19602SOL     OW60482   4.688   6.525   7.676  0.0769 -0.7155 -0.5182
19602SOL    HW160483   4.767   6.556   7.722 -1.5069 -0.9079  2.4704
19602SOL    HW260484   4.684   6.579   7.597  1.5641  1.4134  0.7857
19603SOL     OW60485   5.763   5.814   2.631 -0.1920 -0.2740 -0.4089
19603SOL    HW160486   5.819   5.749   2.675  0.1991  0.1357 -0.3004
19603SOL    HW260487   5.775   5.796   2.538  1.2975  0.7895 -0.4351
19604SOL     OW60488   7.586   4.225   1.505  0.1367  0.0999 -0.2970
19604SOL    HW160489   7.495   4.204   1.522 -0.2409  2.0241  0.2147
19604SOL    HW260490   7.584   4.311   1.463  1.7334  0.4140  0.2135
19605SOL     OW60491   7.584   0.180   2.721  0.0878  0.3493  0.1108
19605SOL    HW160492   7.643   0.168   2.647  0.4135 -1.1600  0.6122
19605SOL    HW260493   7.641   0.190   2.797 -0.2866 -0.8661  0.5600
19606SOL     OW60494   0.587   8.291   5.626  0.0810  0.5142 -0.1225
19606SOL    HW160495   0.682   8.280   5.630 -0.1172 -1.3146  0.1306
19606SOL    HW260496   0.564   8.272   5.535 -0.1756 -0.2941  0.1082
19607SOL     OW60497   6.158   1.903   7.552 -0.3784 -0.2729 -0.3593
19607SOL    HW160498   6.069   1.922   7.583 -1.0218  2.6187 -3.6317
19607SOL    HW260499   6.149   1.821   7.504 -1.2801 -0.0713 -0.5566
19608SOL     OW60500   5.138   8.033   5.071  0.5054  0.4187 -0.2698
19608SOL    HW160501   5.063   8.079   5.109  0.9245  1.4126 -0.6410
19608SOL    HW260502   5.213   8.085   5.097  1.0741 -0.6012  0.1311
19609SOL     OW60503   5.939   4.376   3.589 -0.1136 -0.5746 -0.3031
19609SOL    HW160504   5.956   4.329   3.507  1.4205 -1.1999  0.3374
19609SOL    HW260505   5.890   4.314   3.643 -2.5795  0.4305 -1.3313
19610SOL     OW60506   5.709   6.005   4.960  0.3666 -0.8179 -0.3819
19610SOL    HW160507   5.712   5.997   4.865  4.1152  0.5063 -0.4337
19610SOL    HW260508   5.752   5.926   4.992  1.2572 -0.1364  0.1329
19611SOL     OW60509   1.493   3.374   5.355  0.5478  0.7679  0.1345
19611SOL    HW160510   1.415   3.335   5.394 -0.1428  0.5155 -1.4555
19611SOL    HW260511   1.462   3.412   5.273  2.3271 -0.3762 -1.0925
19612SOL     OW60512   5.713   2.726   1.151  0.5846  0.0449  0.9567
19612SOL    HW160513   5.730   2.753   1.061  0.3140 -1.4081  0.4551
19612SOL    HW260514   5.793   2.681   1.179  0.8664  0.9529  1.6288
19613SOL     OW60515   2.832   3.366   4.014  0.9494  0.0071  0.4631
19613SOL    HW160516   2.817   3.399   3.926  0.7467 -1.0247  0.1071
19613SOL    HW260517   2.755   3.312   4.033  1.8917 -1.3487  0.5155
19614SOL     OW60518   0.476   2.044   5.198  0.0304 -0.3061 -0.3211
19614SOL    HW160519   0.431   1.994   5.130 -1.6500 -0.7084  1.0533
19614SOL    HW260520   0.492   1.980   5.268  0.9652  0.3046  0.0328
19615SOL     OW60521   9.164   2.615   7.600  0.8319  0.5627  0.2491
19615SOL    HW160522   9.137   2.570   7.520  1.3132 -0.6421  0.7654
19615SOL    HW260523   9.091   2.604   7.660  0.9727  0.4354  0.3964
19616SOL     OW60524   3.227   2.772   5.865 -0.0985 -0.3052  0.7200
19616SOL    HW160525   3.134   2.781   5.886 -0.2460  1.0820 -0.4859
19616SOL    HW260526   3.269   2.847   5.909  0.5774 -1.3868  1.9571
19617SOL     OW60527   6.252   3.776   6.071  0.4323  0.3337 -0.1792
19617SOL    HW160528   6.263   3.837   5.998  0.6007  1.3626  0.6809
19617SOL    HW260529   6.262   3.689   6.032 -0.8302  0.8050 -1.6188
19618SOL     OW60530   8.822   2.522   0.697  0.3263  0.2430  0.4572
19618SOL    HW160531   8.844   2.436   0.662 -0.2318 -0.2408  1.2809
19618SOL    HW260532   8.804   2.576   0.620 -3.3457 -1.4609 -0.0118
19619SOL     OW60533   6.849   7.522   8.952 -0.1021 -0.1699  0.5514
19619SOL    HW160534   6.774   7.581   8.953 -0.3413 -0.4677 -0.1586
19619SOL    HW260535   6.925   7.581   8.957 -0.3764  0.1159  1.5386
19620SOL     OW60536   1.099   6.216   2.832 -0.5175  0.2632  0.4350
19620SOL    HW160537   1.155   6.249   2.762  0.6552 -1.5621  0.4742
19620SOL    HW260538   1.052   6.142   2.793 -1.3308  0.4660  1.0117
19621SOL     OW60539   0.891   6.673   3.967 -0.5802 -0.1121 -0.1613
19621SOL    HW160540   0.952   6.650   3.897  1.0485  4.3796 -0.3988
19621SOL    HW260541   0.810   6.697   3.922 -0.2490  0.6028 -0.3924
19622SOL     OW60542   6.798   1.116   1.291  0.2157  0.3170 -0.2725
19622SOL    HW160543   6.714   1.151   1.322  0.6579  2.0901 -0.9894
19622SOL    HW260544   6.824   1.176   1.221  1.9634 -0.3794 -0.2406
19623SOL     OW60545   7.993   8.834   0.362  0.6237  0.7325  0.1055
19623SOL    HW160546   8.043   8.784   0.298 -0.1202 -0.5902  0.5274
19623SOL    HW260547   7.930   8.884   0.310 -1.3473 -1.8891 -0.1230
19624SOL     OW60548   3.371   4.796   1.262 -0.1124 -0.1991  0.1575
19624SOL    HW160549   3.324   4.714   1.273 -1.8912  0.7149 -0.4720
19624SOL    HW260550   3.306   4.864   1.279  1.2231  1.0953  0.2453
19625SOL     OW60551   2.569   2.773   8.905 -0.0157 -0.3247  0.3607
19625SOL    HW160552   2.489   2.751   8.953  1.2606  0.6642  3.0585
19625SOL    HW260553   2.562   2.868   8.891  0.3412 -0.3549 -0.0024
19626SOL     OW60554   3.818   5.287   2.375  0.4090  0.6779  0.4918
19626SOL    HW160555   3.772   5.235   2.441 -1.3695  0.4910 -0.8698
19626SOL    HW260556   3.896   5.236   2.355 -2.3592 -2.6985 -2.4361
19627SOL     OW60557   5.700   1.826   4.805  0.1753 -0.5762  0.6485
19627SOL    HW160558   5.686   1.744   4.757 -0.2498 -1.1021  1.6767
19627SOL    HW260559   5.706   1.893   4.736 -0.0322 -1.3847 -0.1622
19628SOL     OW60560   7.362   6.197   1.014  0.0309 -0.3182  0.2289
19628SOL    HW160561   7.342   6.122   0.959 -0.1201  0.5230 -0.8678
19628SOL    HW260562   7.278   6.223   1.051  0.1567 -0.9844  0.9993
19629SOL     OW60563   0.843   7.268   0.710 -0.4525  0.6979 -0.4447
19629SOL    HW160564   0.920   7.215   0.690 -0.7720  0.5155 -1.1867
19629SOL    HW260565   0.807   7.229   0.790 -0.0190  0.5186 -0.3390
19630SOL     OW60566   8.755   9.128   4.071  0.0700  0.1503  0.4059
19630SOL    HW160567   8.760   9.082   3.987  0.3447  1.4045 -0.2663
19630SOL    HW260568   8.843   9.162   4.085 -0.2036  0.7130  0.7581
19631SOL     OW60569   7.470   6.796   9.281  0.4541  0.8675  0.2452
19631SOL    HW160570   7.468   6.827   9.372  2.2716 -0.0266  0.6161
19631SOL    HW260571   7.524   6.861   9.235  0.8382  0.4825  0.1462
19632SOL     OW60572   1.935   1.376   8.175 -0.1390  0.4382 -0.5254
19632SOL    HW160573   1.949   1.332   8.259  0.9417  0.4522 -0.6833
19632SOL    HW260574   1.855   1.337   8.140  0.4079 -0.9129 -0.3283
19633SOL     OW60575   0.174   8.915   3.954 -0.1585 -0.5469 -0.0387
19633SOL    HW160576   0.086   8.884   3.934 -1.1673  1.9308  0.2927
19633SOL    HW260577   0.173   8.929   4.049  0.1511  0.7209 -0.2128
19634SOL     OW60578   4.142   0.872   6.653 -0.2804  0.0837  0.1012
19634SOL    HW160579   4.063   0.857   6.600 -0.0106 -1.8946  0.1993
19634SOL    HW260580   4.191   0.790   6.646  0.7747  0.5532  1.7101
19635SOL     OW60581   1.867   4.334   0.093  0.3610 -0.0295  0.5062
19635SOL    HW160582   1.807   4.295   0.156  2.9960 -3.0670  1.2260
19635SOL    HW260583   1.811   4.389   0.038 -2.9045 -1.9381  1.8031
19636SOL     OW60584   3.077   5.288   5.130  0.5373  0.1590  0.4288
19636SOL    HW160585   3.055   5.269   5.039 -0.9169  0.1707  0.7660
19636SOL    HW260586   3.102   5.381   5.130  0.3012  0.2201  0.0939
19637SOL     OW60587   3.855   1.544   7.617 -0.0747 -0.1009 -0.1150
19637SOL    HW160588   3.890   1.456   7.631 -0.0239 -0.0233  0.2534
19637SOL    HW260589   3.760   1.533   7.615 -0.0098 -0.4639 -2.1433
19638SOL     OW60590   4.384   4.319   7.312 -0.2605  0.0285 -0.0768
19638SOL    HW160591   4.413   4.379   7.381 -0.1844  0.9692 -0.9166
19638SOL    HW260592   4.420   4.355   7.231 -0.4542 -0.9950 -0.6332
19639SOL     OW60593   7.400   5.669   1.839 -0.2093  0.1292 -0.4859
19639SOL    HW160594   7.367   5.757   1.822  2.2047  1.0336 -0.6464
19639SOL    HW260595   7.423   5.670   1.932  1.4990  0.2792 -0.8873
19640SOL     OW60596   6.344   2.967   8.051  0.2620 -0.0479 -0.5524
19640SOL    HW160597   6.364   2.880   8.084 -0.4161  1.2723  3.7276
19640SOL    HW260598   6.249   2.974   8.057  0.3056  0.9379 -0.8490
19641SOL     OW60599   7.795   5.376   4.380 -0.6407  0.2536 -0.4658
19641SOL    HW160600   7.851   5.453   4.383 -1.4012  0.7858  0.5271
19641SOL    HW260601   7.830   5.323   4.309  0.7778  0.8317 -0.2089
19642SOL     OW60602   7.365   0.697   7.772 -0.5164 -0.3683  0.6758
19642SOL    HW160603   7.374   0.663   7.683  1.1743  1.1841  0.2244
19642SOL    HW260604   7.433   0.651   7.822 -0.0017  0.3755  0.6629
19643SOL     OW60605   2.488   1.336   1.240  0.0027  0.4714 -0.5256
19643SOL    HW160606   2.560   1.278   1.213  0.8847  0.9541  0.7660
19643SOL    HW260607   2.520   1.424   1.223 -0.0816  0.7102  0.5473
19644SOL     OW60608   8.875   8.289   1.615 -0.2270 -0.0145  0.0936
19644SOL    HW160609   8.904   8.323   1.531 -0.4001 -0.2193 -0.0485
19644SOL    HW260610   8.859   8.196   1.600 -2.0392  0.2972 -0.1221
19645SOL     OW60611   2.086   3.480   1.371 -0.1532 -0.0476 -0.4809
19645SOL    HW160612   2.056   3.565   1.404 -1.5324 -0.6303 -0.2429
19645SOL    HW260613   2.153   3.452   1.434  0.3212  0.8562 -0.5670
19646SOL     OW60614   0.121   5.312   2.994 -0.3078  0.0462 -0.2035
19646SOL    HW160615   0.037   5.291   2.952 -0.6514  1.5695 -0.2779
19646SOL    HW260616   0.128   5.407   2.990  1.2383 -0.0323  0.1870
19647SOL     OW60617   6.067   0.838   4.222  0.3159 -0.0059 -0.1964
19647SOL    HW160618   6.089   0.921   4.263 -2.3697  0.6480 -0.0224
19647SOL    HW260619   6.015   0.791   4.288  0.0561 -0.9660 -1.0654
19648SOL     OW60620   5.908   4.165   3.105 -0.1073 -0.4147 -0.1073
19648SOL    HW160621   5.878   4.075   3.115 -0.8673 -0.2122 -0.4867
19648SOL    HW260622   5.955   4.165   3.021  0.7229 -0.6715  0.3567
19649SOL     OW60623   6.873   5.215   3.641 -0.0192  0.0217  0.3884
19649SOL    HW160624   6.831   5.300   3.622  0.2028  0.2538  0.9260
19649SOL    HW260625   6.962   5.225   3.608 -0.1084 -0.1410  0.0982
19650SOL     OW60626   4.473   8.074   8.569 -0.1867 -0.1810 -0.3131
19650SOL    HW160627   4.502   8.010   8.504  0.0314 -0.5559  0.1490
19650SOL    HW260628   4.511   8.157   8.540  2.5851 -0.9271  1.0727
19651SOL     OW60629   1.075   6.941   1.674  0.3557  0.3750  0.3330
19651SOL    HW160630   1.117   7.009   1.620  0.6767  0.2502  0.4272
19651SOL    HW260631   1.127   6.939   1.755 -0.1463  0.5864  0.6624
19652SOL     OW60632   6.880   8.935   2.632 -0.4107 -0.4571 -0.4606
19652SOL    HW160633   6.840   8.850   2.647 -0.7430 -0.5694 -1.8742
19652SOL    HW260634   6.970   8.915   2.606 -0.1540 -0.3199  0.3092
19653SOL     OW60635   1.443   5.403   0.582 -0.1836  1.0115  0.3925
19653SOL    HW160636   1.507   5.337   0.608 -1.2121  0.3386  1.2869
19653SOL    HW260637   1.479   5.441   0.502  1.6015  1.0645  1.2016
19654SOL     OW60638   8.114   2.862   8.371 -0.4815  0.4675  0.5443
19654SOL    HW160639   8.099   2.794   8.305  0.7533 -0.6434  1.3653
19654SOL    HW260640   8.029   2.903   8.383 -0.7203  0.7061 -1.7468
19655SOL     OW60641   0.005   6.601   4.525  0.4082  0.2312 -0.0069
19655SOL    HW160642   0.058   6.658   4.580  0.4851 -0.7387  0.9280
19655SOL    HW260643   0.051   6.518   4.524 -1.1018 -0.6271  0.8385
19656SOL     OW60644   3.895   2.925   1.812 -0.2116  0.1594  0.4673
19656SOL    HW160645   3.931   2.931   1.900 -1.3231  1.2914  0.8674
19656SOL    HW260646   3.859   3.012   1.795 -1.6646 -0.5770 -0.3604
19657SOL     OW60647   2.431   4.896   0.279  0.0411 -0.3235 -0.3427
19657SOL    HW160648   2.487   4.966   0.313  0.5379 -0.7745 -0.2414
19657SOL    HW260649   2.488   4.820   0.273 -0.5253 -0.7469 -0.3696
19658SOL     OW60650   8.070   4.175   3.324  0.0183 -1.0775 -0.1885
19658SOL    HW160651   7.994   4.149   3.376 -0.1900 -0.6824 -0.2963
19658SOL    HW260652   8.058   4.131   3.240 -0.1377 -0.9477 -0.2353
19659SOL     OW60653   0.439   5.021   7.248  0.0128  0.8102 -0.3538
19659SOL    HW160654   0.417   5.011   7.155  0.9155  3.8310 -0.9550
19659SOL    HW260655   0.533   5.003   7.252 -0.9798 -5.0777  1.0375
19660SOL     OW60656   8.368   1.206   5.074  0.1824 -0.6407 -0.1811
19660SOL    HW160657   8.443   1.193   5.016  0.0046  0.2088 -0.6013
19660SOL    HW260658   8.332   1.290   5.048 -1.2503 -1.2958 -0.3479
19661SOL     OW60659   8.321   7.486   6.701  0.9553  0.5329  0.6145
19661SOL    HW160660   8.250   7.421   6.706  0.9265  0.6171  1.3057
19661SOL    HW260661   8.278   7.565   6.670  1.0681  0.1127 -0.6365
19662SOL     OW60662   0.911   6.481   1.383 -0.1344 -0.1981 -0.3852
19662SOL    HW160663   0.882   6.394   1.407 -2.0009  0.0879 -1.5409
19662SOL    HW260664   1.007   6.475   1.382 -0.2080 -1.8163  0.9899
19663SOL     OW60665   6.397   1.449   3.249  0.1131 -0.6404  0.1545
19663SOL    HW160666   6.394   1.353   3.252 -0.3643 -0.6413 -0.3365
19663SOL    HW260667   6.410   1.475   3.340 -1.8173 -1.1038  0.5962
19664SOL     OW60668   2.308   3.480   1.066 -0.4671 -0.1787 -0.1241
19664SOL    HW160669   2.281   3.430   0.990  2.2520  0.4189 -1.5280
19664SOL    HW260670   2.402   3.466   1.073 -0.6076 -0.0534  3.0128
19665SOL     OW60671   6.574   3.776   4.012 -0.1034 -0.4189 -0.1431
19665SOL    HW160672   6.627   3.842   4.056  0.2988 -0.0517 -1.1660
19665SOL    HW260673   6.499   3.824   3.978  0.7829 -0.2463 -1.9241
19666SOL     OW60674   0.194   8.484   3.097 -0.0770  0.5646  0.0987
19666SOL    HW160675   0.271   8.467   3.042  0.1988  0.3403  0.5485
19666SOL    HW260676   0.215   8.566   3.142 -0.1842  0.6014  0.0806
19667SOL     OW60677   1.720   3.279   0.673 -0.0754 -0.3023 -0.3217
19667SOL    HW160678   1.757   3.214   0.612 -1.8303 -0.6732 -1.0210
19667SOL    HW260679   1.683   3.226   0.744 -1.3981 -0.0629 -0.8292
19668SOL     OW60680   3.438   6.905   1.827 -0.4251  0.1517  0.0521
19668SOL    HW160681   3.521   6.950   1.845 -0.1091 -0.6458  0.5996
19668SOL    HW260682   3.396   6.959   1.760  0.4766  0.6340 -0.1350
19669SOL     OW60683   4.422   8.931   6.017 -0.0657  0.0072  0.5785
19669SOL    HW160684   4.447   8.945   5.926 -1.2284 -0.8410  0.1093
19669SOL    HW260685   4.470   8.997   6.067  1.1680 -0.0258 -0.5654
19670SOL     OW60686   3.501   9.289   5.839 -0.5797  0.3408 -0.0889
19670SOL    HW160687   3.554   9.365   5.863  0.4015  0.5483 -2.7112
19670SOL    HW260688   3.410   9.317   5.854 -0.1417  1.3687  0.6947
19671SOL     OW60689   4.875   5.189   4.461  0.2361 -0.4782  0.3401
19671SOL    HW160690   4.940   5.252   4.493  0.9322 -0.6671 -0.6658
19671SOL    HW260691   4.813   5.179   4.533  1.2242 -0.1449  1.2442
19672SOL     OW60692   1.072   5.631   8.185 -0.4020  0.1166  0.3423
19672SOL    HW160693   1.023   5.574   8.127 -0.2106  0.2140  0.0865
19672SOL    HW260694   1.135   5.573   8.228 -2.7358 -0.6276  2.9774
19673SOL     OW60695   5.420   6.090   4.399  0.5318 -0.2542 -0.1120
19673SOL    HW160696   5.366   6.168   4.388 -1.3218 -1.2155  1.9131
19673SOL    HW260697   5.384   6.027   4.336  0.8499 -0.1087 -0.4444
19674SOL     OW60698   2.765   8.751   8.445 -0.2005 -0.9433 -0.4997
19674SOL    HW160699   2.698   8.804   8.488 -1.5362 -2.1381 -1.0500
19674SOL    HW260700   2.847   8.780   8.484 -1.0593  0.3398  0.4166
19675SOL     OW60701   0.274   1.209   1.298  0.9130 -0.6089 -0.1397
19675SOL    HW160702   0.367   1.186   1.298  0.9034 -0.7959  2.3857
19675SOL    HW260703   0.240   1.171   1.218  3.1301 -0.0562 -1.3771
19676SOL     OW60704   0.746   6.526   4.519  0.0543 -0.0307  0.1187
19676SOL    HW160705   0.768   6.465   4.589  0.6033 -1.1953 -1.0502
19676SOL    HW260706   0.797   6.605   4.538  0.0103 -0.2552  1.1604
19677SOL     OW60707   3.797   1.034   1.579  0.3321  0.2320 -0.3513
19677SOL    HW160708   3.786   0.946   1.616 -0.1587  0.0429 -0.9490
19677SOL    HW260709   3.728   1.042   1.514 -0.6398  1.6788  0.8338
19678SOL     OW60710   4.301   8.824   4.960 -0.0863 -0.8494 -0.1265
19678SOL    HW160711   4.340   8.910   4.974  0.0455 -0.6647 -1.5492
19678SOL    HW260712   4.218   8.842   4.917 -0.5514 -1.3837  0.5321
19679SOL     OW60713   5.174   1.291   7.658 -0.2126  0.0376  0.4910
19679SOL    HW160714   5.158   1.224   7.592 -0.2796  1.2502 -0.7437
19679SOL    HW260715   5.176   1.243   7.741 -0.2559 -1.4812 -0.3694
19680SOL     OW60716   3.417   4.250   6.021 -0.2634  0.3782  0.6206
19680SOL    HW160717   3.477   4.217   6.088  0.8918  1.6897  0.2850
19680SOL    HW260718   3.441   4.201   5.942  1.1888  1.6864  0.2126
19681SOL     OW60719   9.136   1.809   3.726 -0.1819  0.6293  0.6690
19681SOL    HW160720   9.052   1.799   3.681 -0.0894 -0.0697  0.6462
19681SOL    HW260721   9.113   1.821   3.818 -0.4268  3.2042  0.3229
19682SOL     OW60722   9.145   0.178   2.976  0.4507 -0.2579 -0.6818
19682SOL    HW160723   9.214   0.198   3.038 -0.7697  0.9068  0.3364
19682SOL    HW260724   9.074   0.239   2.999 -0.5197 -0.7390 -2.3389
19683SOL     OW60725   0.182   8.767   4.428  0.2796  0.3358  0.4001
19683SOL    HW160726   0.195   8.773   4.523 -0.2521  0.2592  0.4783
19683SOL    HW260727   0.210   8.678   4.406 -0.0441  0.1939  0.5580
19684SOL     OW60728   6.210   0.364   1.118 -0.3145 -0.0456 -0.2302
19684SOL    HW160729   6.267   0.416   1.061 -2.1837 -0.7770 -2.8738
19684SOL    HW260730   6.229   0.273   1.093 -1.3465 -0.3592  0.0936
19685SOL     OW60731   2.533   2.832   6.473 -0.6028  0.5218  0.1971
19685SOL    HW160732   2.512   2.817   6.381 -2.9209  0.7905  0.6381
19685SOL    HW260733   2.625   2.859   6.473 -0.1341 -0.9782 -1.8586
19686SOL     OW60734   1.200   8.856   6.172  0.1229 -0.3817 -0.4131
19686SOL    HW160735   1.109   8.848   6.198 -0.1037 -1.9608 -1.5635
19686SOL    HW260736   1.211   8.947   6.147 -1.0234 -0.0890  0.1338
19687SOL     OW60737   0.806   2.893   5.706  0.9513 -0.4485 -1.0179
19687SOL    HW160738   0.855   2.964   5.665  0.7267  0.0574 -0.4227
19687SOL    HW260739   0.871   2.844   5.756  0.7867  0.4634  0.1032
19688SOL     OW60740   1.559   8.561   3.262  0.0501  0.7458  0.2374
19688SOL    HW160741   1.624   8.592   3.199  0.0023  1.5473  0.5756
19688SOL    HW260742   1.528   8.640   3.306  2.3451 -0.0364  3.4906
19689SOL     OW60743   3.648   4.590   8.292  0.1582 -0.5605  0.7618
19689SOL    HW160744   3.562   4.552   8.273  1.0725 -1.6488 -1.4486
19689SOL    HW260745   3.630   4.680   8.317 -1.5773 -0.5207 -0.5274
19690SOL     OW60746   0.620   3.195   3.592 -0.7007 -0.0512  0.2320
19690SOL    HW160747   0.624   3.117   3.537 -0.3860  0.5824 -0.6583
19690SOL    HW260748   0.664   3.170   3.673 -0.6081 -0.7974 -0.0476
19691SOL     OW60749   5.668   6.229   3.921 -0.1267  0.0255 -0.2648
19691SOL    HW160750   5.718   6.310   3.927 -0.4321  0.2650 -0.8595
19691SOL    HW260751   5.626   6.220   4.006 -0.1652  0.5471 -0.2270
19692SOL     OW60752   0.780   1.488   6.352 -0.4187 -0.2576 -0.4372
19692SOL    HW160753   0.802   1.405   6.393  0.0730  0.2159  0.2753
19692SOL    HW260754   0.846   1.549   6.385 -0.8406  0.4368 -0.8671
19693SOL     OW60755   6.796   7.477   0.816 -0.0314 -0.0690 -0.1812
19693SOL    HW160756   6.801   7.412   0.747 -1.9714 -1.4859  0.9494
19693SOL    HW260757   6.710   7.517   0.805  0.1746  0.6129  0.5946
19694SOL     OW60758   3.953   2.750   7.991  0.4203 -0.2495  0.0990
19694SOL    HW160759   3.916   2.825   8.036 -1.2310 -0.9036 -0.1385
19694SOL    HW260760   3.918   2.754   7.902  1.3997 -0.5417 -0.3090
19695SOL     OW60761   1.591   1.664   7.694 -0.1916  0.0420 -0.1435
19695SOL    HW160762   1.613   1.723   7.622  1.9055  0.5405  0.8864
19695SOL    HW260763   1.506   1.626   7.668  0.5148  0.1831 -2.8753
19696SOL     OW60764   3.744   7.591   1.536  0.5321  0.0942 -0.4737
19696SOL    HW160765   3.710   7.585   1.446 -0.0031  2.1441 -0.4280
19696SOL    HW260766   3.838   7.607   1.525  0.3881  0.8361 -0.7026
19697SOL     OW60767   1.761   6.963   8.252  0.0104 -0.5352 -0.4651
19697SOL    HW160768   1.705   6.905   8.200  1.2376 -1.7210 -0.5136
19697SOL    HW260769   1.723   6.960   8.340 -0.6547 -0.4477 -0.7483
19698SOL     OW60770   7.034   0.391   6.320 -0.1530  0.6894  0.0175
19698SOL    HW160771   7.119   0.369   6.284  0.1927  0.9301  0.6846
19698SOL    HW260772   6.995   0.451   6.256  1.0991  2.3514  0.7945
19699SOL     OW60773   6.839   8.595   4.792 -0.2630 -0.1772 -0.0531
19699SOL    HW160774   6.763   8.648   4.815  0.7348 -0.1387  3.4517
19699SOL    HW260775   6.906   8.658   4.766 -0.5742 -0.0352 -0.5148
19700SOL     OW60776   2.758   4.175   9.086 -0.2866 -0.1760  0.0991
19700SOL    HW160777   2.835   4.129   9.120 -0.0630  1.1503  1.4284
19700SOL    HW260778   2.794   4.240   9.026 -0.5363 -0.9602 -0.9310
19701SOL     OW60779   4.474   5.905   6.787 -0.1483  0.2361  0.2417
19701SOL    HW160780   4.447   5.817   6.761  0.1124  0.2787 -0.1654
19701SOL    HW260781   4.451   5.910   6.880 -0.3426 -0.1908  0.2180
19702SOL     OW60782   2.358   3.310   3.511 -0.0881  0.2703 -0.0546
19702SOL    HW160783   2.362   3.388   3.457  0.4393  0.5041  0.3121
19702SOL    HW260784   2.298   3.251   3.466  0.0861  0.5990 -0.7096
19703SOL     OW60785   8.191   1.859   0.190 -0.2133 -0.2649  0.3414
19703SOL    HW160786   8.190   1.950   0.219  1.3081 -0.7392  2.0292
19703SOL    HW260787   8.122   1.853   0.124  0.6468  2.4382 -0.8571
19704SOL     OW60788   2.205   3.270   0.909 -0.5040  0.4447  0.0306
19704SOL    HW160789   2.241   3.197   0.959  0.6318  1.3529  0.5780
19704SOL    HW260790   2.200   3.237   0.819 -0.2162 -0.3779  0.3145
19705SOL     OW60791   4.113   6.407   3.878 -0.4253  0.5075 -0.2384
19705SOL    HW160792   4.136   6.379   3.966  0.6767  1.8853 -0.0612
19705SOL    HW260793   4.025   6.444   3.887 -1.0619 -1.0228 -0.0905
19706SOL     OW60794   2.950   3.228   0.303  0.8332 -0.3138  0.1270
19706SOL    HW160795   2.943   3.322   0.320  1.0530 -0.1955 -0.4046
19706SOL    HW260796   3.044   3.210   0.306  0.8065 -0.4735  0.0080
19707SOL     OW60797   5.902   5.967   3.649  0.0675  0.6248 -0.2983
19707SOL    HW160798   5.921   5.899   3.585  0.9780  0.3772  0.2322
19707SOL    HW260799   5.898   5.920   3.733 -1.9548  0.8059 -0.2667
19708SOL     OW60800   3.563   6.607   4.232  0.6023 -0.1550 -0.5587
19708SOL    HW160801   3.589   6.676   4.171 -1.7941 -0.6820 -2.2707
19708SOL    HW260802   3.468   6.601   4.222  0.2380 -0.7594  2.7427
19709SOL     OW60803   5.457   1.126   6.176 -0.0479  0.1766 -0.0652
19709SOL    HW160804   5.498   1.200   6.222 -0.0357 -0.0998  0.3733
19709SOL    HW260805   5.377   1.108   6.226  1.1740 -1.6744  1.3009
19710SOL     OW60806   6.644   2.152   6.625  0.1327 -0.0481 -0.0322
19710SOL    HW160807   6.696   2.073   6.608 -0.4883 -0.4297 -0.1636
19710SOL    HW260808   6.594   2.165   6.545 -1.2774 -0.6854  0.7313
19711SOL     OW60809   4.170   1.907   1.384 -0.1147 -0.2370  0.1871
19711SOL    HW160810   4.204   1.900   1.295  1.0115  0.0974  0.5901
19711SOL    HW260811   4.129   1.994   1.388  0.4093  0.0133  0.1839
19712SOL     OW60812   1.749   1.351   1.303  0.3091  0.0195  0.0526
19712SOL    HW160813   1.795   1.380   1.382 -0.5452 -0.7441  0.8497
19712SOL    HW260814   1.796   1.272   1.276  0.5166  0.2034 -0.1263
19713SOL     OW60815   3.085   4.606   3.319 -0.3310 -0.0962  0.4787
19713SOL    HW160816   3.173   4.640   3.335 -0.0597 -0.6133  0.0833
19713SOL    HW260817   3.059   4.565   3.401  0.0889 -0.5962  0.3607
19714SOL     OW60818   0.613   4.133   6.952 -0.0351 -0.1478 -0.0073
19714SOL    HW160819   0.601   4.110   6.860  1.1869 -3.9537  0.6629
19714SOL    HW260820   0.524   4.135   6.988 -0.4104 -0.6876 -0.8764
19715SOL     OW60821   2.429   2.117   6.186 -0.3881  0.3459 -0.2117
19715SOL    HW160822   2.439   2.167   6.268  0.9744  0.0295 -0.1840
19715SOL    HW260823   2.457   2.029   6.208  1.2650  0.5716 -1.3647
19716SOL     OW60824   2.382   1.839   8.830 -0.1538 -0.4332  0.1953
19716SOL    HW160825   2.357   1.853   8.738  0.7783  0.3416  0.0524
19716SOL    HW260826   2.420   1.751   8.831 -1.5869 -1.0664  0.1485
19717SOL     OW60827   2.847   7.839   7.930  0.1508  0.5412 -0.3390
19717SOL    HW160828   2.929   7.887   7.945  0.9359 -0.5967 -0.9634
19717SOL    HW260829   2.786   7.878   7.993  1.4210  0.7478  0.8143
19718SOL     OW60830   6.371   5.506   3.755  0.2384 -0.3815 -0.4594
19718SOL    HW160831   6.431   5.576   3.779  4.0773 -3.7915  0.3842
19718SOL    HW260832   6.350   5.524   3.663  1.4302  1.6278 -0.3787
19719SOL     OW60833   7.905   6.299   1.810 -0.0965 -0.6256  0.3640
19719SOL    HW160834   7.953   6.288   1.892 -0.3604 -0.2200  0.5730
19719SOL    HW260835   7.814   6.310   1.837 -0.1909 -0.5371  0.0137
19720SOL     OW60836   1.870   6.199   6.995 -0.3784  0.0861 -0.0324
19720SOL    HW160837   1.864   6.294   6.991  1.0311  0.0981 -2.1285
19720SOL    HW260838   1.891   6.181   7.087  0.1830  1.8220  0.1986
19721SOL     OW60839   0.506   4.110   6.124  0.0923  0.4749 -0.1507
19721SOL    HW160840   0.538   4.124   6.035 -1.5866  0.1222 -0.8226
19721SOL    HW260841   0.557   4.036   6.157 -0.1658 -0.1986 -1.2677
19722SOL     OW60842   4.362   2.893   3.957  0.0834 -0.4476  0.1851
19722SOL    HW160843   4.289   2.938   3.999  0.9500  1.5630 -0.4058
19722SOL    HW260844   4.341   2.800   3.966 -1.8289  0.0606  1.2844
19723SOL     OW60845   9.280   8.146   0.017  0.2390  0.4221  0.2145
19723SOL    HW160846   9.204   8.201   0.038 -0.0612  0.0233  0.1805
19723SOL    HW260847   9.287   8.150  -0.078  0.3981  0.6414  0.2359
19724SOL     OW60848   4.952   6.478   7.389 -0.4426 -0.1664  0.2006
19724SOL    HW160849   4.903   6.397   7.404 -3.3458  0.9717 -2.4834
19724SOL    HW260850   4.975   6.476   7.296  3.3796  0.0922  1.0496
19725SOL     OW60851   4.800   5.701   8.906  0.3788 -0.0657  0.0898
19725SOL    HW160852   4.852   5.736   8.834  0.4600  0.4192  0.3793
19725SOL    HW260853   4.807   5.606   8.897  0.0798 -0.0081 -0.7593
19726SOL     OW60854   0.465   8.283   2.461 -0.9267  0.7757 -0.0746
19726SOL    HW160855   0.397   8.240   2.409  0.7323  1.4168 -2.8785
19726SOL    HW260856   0.434   8.373   2.472 -1.6765  0.4138  0.7654
19727SOL     OW60857   5.521   0.510   0.800  0.2538 -0.5939 -0.5103
19727SOL    HW160858   5.566   0.432   0.833 -0.5349  0.4450  3.3110
19727SOL    HW260859   5.588   0.559   0.753  1.3149 -2.4813 -1.0032
19728SOL     OW60860   9.015   5.799   5.590  0.0893  0.4075  0.2623
19728SOL    HW160861   9.071   5.731   5.551  0.2769  1.4660 -1.3714
19728SOL    HW260862   8.957   5.826   5.519 -0.7246  1.1940  1.2107
19729SOL     OW60863   4.985   3.459   8.690  0.1995 -0.0897 -0.2355
19729SOL    HW160864   5.002   3.534   8.632  1.9163 -0.2972 -0.0074
19729SOL    HW260865   4.908   3.417   8.651 -0.2920  1.3157 -0.8339
19730SOL     OW60866   5.548   9.073   7.647 -0.5851  0.2184  0.0507
19730SOL    HW160867   5.557   9.168   7.637  0.0456  0.1476 -0.0595
19730SOL    HW260868   5.484   9.048   7.580 -0.1126  0.4470 -0.4954
19731SOL     OW60869   5.044   0.117   8.016 -0.3363 -0.2662 -0.2705
19731SOL    HW160870   5.129   0.077   7.999 -0.1014 -0.2461  0.8734
19731SOL    HW260871   5.065   0.206   8.045 -0.7757 -0.0833 -0.4971
19732SOL     OW60872   0.329   2.537   2.144 -0.1826 -0.1726 -0.0474
19732SOL    HW160873   0.298   2.613   2.193  0.2185 -1.3274  2.0073
19732SOL    HW260874   0.250   2.501   2.102 -0.4642  0.9968 -0.5408
19733SOL     OW60875   5.986   5.101   7.483 -0.3505  0.1849 -0.0038
19733SOL    HW160876   5.920   5.096   7.414 -0.6144 -0.7504  0.3144
19733SOL    HW260877   5.961   5.178   7.534  0.1475  1.1976 -1.2467
19734SOL     OW60878   8.469   6.564   2.799 -0.0892  0.0902 -0.4294
19734SOL    HW160879   8.388   6.612   2.783  0.2209  0.7389 -0.0846
19734SOL    HW260880   8.451   6.512   2.877  0.6027  2.0914  1.1250
19735SOL     OW60881   2.372   5.010   4.275  0.0313  0.0605 -0.4885
19735SOL    HW160882   2.307   4.948   4.244 -1.1377  0.2929  1.4277
19735SOL    HW260883   2.335   5.096   4.254 -0.3716  0.1973  0.7455
19736SOL     OW60884   7.542   3.530   8.316  0.1759  0.1161 -0.1806
19736SOL    HW160885   7.590   3.536   8.234  0.4645 -2.4699 -0.2351
19736SOL    HW260886   7.610   3.513   8.382 -0.3228 -0.4682  0.1886
19737SOL     OW60887   3.562   5.308   1.092 -0.0969  0.7460 -0.1585
19737SOL    HW160888   3.484   5.303   1.036 -1.0520  1.1003  1.1329
19737SOL    HW260889   3.598   5.394   1.074  0.6707  0.1427 -1.6223
19738SOL     OW60890   0.821   7.497   4.686  0.1127  0.4010 -0.2721
19738SOL    HW160891   0.771   7.431   4.733  1.0231  1.1046  1.7455
19738SOL    HW260892   0.786   7.496   4.597 -3.6762  1.0657  1.1474
19739SOL     OW60893   1.733   8.359   6.569  0.7852  0.1873  0.2813
19739SOL    HW160894   1.825   8.341   6.585  0.3873  0.4680  3.2170
19739SOL    HW260895   1.727   8.455   6.567  1.0956  0.2089 -3.7418
19740SOL     OW60896   6.251   6.622   4.133 -0.0866 -0.1473 -0.2300
19740SOL    HW160897   6.277   6.569   4.208 -1.6148  0.0896  0.4907
19740SOL    HW260898   6.304   6.702   4.141  0.2147 -0.3920  0.2421
19741SOL     OW60899   6.769   1.784   1.872 -0.3873  0.1385 -0.3915
19741SOL    HW160900   6.777   1.863   1.925 -0.8540  0.3090 -0.5799
19741SOL    HW260901   6.799   1.810   1.785 -1.7416  0.4413 -0.7743
19742SOL     OW60902   3.585   0.627   7.950 -0.2041  0.2139 -0.3406
19742SOL    HW160903   3.629   0.600   8.030  0.9420  0.8894 -0.7306
19742SOL    HW260904   3.500   0.583   7.953  0.7290 -1.6124  0.1392
19743SOL     OW60905   1.262   5.388   0.792  0.2460  0.7483  0.3297
19743SOL    HW160906   1.245   5.479   0.816  3.1719  1.0680  1.4524
19743SOL    HW260907   1.319   5.394   0.715 -2.3746 -0.2002 -1.7345
19744SOL     OW60908   0.624   3.219   2.238 -0.5161  0.3513 -0.0661
19744SOL    HW160909   0.644   3.274   2.313  2.1287  0.0017 -0.4718
19744SOL    HW260910   0.707   3.178   2.214 -1.9261 -2.0120 -1.2278
19745SOL     OW60911   4.812   7.139   0.522 -0.4345  0.0086 -0.1837
19745SOL    HW160912   4.822   7.065   0.581 -0.5744  0.9784  1.0791
19745SOL    HW260913   4.721   7.136   0.494 -0.2849 -0.6410 -0.6127
19746SOL     OW60914   0.460   8.815   9.184 -0.3798 -0.0023  0.3376
19746SOL    HW160915   0.549   8.828   9.216 -0.2318  1.1885 -0.4867
19746SOL    HW260916   0.458   8.726   9.150  0.5299  0.0004  0.2797
19747SOL     OW60917   0.092   8.456   2.191 -0.0510 -0.2018  0.2960
19747SOL    HW160918   0.085   8.485   2.282 -0.9281  0.1893  0.1121
19747SOL    HW260919   0.176   8.411   2.186 -0.3774 -0.9591  1.5109
19748SOL     OW60920   0.129   1.819   7.347  0.1025 -0.0125 -0.1111
19748SOL    HW160921   0.160   1.734   7.316 -0.4136 -0.3728  0.3563
19748SOL    HW260922   0.118   1.808   7.441 -0.3061  0.4642 -0.1001
19749SOL     OW60923   1.859   5.042   9.073 -0.1090  0.2234 -0.9039
19749SOL    HW160924   1.805   5.104   9.025  0.2878  0.5401 -0.9448
19749SOL    HW260925   1.868   4.967   9.015  1.2801  1.0481 -1.7915
19750SOL     OW60926   2.887   8.209   2.742 -0.4566 -0.3664 -0.2090
19750SOL    HW160927   2.807   8.181   2.698  0.6052 -2.2053 -1.0341
19750SOL    HW260928   2.877   8.304   2.751 -2.2515 -0.4242 -1.2507
19751SOL     OW60929   6.601   2.468   7.321 -0.2426  0.0505 -0.4711
19751SOL    HW160930   6.591   2.550   7.273  0.8176  0.4697  0.0091
19751SOL    HW260931   6.513   2.447   7.351 -0.5631  0.8793 -0.8193
19752SOL     OW60932   6.767   2.659   8.733 -0.0787  0.0215 -0.1987
19752SOL    HW160933   6.723   2.662   8.817 -1.1489  3.4411 -0.7753
19752SOL    HW260934   6.853   2.698   8.750  0.5811 -1.4004 -0.2340
19753SOL     OW60935   2.482   1.938   3.885  0.9174  0.3545  0.5539
19753SOL    HW160936   2.558   1.912   3.834  0.5079  0.5622 -0.1786
19753SOL    HW260937   2.462   1.861   3.939 -0.0874 -0.7740 -1.3565
19754SOL     OW60938   0.386   5.892   5.312  0.4669  0.0450  0.2035
19754SOL    HW160939   0.478   5.918   5.317  0.6343 -0.1970 -1.4343
19754SOL    HW260940   0.378   5.821   5.376  1.8127 -1.0311 -0.7847
19755SOL     OW60941   6.166   4.821   6.023 -0.0698 -0.6372  0.1747
19755SOL    HW160942   6.162   4.911   5.990 -0.2879 -0.4627  0.6650
19755SOL    HW260943   6.250   4.816   6.068  0.0343 -0.7438 -0.0302
19756SOL     OW60944   7.489   6.387   5.000 -0.4904 -0.2008  0.4429
19756SOL    HW160945   7.437   6.309   5.016  0.2145 -0.1223  3.3868
19756SOL    HW260946   7.426   6.459   5.003 -1.0436 -0.5537 -1.6645
19757SOL     OW60947   2.133   7.808   6.201  0.1873  0.0703  0.2210
19757SOL    HW160948   2.197   7.819   6.131  0.4331 -1.4263  0.2006
19757SOL    HW260949   2.167   7.860   6.274  0.1613  1.2703 -0.6063
19758SOL     OW60950   5.619   0.895   6.441 -0.3681  0.4938  0.0130
19758SOL    HW160951   5.533   0.868   6.410 -0.1225 -1.0058  0.5898
19758SOL    HW260952   5.608   0.986   6.466 -1.7395  0.3669 -0.0931
19759SOL     OW60953   1.276   5.891   1.512  0.2385  0.0309 -0.4028
19759SOL    HW160954   1.194   5.869   1.467  0.2316  1.4411 -1.1343
19759SOL    HW260955   1.249   5.934   1.593  0.2305  0.5780 -0.6865
19760SOL     OW60956   6.114   8.321   4.451  0.0565 -0.4065 -0.2094
19760SOL    HW160957   6.141   8.411   4.430 -0.7113 -0.2515 -0.5341
19760SOL    HW260958   6.142   8.270   4.375  0.1787 -0.3871 -0.1784
19761SOL     OW60959   1.156   1.241   1.573  0.0377 -0.0068  0.4913
19761SOL    HW160960   1.089   1.277   1.632  0.6521 -0.5843  1.5510
19761SOL    HW260961   1.227   1.214   1.631  1.5222  1.3045 -0.6965
19762SOL     OW60962   1.217   3.297   7.704  0.0157  0.1875  0.4328
19762SOL    HW160963   1.150   3.351   7.745 -0.8933 -2.1740  2.0873
19762SOL    HW260964   1.273   3.268   7.776  0.1688 -1.5378 -0.3543
19763SOL     OW60965   4.473   8.513   4.191  0.0282  0.2599  0.2594
19763SOL    HW160966   4.500   8.424   4.210  1.0453  0.2851 -1.0305
19763SOL    HW260967   4.542   8.568   4.229 -1.0001  0.5494  1.7645
19764SOL     OW60968   5.317   4.774   1.857  0.6779 -0.7280 -0.2749
19764SOL    HW160969   5.357   4.789   1.942  1.1728 -0.2603 -0.5901
19764SOL    HW260970   5.226   4.801   1.868  1.0684  0.6059 -0.2717
19765SOL     OW60971   4.623   0.509   8.825 -0.1960 -0.2018  0.0704
19765SOL    HW160972   4.719   0.511   8.831 -0.1826 -1.4129  0.4614
19765SOL    HW260973   4.594   0.566   8.895  0.2229 -1.7762  1.5739
19766SOL     OW60974   7.082   5.563   0.504 -0.2120  0.0731 -0.0384
19766SOL    HW160975   7.122   5.499   0.562  0.5110  1.2193  0.7389
19766SOL    HW260976   7.058   5.636   0.560  0.6675  1.2794 -1.1937
19767SOL     OW60977   0.053   4.127   7.616  0.0966 -0.3101 -0.7548
19767SOL    HW160978  -0.011   4.065   7.581 -0.4857 -0.0663 -0.1106
19767SOL    HW260979   0.069   4.097   7.706 -1.6087  1.5957  0.2101
19768SOL     OW60980   8.621   1.600   5.454 -0.4085  0.7481  0.1449
19768SOL    HW160981   8.636   1.686   5.494 -1.0744  1.0616 -0.2872
19768SOL    HW260982   8.686   1.595   5.384 -0.6437  1.0686 -0.0965
19769SOL     OW60983   5.336   8.032   6.759  0.1220  0.1043 -0.6615
19769SOL    HW160984   5.315   8.070   6.674  1.9152  0.8165 -0.8150
19769SOL    HW260985   5.351   7.939   6.741 -0.2334  0.1114 -0.9878
19770SOL     OW60986   0.052   3.875   0.921 -0.2093 -0.2189  0.8035
19770SOL    HW160987   0.017   3.879   1.010 -1.9802 -1.0549  0.1705
19770SOL    HW260988  -0.022   3.901   0.865  0.2854 -1.6211 -0.5394
19771SOL     OW60989   0.734   1.340   3.410  0.3935 -0.7767  0.3487
19771SOL    HW160990   0.688   1.416   3.375 -0.4145 -2.0798 -1.5105
19771SOL    HW260991   0.821   1.372   3.432  0.0404  0.6930 -0.3834
19772SOL     OW60992   8.235   3.315   1.216  0.1279 -0.2586  0.1081
19772SOL    HW160993   8.199   3.308   1.128 -2.7055 -2.2729  1.3352
19772SOL    HW260994   8.250   3.224   1.242  0.6228  0.2917  1.8034
19773SOL     OW60995   8.443   2.855   3.568  0.5781  0.2763 -0.2308
19773SOL    HW160996   8.417   2.926   3.626 -0.2550 -0.6299  0.5113
19773SOL    HW260997   8.538   2.848   3.580  0.6896  1.3266 -0.3984
19774SOL     OW60998   0.089   8.678   3.402 -0.0222  0.1398 -0.6069
19774SOL    HW160999   0.107   8.585   3.416 -1.2400  0.0111  0.2113
19774SOL    HW261000   0.058   8.683   3.311 -0.3691 -0.3196 -0.5164
19775SOL     OW61001   8.380   8.873   9.080  0.3222  0.1687 -0.2208
19775SOL    HW161002   8.465   8.913   9.059  0.8033  0.3611  1.9812
19775SOL    HW261003   8.392   8.836   9.167 -2.3459  1.6624  0.8379
19776SOL     OW61004   7.434   8.300   4.635 -0.1598  0.1811  0.3874
19776SOL    HW161005   7.344   8.268   4.631 -0.4116  1.0836 -1.6795
19776SOL    HW261006   7.425   8.395   4.643  0.6178  0.2074  1.0392
19777SOL     OW61007   2.927   7.357   7.991 -0.2645  0.1155 -0.3353
19777SOL    HW161008   2.866   7.430   7.990  0.3823  0.6828  0.7831
19777SOL    HW261009   2.892   7.296   8.055 -0.0894  0.0667 -0.2849
19778SOL     OW61010   2.525   6.841   7.897 -0.0946  0.1009  0.1247
19778SOL    HW161011   2.447   6.882   7.935  1.4093  1.6145  1.6786
19778SOL    HW261012   2.548   6.897   7.823 -0.1620 -0.0141  0.0178
19779SOL     OW61013   7.843   4.030   5.028  0.0481  0.1236 -0.0520
19779SOL    HW161014   7.798   3.976   5.093 -0.6256 -0.2314 -0.8090
19779SOL    HW261015   7.932   4.037   5.061 -0.3702  0.2446  1.1000
19780SOL     OW61016   6.459   1.628   2.829 -0.3586 -0.2518  0.1315
19780SOL    HW161017   6.400   1.682   2.776 -0.3180 -1.0249 -0.7056
19780SOL    HW261018   6.444   1.658   2.919 -1.0968  0.4341 -0.2157
19781SOL     OW61019   5.247   2.701   8.363 -0.3567  0.4390  0.4000
19781SOL    HW161020   5.169   2.728   8.314 -1.6926  1.0021  2.7305
19781SOL    HW261021   5.274   2.780   8.410  2.3832  0.5686 -1.3056
19782SOL     OW61022   5.749   6.774   2.687 -0.0577  0.3586  0.2015
19782SOL    HW161023   5.790   6.771   2.601  2.6301  0.3812  1.4110
19782SOL    HW261024   5.668   6.724   2.677 -0.5314  1.6049 -2.6804
19783SOL     OW61025   6.849   0.367   7.962 -0.1299  0.3905  0.3287
19783SOL    HW161026   6.871   0.457   7.987  3.0514  0.1601 -1.3062
19783SOL    HW261027   6.805   0.376   7.877 -0.2025  0.4465  0.3724
19784SOL     OW61028   2.818   0.642   1.663 -0.3747 -0.0294 -0.0328
19784SOL    HW161029   2.828   0.710   1.729 -0.5471 -1.3424  1.3865
19784SOL    HW261030   2.770   0.572   1.708 -0.6643 -0.8667 -1.6045
19785SOL     OW61031   0.325   5.229   2.650 -0.1811 -0.3383  0.0553
19785SOL    HW161032   0.413   5.206   2.680 -0.2725 -2.2061 -1.0106
19785SOL    HW261033   0.337   5.260   2.560 -0.5060  0.3275  0.2363
19786SOL     OW61034   5.667   0.484   4.066  0.1654  0.0304  0.4032
19786SOL    HW161035   5.669   0.436   3.983 -1.9132  0.8427 -0.1378
19786SOL    HW261036   5.753   0.467   4.105  2.1641  1.6266 -3.0453
19787SOL     OW61037   0.179   3.426   5.803  0.2483  0.3128 -0.3991
19787SOL    HW161038   0.193   3.507   5.754 -0.8620  0.1878 -0.9218
19787SOL    HW261039   0.135   3.453   5.883  0.6029  0.3180 -0.2031
19788SOL     OW61040   1.330   5.460   6.939 -0.1310 -0.5290  0.0407
19788SOL    HW161041   1.252   5.464   6.993 -1.2556 -1.3288 -1.4845
19788SOL    HW261042   1.300   5.482   6.851  1.4880 -0.1613 -0.4472
19789SOL     OW61043   3.083   8.038   8.229  0.5598  0.0961  0.2146
19789SOL    HW161044   3.148   7.970   8.208 -0.1174 -0.2491 -0.7495
19789SOL    HW261045   3.131   8.120   8.218 -0.0828  0.0178 -4.0004
19790SOL     OW61046   5.518   2.915   4.045 -0.4057  0.5743 -0.1151
19790SOL    HW161047   5.592   2.867   4.009 -0.3702  0.3252  0.2859
19790SOL    HW261048   5.465   2.849   4.089  1.3673  1.2818  3.3676
19791SOL     OW61049   9.133   0.031   0.863 -0.4910  0.2192 -0.1095
19791SOL    HW161050   9.185   0.090   0.917  0.4395 -1.4724  0.8937
19791SOL    HW261051   9.077  -0.015   0.926 -1.3829  0.2088 -0.9022
19792SOL     OW61052   0.242   5.348   6.687 -0.3345  0.1688 -0.6857
19792SOL    HW161053   0.221   5.255   6.694 -0.5072  0.1369 -1.4845
19792SOL    HW261054   0.337   5.352   6.694 -0.4420  0.1184  1.0820
19793SOL     OW61055   8.955   5.829   0.928  0.2462  0.1379 -0.1832
19793SOL    HW161056   8.971   5.824   1.022  0.3908  0.8108 -0.1715
19793SOL    HW261057   8.999   5.909   0.900  2.5201 -1.4629 -1.3168
19794SOL     OW61058   9.096   2.753   3.905 -0.4734  0.0551  0.0218
19794SOL    HW161059   9.119   2.680   3.963  0.1863  1.0387  1.0112
19794SOL    HW261060   9.180   2.786   3.874 -0.7865  0.2142 -0.6602
19795SOL     OW61061   4.747   0.577   5.887 -0.1903 -0.3661  0.3770
19795SOL    HW161062   4.802   0.623   5.950 -0.6340 -0.1432  0.5969
19795SOL    HW261063   4.805   0.510   5.850  1.2111  1.8513 -1.6736
19796SOL     OW61064   2.318   4.262   0.271 -0.6315  0.4142  0.5350
19796SOL    HW161065   2.377   4.319   0.221  1.2523 -1.7876  0.1645
19796SOL    HW261066   2.230   4.294   0.249  0.3157  2.1209 -0.9228
19797SOL     OW61067   5.342   5.957   1.773 -0.0328 -0.0406 -0.4760
19797SOL    HW161068   5.265   5.919   1.730 -0.6696  0.9410 -0.2268
19797SOL    HW261069   5.368   5.893   1.839  0.0359 -0.8792 -1.3161
19798SOL     OW61070   3.448   0.298   1.503  0.3431 -0.1511  0.2073
19798SOL    HW161071   3.409   0.249   1.575  0.3788  0.8910  0.9433
19798SOL    HW261072   3.399   0.380   1.501  0.2781 -0.2052 -1.0166
19799SOL     OW61073   4.974   2.645   6.880 -0.0697  0.1985  0.2112
19799SOL    HW161074   4.983   2.740   6.874 -1.5319  0.2875 -0.9420
19799SOL    HW261075   4.991   2.613   6.791  1.9019 -0.7709  0.9058
19800SOL     OW61076   0.393   6.566   1.675 -0.6312  0.0034 -0.5777
19800SOL    HW161077   0.407   6.655   1.709  0.2136 -0.0771 -0.7137
19800SOL    HW261078   0.420   6.572   1.584  0.2539 -0.6128 -0.3578
19801SOL     OW61079   4.491   0.553   7.054  0.2647 -0.0949 -0.4676
19801SOL    HW161080   4.455   0.642   7.060  0.9732  0.1123  1.1077
19801SOL    HW261081   4.415   0.496   7.066  0.3625  0.3468  2.7547
19802SOL     OW61082   2.267   1.205   2.604 -0.2680 -0.5348  0.3293
19802SOL    HW161083   2.257   1.143   2.532  0.2823 -0.2363 -0.0092
19802SOL    HW261084   2.199   1.271   2.589 -0.5818 -0.8302  0.4541
19803SOL     OW61085   8.402   0.086   3.252 -0.0129 -0.3261 -0.6063
19803SOL    HW161086   8.314   0.048   3.250 -0.4050  0.5346  0.0396
19803SOL    HW261087   8.402   0.148   3.179  1.0076 -2.3775 -2.3897
19804SOL     OW61088   6.221   3.713   1.563  0.3924  0.2455  0.2485
19804SOL    HW161089   6.283   3.717   1.636 -0.3007 -0.2156  0.8724
19804SOL    HW261090   6.249   3.639   1.510 -1.3898 -1.9044  2.1843
19805SOL     OW61091   5.073   7.417   0.206 -0.2118 -0.4742  0.4456
19805SOL    HW161092   5.046   7.327   0.226  0.3521 -0.6634  0.3827
19805SOL    HW261093   5.138   7.407   0.136  0.2109 -0.0543  0.7771
19806SOL     OW61094   1.036   7.844   6.459  0.3576  0.4326  0.0894
19806SOL    HW161095   1.105   7.778   6.461 -0.6028 -0.5867  0.3067
19806SOL    HW261096   1.031   7.871   6.367  0.1662 -0.4427 -0.1604
19807SOL     OW61097   2.724   7.190   7.339  0.0823  0.2691 -0.5443
19807SOL    HW161098   2.631   7.202   7.319  0.1822  0.7366 -0.7485
19807SOL    HW261099   2.764   7.173   7.254  0.2077  0.2438 -0.4792
19808SOL     OW61100   3.448   3.422   1.254  0.1235  0.2569  0.2081
19808SOL    HW161101   3.456   3.414   1.349 -0.0879  0.4798  0.2426
19808SOL    HW261102   3.512   3.489   1.229 -0.2538  0.6381  0.2630
19809SOL     OW61103   7.163   1.599   3.239 -0.1746 -0.1450 -0.1953
19809SOL    HW161104   7.112   1.603   3.320  1.1847  2.0335  0.6019
19809SOL    HW261105   7.115   1.654   3.177 -0.1519 -0.1637 -0.2296
19810SOL     OW61106   4.380   0.257   2.792 -0.7250  0.0044  0.5082
19810SOL    HW161107   4.423   0.342   2.784 -1.1066  0.1473 -0.1166
19810SOL    HW261108   4.402   0.211   2.711 -2.1211  0.2623 -0.0282
19811SOL     OW61109   5.865   4.994   0.054 -0.2576  0.0094  0.1491
19811SOL    HW161110   5.848   5.002  -0.040  2.3165 -1.2894 -0.4499
19811SOL    HW261111   5.890   5.082   0.081 -1.9650  0.6103 -0.1503
19812SOL     OW61112   5.787   7.208   2.886 -0.4112 -0.0393 -0.7388
19812SOL    HW161113   5.709   7.257   2.911 -0.3766 -0.1664 -0.3821
19812SOL    HW261114   5.753   7.125   2.852 -0.4780  0.2877 -1.4907
19813SOL     OW61115   1.707   9.194   4.498 -0.0660  0.2841 -0.7770
19813SOL    HW161116   1.696   9.266   4.435 -0.3895  2.0044  1.1752
19813SOL    HW261117   1.764   9.231   4.566 -0.3669 -1.2619  0.3282
19814SOL     OW61118   1.192   3.940   2.606  0.3147  0.1924 -0.4034
19814SOL    HW161119   1.194   3.987   2.523  1.1300  1.6003  0.3703
19814SOL    HW261120   1.206   3.848   2.583 -0.3822  0.4519 -1.8854
19815SOL     OW61121   0.319   8.233   7.725 -0.3277 -0.1629  0.0641
19815SOL    HW161122   0.344   8.325   7.714  2.5385 -0.8856  0.1000
19815SOL    HW261123   0.344   8.191   7.643  0.6927 -1.3727  0.9807
19816SOL     OW61124   7.369   4.679   4.101 -0.0107 -0.0344  0.5734
19816SOL    HW161125   7.333   4.756   4.145  0.2393 -0.5313  1.6649
19816SOL    HW261126   7.315   4.607   4.131  0.8961 -0.5500  0.9627
19817SOL     OW61127   1.209   8.531   2.473  0.3379 -0.1683  0.3821
19817SOL    HW161128   1.237   8.539   2.564  1.6349  0.3397 -0.0520
19817SOL    HW261129   1.211   8.437   2.455 -2.3356 -0.5088  1.6045
19818SOL     OW61130   7.808   0.004   0.901 -0.1828  0.0614 -0.7310
19818SOL    HW161131   7.866  -0.026   0.971 -2.5849  0.6638  1.6120
19818SOL    HW261132   7.734  -0.056   0.905 -2.2425  2.5626 -0.0071
19819SOL     OW61133   6.391   1.412   1.751  0.6473  0.1709 -0.4024
19819SOL    HW161134   6.408   1.396   1.844  2.1128 -0.0998 -0.6951
19819SOL    HW261135   6.427   1.499   1.734  2.4091 -0.6803 -1.1892
19820SOL     OW61136   8.457   8.391   8.421  0.5903 -0.2598 -0.5111
19820SOL    HW161137   8.380   8.442   8.447  0.9986  0.0362  0.1114
19820SOL    HW261138   8.440   8.368   8.329 -0.4681 -0.6110 -0.2326
19821SOL     OW61139   8.199   3.644   1.409 -0.2822 -0.1570 -0.1828
19821SOL    HW161140   8.165   3.609   1.326 -1.0705  0.0497  0.0427
19821SOL    HW261141   8.273   3.699   1.383 -0.1117 -0.6219 -0.6911
19822SOL     OW61142   3.603   5.967   4.919 -0.0374 -0.0787  0.3747
19822SOL    HW161143   3.586   6.060   4.907  0.9607  0.0469 -0.0770
19822SOL    HW261144   3.517   5.926   4.910 -0.8431  0.9872  2.7032
19823SOL     OW61145   8.574   6.912   5.666 -0.5556 -0.3053 -0.0902
19823SOL    HW161146   8.526   6.941   5.588  0.5121  1.0335 -0.2490
19823SOL    HW261147   8.633   6.844   5.634 -1.2115 -0.8588 -0.1599
19824SOL     OW61148   7.856   5.941   6.680 -0.7956  0.4879 -0.6928
19824SOL    HW161149   7.860   5.871   6.615  0.8575 -1.4615  1.4065
19824SOL    HW261150   7.944   5.977   6.682 -0.8561  0.5907  0.3787
19825SOL     OW61151   7.349   0.199   2.133  0.7013 -0.3935  0.3360
19825SOL    HW161152   7.380   0.288   2.152 -0.1297  0.2056 -1.0141
19825SOL    HW261153   7.429   0.148   2.124  1.2488  0.6174 -0.6938
19826SOL     OW61154   3.425   3.284   6.041  0.3368  0.1392  0.2754
19826SOL    HW161155   3.362   3.284   5.969  0.2594 -0.6418  0.3380
19826SOL    HW261156   3.384   3.231   6.109  1.2760 -0.8276  0.1106
19827SOL     OW61157   4.939   0.094   3.269  0.1415 -0.4897 -0.3793
19827SOL    HW161158   4.968   0.106   3.360  0.0906 -0.5001 -0.3609
19827SOL    HW261159   5.002   0.142   3.217 -2.2233  3.1710 -0.0306
19828SOL     OW61160   8.466   1.424   2.760  0.2429 -0.6465  0.1863
19828SOL    HW161161   8.504   1.507   2.731  0.5086 -1.3994 -1.7188
19828SOL    HW261162   8.473   1.426   2.856 -0.1633  1.6953  0.1798
19829SOL     OW61163   3.671   1.690   1.520 -0.1222  0.1442  0.0914
19829SOL    HW161164   3.630   1.769   1.485 -3.8581 -1.4930  0.4970
19829SOL    HW261165   3.732   1.722   1.586  0.2242  2.7808 -1.4265
19830SOL     OW61166   8.212   2.258   4.875  0.1414  0.6337  0.4819
19830SOL    HW161167   8.230   2.165   4.869 -0.9983  0.4225  0.1386
19830SOL    HW261168   8.297   2.299   4.893  0.9142 -0.2977 -1.0381
19831SOL     OW61169   6.094   0.517   4.485 -0.1353  0.1033 -0.6071
19831SOL    HW161170   6.170   0.538   4.430  0.8278 -1.1285  0.2051
19831SOL    HW261171   6.131   0.464   4.556 -2.0336 -1.9524 -1.1326
19832SOL     OW61172   8.012   9.147   8.975 -0.3225 -0.3155 -0.7425
19832SOL    HW161173   8.067   9.112   9.045 -1.2867  0.7053  0.5453
19832SOL    HW261174   8.015   9.242   8.987  0.1510 -0.0607 -2.5990
19833SOL     OW61175   2.321   0.224   3.614 -0.2037  0.1672  0.4772
19833SOL    HW161176   2.289   0.216   3.524  0.0532  0.7126  0.3316
19833SOL    HW261177   2.312   0.136   3.651 -4.5410  0.8200  1.3526
19834SOL     OW61178   0.579   5.507   0.724 -0.1416  0.5325  0.1481
19834SOL    HW161179   0.503   5.450   0.712  0.1138 -0.6541  3.6698
19834SOL    HW261180   0.654   5.449   0.717  0.2397  0.9027  1.0371
19835SOL     OW61181   6.657   3.103   6.791  0.3074 -0.0300  0.2068
19835SOL    HW161182   6.642   3.083   6.699  1.9057 -1.2598  0.1876
19835SOL    HW261183   6.640   3.197   6.797  0.6305  0.1626 -1.4497
19836SOL     OW61184   5.750   3.794   6.219  0.7541  0.2241 -0.3965
19836SOL    HW161185   5.802   3.822   6.294 -0.8270  2.5120 -0.0848
19836SOL    HW261186   5.663   3.778   6.254 -0.0519  1.5044 -1.7448
19837SOL     OW61187   7.530   2.894   1.774  0.6674 -0.0534  0.0438
19837SOL    HW161188   7.615   2.898   1.729  0.7601  0.5642  0.2695
19837SOL    HW261189   7.542   2.827   1.841  1.1130  0.3319  0.3527
19838SOL     OW61190   9.183   3.886   8.378 -0.2844  0.3866  0.0839
19838SOL    HW161191   9.127   3.808   8.380 -0.3636  0.4363 -0.2297
19838SOL    HW261192   9.194   3.905   8.285  0.2119  0.4085  0.1488
19839SOL     OW61193   2.999   0.099   6.896 -0.4288 -0.6435  0.6364
19839SOL    HW161194   2.949   0.019   6.912 -1.2806 -0.0196  1.1790
19839SOL    HW261195   3.012   0.137   6.983 -0.2512 -0.0625  0.3595
19840SOL     OW61196   3.508   3.257   4.540 -0.0791  0.4420  0.1321
19840SOL    HW161197   3.472   3.346   4.534  0.5450  0.6384 -0.8584
19840SOL    HW261198   3.547   3.242   4.454  1.4761 -0.0891  0.9208
19841SOL     OW61199   4.032   7.837   2.556 -0.0034  0.3101 -0.5271
19841SOL    HW161200   4.084   7.763   2.524  0.1229 -0.4514  1.3986
19841SOL    HW261201   3.962   7.796   2.607  0.0114  1.5144  0.4655
19842SOL     OW61202   6.636   1.473   5.318 -0.2440 -0.1150 -0.1038
19842SOL    HW161203   6.625   1.456   5.412 -0.4439 -0.4261 -0.1821
19842SOL    HW261204   6.548   1.464   5.282  0.1739 -2.1818 -0.6689
19843SOL     OW61205   7.081   7.682   5.725 -0.2559  0.7122  0.3578
19843SOL    HW161206   7.057   7.775   5.717 -1.6629  0.3708  0.5031
19843SOL    HW261207   7.152   7.682   5.790 -0.6817  1.6168  0.8360
19844SOL     OW61208   4.908   7.345   6.538  0.1221 -0.0655 -0.3210
19844SOL    HW161209   4.814   7.346   6.557  0.0078  0.1929 -0.8859
19844SOL    HW261210   4.949   7.368   6.621 -0.3265  0.0298 -0.1213
19845SOL     OW61211   4.645   8.252   5.850  0.4419  0.6570 -0.5355
19845SOL    HW161212   4.555   8.220   5.852  0.4956  0.4476 -1.1599
19845SOL    HW261213   4.686   8.216   5.929  0.1199  0.3181 -0.5208
19846SOL     OW61214   4.711   0.684   6.894  0.5642 -0.4319  0.5344
19846SOL    HW161215   4.713   0.597   6.855  0.2408  0.5595 -1.7445
19846SOL    HW261216   4.619   0.708   6.893  0.6451 -0.0864  1.2335
19847SOL     OW61217   3.950   7.021   4.570  0.4978 -0.5433  0.4735
19847SOL    HW161218   3.940   7.051   4.479  1.6607 -1.3987  0.0564
19847SOL    HW261219   4.044   7.023   4.586  0.5942 -3.6739  0.5250
19848SOL     OW61220   3.250   8.643   7.018 -0.5143 -0.1277  0.2498
19848SOL    HW161221   3.344   8.657   7.004  0.1049 -1.0993  3.0617
19848SOL    HW261222   3.209   8.726   6.994  1.2572  0.8343  0.5157
19849SOL     OW61223   0.150   1.451   7.810 -0.5462 -0.4135 -0.2155
19849SOL    HW161224   0.110   1.385   7.867  0.9477  1.1899  2.8604
19849SOL    HW261225   0.238   1.417   7.793 -0.3423 -0.0143  0.0259
19850SOL     OW61226   6.449   3.495   2.725  0.2501  0.1139  0.4480
19850SOL    HW161227   6.390   3.509   2.799 -0.9039 -1.2886 -0.1835
19850SOL    HW261228   6.513   3.432   2.758  1.3558  1.5606  1.1021
19851SOL     OW61229   6.677   0.260   0.952  0.5967 -0.0187 -0.0634
19851SOL    HW161230   6.663   0.219   0.866 -1.2060  0.5340 -0.0373
19851SOL    HW261231   6.646   0.350   0.941 -0.5337 -0.2127  1.4542
19852SOL     OW61232   5.914   4.287   3.342 -0.4584  0.6791 -0.6747
19852SOL    HW161233   5.941   4.252   3.257 -0.5916 -1.9698  0.3363
19852SOL    HW261234   5.819   4.278   3.342 -0.2008 -2.3549  1.0157
19853SOL     OW61235   2.267   0.774   4.008  0.1854 -0.3208 -0.4826
19853SOL    HW161236   2.324   0.832   4.056 -0.2989 -0.8184  0.7130
19853SOL    HW261237   2.188   0.767   4.062 -0.0487 -1.5065 -0.9539
19854SOL     OW61238   3.307   3.349   3.681  0.2176 -0.0118 -0.0842
19854SOL    HW161239   3.268   3.382   3.762  1.3701 -0.4694  0.6837
19854SOL    HW261240   3.233   3.317   3.630 -0.8143  2.8274 -0.4373
19855SOL     OW61241   2.214   2.603   5.242 -0.2860  0.4849 -0.6466
19855SOL    HW161242   2.159   2.669   5.285 -1.4789 -0.7861 -0.2039
19855SOL    HW261243   2.194   2.521   5.287 -0.3239 -0.5673 -2.5073
19856SOL     OW61244   0.881   0.452   1.784  0.0015 -0.1342  0.1770
19856SOL    HW161245   0.817   0.490   1.725 -0.9338 -0.7797  0.7706
19856SOL    HW261246   0.845   0.468   1.872  0.0319 -1.6023  0.4641
19857SOL     OW61247   9.143   5.744   3.664  0.4273  0.0764  0.2637
19857SOL    HW161248   9.132   5.694   3.744  3.2096  0.9279  1.2447
19857SOL    HW261249   9.122   5.834   3.689  1.4216  0.3637  0.0623
19858SOL     OW61250   7.309   1.321   4.518  0.6626 -0.1506 -0.4642
19858SOL    HW161251   7.328   1.314   4.612 -0.0286 -0.7500 -0.3702
19858SOL    HW261252   7.390   1.292   4.475  0.2529 -1.9532 -0.0613
19859SOL     OW61253   6.857   1.577   7.677  0.1176  0.3019 -0.0198
19859SOL    HW161254   6.823   1.666   7.687 -2.7122 -0.7785  0.4117
19859SOL    HW261255   6.891   1.556   7.764  2.5074  1.5761 -0.5872
19860SOL     OW61256   2.748   5.952   6.248 -0.2690  0.3953 -0.2579
19860SOL    HW161257   2.668   5.919   6.288 -1.0841  1.5447 -0.9001
19860SOL    HW261258   2.727   5.960   6.155  0.0714  2.1285 -0.2070
19861SOL     OW61259   4.759   0.269   7.937 -0.1558 -0.3606 -0.2565
19861SOL    HW161260   4.759   0.273   7.841  1.0701  0.3152 -0.2441
19861SOL    HW261261   4.715   0.186   7.958 -0.9928 -0.2170 -1.3774
19862SOL     OW61262   0.908   2.461   7.009  0.1611  0.3125 -0.1148
19862SOL    HW161263   0.817   2.481   6.989 -0.0551  0.1056  0.6362
19862SOL    HW261264   0.941   2.419   6.930 -0.3953  0.3914 -0.3928
19863SOL     OW61265   1.709   6.397   2.539 -0.0415  0.0899 -0.5487
19863SOL    HW161266   1.775   6.335   2.509  0.1035  0.5635 -1.2221
19863SOL    HW261267   1.626   6.348   2.534  0.6647 -1.8424  4.1176
19864SOL     OW61268   7.767   2.365   5.445 -0.4652  0.7556 -0.7019
19864SOL    HW161269   7.686   2.352   5.396 -0.6660 -1.0517  0.0632
19864SOL    HW261270   7.742   2.351   5.536  0.5100  1.1760 -0.3653
19865SOL     OW61271   5.202   0.405   2.134  0.0237 -0.2905 -0.4735
19865SOL    HW161272   5.298   0.405   2.136  0.0251 -0.0305 -0.5429
19865SOL    HW261273   5.176   0.432   2.223  0.0192  0.3202 -0.6589
19866SOL     OW61274   8.201   8.184   0.167 -0.1800 -0.2584 -0.1466
19866SOL    HW161275   8.137   8.133   0.117  0.2699 -1.4085  0.4395
19866SOL    HW261276   8.282   8.177   0.117 -0.3946  0.8658 -0.6753
19867SOL     OW61277   7.421   7.498   6.051 -0.0360 -0.4869  0.4520
19867SOL    HW161278   7.480   7.449   6.108  0.0840 -1.2361 -0.3095
19867SOL    HW261279   7.412   7.444   5.972  2.0106  1.8093 -1.4300
19868SOL     OW61280   5.983   8.190   3.842 -0.0866  0.4765  0.0746
19868SOL    HW161281   5.929   8.111   3.848 -0.6926  0.9811  1.3647
19868SOL    HW261282   5.974   8.218   3.751 -0.2331 -0.6687 -0.2769
19869SOL     OW61283   0.175   7.150   8.024 -0.4514 -0.3419 -0.2349
19869SOL    HW161284   0.091   7.148   8.070 -0.1542 -1.3144  0.2689
19869SOL    HW261285   0.155   7.119   7.936 -0.0476 -3.8785  0.8394
19870SOL     OW61286   1.549   6.658   3.444 -0.2517  0.1052  0.1250
19870SOL    HW161287   1.561   6.752   3.452 -0.5862  0.1555  0.0385
19870SOL    HW261288   1.596   6.621   3.519 -0.2039  0.3465  0.2126
19871SOL     OW61289   2.051   4.941   2.951 -1.0402  0.6723 -0.2518
19871SOL    HW161290   2.127   4.998   2.949  0.2598 -1.0470 -0.5944
19871SOL    HW261291   1.983   4.989   2.903  0.4198  1.3380 -1.6630
19872SOL     OW61292   0.911   3.018   5.162 -0.4245  0.0832 -0.2649
19872SOL    HW161293   0.961   3.023   5.243  0.9141 -0.7784 -1.0149
19872SOL    HW261294   0.821   3.001   5.191  0.3490 -2.1893  1.0114
19873SOL     OW61295   6.376   1.457   5.263  0.1088  0.0208 -0.8078
19873SOL    HW161296   6.317   1.382   5.265  1.6370 -1.1812  1.9528
19873SOL    HW261297   6.327   1.528   5.306 -0.4940 -0.0395 -1.3883
19874SOL     OW61298   2.002   6.774   8.033  0.7043  0.4872  0.4473
19874SOL    HW161299   1.948   6.698   8.056  0.2734 -0.0513 -2.1571
19874SOL    HW261300   1.948   6.824   7.972  2.4401  0.8930 -0.8004
19875SOL     OW61301   4.011   3.024   1.236 -0.4618  0.6163 -0.1184
19875SOL    HW161302   3.965   2.958   1.184  2.7914 -0.1401 -2.1501
19875SOL    HW261303   4.001   2.994   1.326 -2.5757 -0.3643 -0.6350
19876SOL     OW61304   8.733   0.125   7.298 -0.1020 -0.6343  0.4919
19876SOL    HW161305   8.652   0.093   7.336 -0.5018  0.3070  0.4623
19876SOL    HW261306   8.712   0.142   7.207 -0.2701  0.8931  0.7912
19877SOL     OW61307   2.867   8.967   1.811 -0.4455  0.0248 -0.5766
19877SOL    HW161308   2.871   9.054   1.851  0.4449  0.9060 -2.4897
19877SOL    HW261309   2.861   8.907   1.884 -1.1669  1.7125  0.7834
19878SOL     OW61310   9.063   6.000   8.101  0.6968  0.2744 -0.6278
19878SOL    HW161311   9.033   6.039   8.019 -0.6013 -0.1603 -0.3790
19878SOL    HW261312   9.003   5.926   8.115  1.8967 -0.6148 -0.1019
19879SOL     OW61313   6.485   4.952   6.606  0.0555 -0.2597  0.5685
19879SOL    HW161314   6.469   4.953   6.701  0.8020  0.4042  0.6912
19879SOL    HW261315   6.500   5.044   6.584  0.2957 -0.4674 -0.1283
19880SOL     OW61316   9.222   6.300   7.535  0.4368 -0.7698  0.1325
19880SOL    HW161317   9.196   6.391   7.523  0.4943 -0.6556  0.8477
19880SOL    HW261318   9.288   6.303   7.604 -1.0930 -1.5832  1.6737
19881SOL     OW61319   1.375   8.260   4.599 -0.5652  0.6610 -0.1381
19881SOL    HW161320   1.387   8.255   4.693  0.4002  0.1051 -0.2838
19881SOL    HW261321   1.416   8.343   4.574 -1.2188  1.0266 -0.0186
19882SOL     OW61322   6.254   7.214   3.166  0.1665  0.0657  0.5476
19882SOL    HW161323   6.186   7.270   3.129  0.9056 -0.0935 -1.1091
19882SOL    HW261324   6.286   7.263   3.242 -0.6403  0.9097  0.3549
19883SOL     OW61325   4.929   6.316   5.041  0.0558  0.1113  0.5901
19883SOL    HW161326   4.861   6.249   5.045 -0.5136  0.6991  0.8474
19883SOL    HW261327   4.997   6.278   4.987 -0.1800 -0.7558  0.8943
19884SOL     OW61328   0.708   5.752   1.489  0.6593 -0.2093  0.0864
19884SOL    HW161329   0.675   5.741   1.578 -1.9600 -0.2331 -0.8445
19884SOL    HW261330   0.772   5.823   1.496 -1.4305  1.6346  1.5716
19885SOL     OW61331   3.699   3.502   7.444 -0.1701 -0.0443 -0.6746
19885SOL    HW161332   3.664   3.440   7.380  1.0815 -0.4587 -0.9696
19885SOL    HW261333   3.643   3.579   7.435 -1.9170 -1.2049 -0.1114
19886SOL     OW61334   2.350   7.236   5.808 -0.1998 -0.4505 -0.0612
19886SOL    HW161335   2.442   7.252   5.790 -0.3009  0.2710  0.0237
19886SOL    HW261336   2.336   7.144   5.788  0.5319 -0.5488 -0.1031
19887SOL     OW61337   3.748   5.001   4.607 -0.4679  0.3886  0.5951
19887SOL    HW161338   3.654   5.017   4.610 -0.6541 -0.8022  1.4126
19887SOL    HW261339   3.777   5.044   4.526 -1.5274  1.6388  0.8634
19888SOL     OW61340   3.830   0.546   1.794 -0.5843 -0.5761  0.1509
19888SOL    HW161341   3.755   0.497   1.827 -1.0090  0.7696  1.2050
19888SOL    HW261342   3.878   0.572   1.873 -0.4722  0.8820 -0.3877
19889SOL     OW61343   0.467   6.393   7.111 -0.3541 -0.4842 -0.0112
19889SOL    HW161344   0.387   6.375   7.061  0.2911 -1.6024 -0.6730
19889SOL    HW261345   0.527   6.430   7.046 -0.6736  1.3136  0.7086
19890SOL     OW61346   5.046   6.018   5.259 -0.5392  0.0818  0.1064
19890SOL    HW161347   4.996   6.066   5.325 -1.2251 -0.4840 -0.0008
19890SOL    HW261348   5.022   6.059   5.176  1.9343  2.1961  0.3865
19891SOL     OW61349   2.249   7.557   2.022  0.1706  0.6850  0.6330
19891SOL    HW161350   2.323   7.597   2.068  0.9200  0.1019 -0.0373
19891SOL    HW261351   2.261   7.463   2.033 -1.9332  0.6304  2.7260
19892SOL     OW61352   8.267   2.457   7.370 -0.2209 -0.3771  0.1165
19892SOL    HW161353   8.228   2.399   7.305  0.8399 -1.0182  0.0313
19892SOL    HW261354   8.300   2.531   7.319 -2.7310  0.9631  0.3732
19893SOL     OW61355   8.696   1.975   8.008 -0.5823  0.7234  0.1558
19893SOL    HW161356   8.718   1.894   7.963 -0.3739 -0.5209  2.4562
19893SOL    HW261357   8.639   2.022   7.946 -1.4240 -1.5475 -0.8458
19894SOL     OW61358   3.624   6.845   0.524 -0.3925  0.6701  0.3678
19894SOL    HW161359   3.706   6.800   0.547 -0.2388  0.6773 -0.1564
19894SOL    HW261360   3.648   6.900   0.449 -0.6629  1.3580  0.7847
19895SOL     OW61361   0.601   3.842   6.120  0.2004 -0.2724 -0.0301
19895SOL    HW161362   0.604   3.762   6.173 -2.1015 -0.4446 -0.1132
19895SOL    HW261363   0.535   3.824   6.054 -0.1782  1.6448 -0.1797
19896SOL     OW61364   0.336   5.556   8.587  0.1690 -0.3602 -0.7148
19896SOL    HW161365   0.270   5.486   8.593 -2.5031  2.1117 -0.2786
19896SOL    HW261366   0.307   5.622   8.649  3.5097  0.5191  0.0049
19897SOL     OW61367   3.605   7.926   3.247 -0.5086 -0.4475  0.2077
19897SOL    HW161368   3.615   8.018   3.222  0.0238 -0.5016  0.2207
19897SOL    HW261369   3.513   7.907   3.229 -0.8907  0.3911  1.2236
19898SOL     OW61370   6.581   4.678   0.184 -0.1526 -0.0253 -0.1076
19898SOL    HW161371   6.487   4.661   0.178 -0.0051 -1.9415  2.4431
19898SOL    HW261372   6.588   4.757   0.237 -0.2592 -0.9568  1.3000
19899SOL     OW61373   3.916   5.257   4.083 -0.3356  0.1032 -0.1026
19899SOL    HW161374   3.856   5.207   4.138  0.0699  1.1330  1.3223
19899SOL    HW261375   3.965   5.311   4.145  0.9841  0.3980 -1.3883
19900SOL     OW61376   4.732   6.271   3.920 -0.1068 -0.2585 -0.2905
19900SOL    HW161377   4.758   6.360   3.945 -1.0965 -0.1833  0.4643
19900SOL    HW261378   4.689   6.235   3.997  0.3924 -1.4471 -0.5492
19901SOL     OW61379   4.009   4.633   9.184 -0.1964  0.2667  0.0811
19901SOL    HW161380   3.916   4.654   9.174 -0.5291 -0.7438  0.9221
19901SOL    HW261381   4.051   4.673   9.108 -1.3813  0.3631 -0.5350
19902SOL     OW61382   1.022   7.334   1.002 -0.0639 -0.5383 -0.0711
19902SOL    HW161383   0.998   7.377   0.920 -0.3855 -0.4542  0.0659
19902SOL    HW261384   0.939   7.320   1.048  0.1715 -0.0237  0.5189
19903SOL     OW61385   5.402   4.858   5.776 -0.0490 -0.1954  0.1767
19903SOL    HW161386   5.413   4.772   5.735  1.9538 -0.5918  1.4669
19903SOL    HW261387   5.314   4.886   5.750 -0.1642 -1.9758 -1.4621
19904SOL     OW61388   5.070   2.942   3.817  0.4117 -0.0091 -0.2557
19904SOL    HW161389   5.119   2.867   3.850  0.2263 -0.3042 -0.6475
19904SOL    HW261390   5.086   2.941   3.722 -4.1495 -2.9245 -1.1219
19905SOL     OW61391   5.578   2.863   2.318 -0.1546 -0.1847 -0.1208
19905SOL    HW161392   5.575   2.782   2.368 -1.3980 -0.7026 -1.0130
19905SOL    HW261393   5.601   2.836   2.229 -0.3637  0.4656 -0.3767
19906SOL     OW61394   9.025   7.094   1.666  0.4936 -0.4034  0.5986
19906SOL    HW161395   9.021   6.998   1.670  2.8248 -0.4884  2.2546
19906SOL    HW261396   8.982   7.123   1.747  0.0320 -0.0637  0.2301
19907SOL     OW61397   0.791   3.366   4.674  0.1201  0.0790 -0.2693
19907SOL    HW161398   0.778   3.410   4.590  0.3599  1.4983  0.4237
19907SOL    HW261399   0.865   3.412   4.714 -1.1590  0.6533  1.5277
19908SOL     OW61400   8.231   5.622   3.634 -0.2442  0.1764 -0.2206
19908SOL    HW161401   8.236   5.661   3.547 -1.7014  1.0925  0.0816
19908SOL    HW261402   8.202   5.532   3.619  0.2585  0.1010 -0.7279
19909SOL     OW61403   7.939   5.649   5.303 -0.2825  0.3135 -0.2686
19909SOL    HW161404   7.907   5.564   5.275 -1.4853  1.0408 -1.1405
19909SOL    HW261405   7.867   5.709   5.287  0.3702  1.4189  0.8169
19910SOL     OW61406   2.993   8.225   7.785 -0.0042  0.2448 -0.1989
19910SOL    HW161407   2.919   8.164   7.784  1.2965 -1.3535 -1.3300
19910SOL    HW261408   2.959   8.303   7.741 -1.9263  0.6749  1.9615
19911SOL     OW61409   9.192   8.709   6.211 -0.3638  0.1895 -0.5281
19911SOL    HW161410   9.161   8.619   6.217  0.2297  0.0118  0.0362
19911SOL    HW261411   9.211   8.733   6.302 -0.6617  0.9340 -0.6606
19912SOL     OW61412   1.883   6.327   9.175 -0.0591 -0.1619  0.4374
19912SOL    HW161413   1.861   6.244   9.217  0.1473 -0.0443  0.7766
19912SOL    HW261414   1.946   6.368   9.234  1.4303 -0.6949 -0.7413
19913SOL     OW61415   2.360   3.622   1.752  0.2644 -0.1986 -0.3377
19913SOL    HW161416   2.352   3.689   1.684  1.4703  0.3622  0.0554
19913SOL    HW261417   2.406   3.550   1.709 -0.5634 -0.5710 -0.6112
19914SOL     OW61418   2.545   9.027   1.952 -0.4510 -0.3046  0.4724
19914SOL    HW161419   2.512   8.941   1.927 -1.0919 -0.3144  1.3069
19914SOL    HW261420   2.618   9.044   1.892 -1.1588 -0.8499 -0.5529
19915SOL     OW61421   0.784   3.129   3.804  0.7694  0.6026  0.8896
19915SOL    HW161422   0.816   3.042   3.827  0.2710  0.2069  0.1183
19915SOL    HW261423   0.798   3.182   3.882  0.2133 -0.4032  1.6780
19916SOL     OW61424   4.406   3.086   0.031 -0.5594 -0.0168 -0.1548
19916SOL    HW161425   4.493   3.093  -0.009 -0.9517 -1.1102 -1.2252
19916SOL    HW261426   4.424   3.065   0.123  0.3295  1.7042  0.0971
19917SOL     OW61427   5.772   3.045   4.411  0.4184  0.1957 -0.3776
19917SOL    HW161428   5.777   2.967   4.357  0.3809  0.1799 -0.3575
19917SOL    HW261429   5.796   3.117   4.353  2.1630 -0.0339  0.0360
19918SOL     OW61430   6.385   7.780   0.650 -0.2886 -0.6873 -0.8666
19918SOL    HW161431   6.303   7.748   0.686 -1.1269  0.3922 -1.7606
19918SOL    HW261432   6.387   7.744   0.561  0.7714 -1.6716 -0.4436
19919SOL     OW61433   7.017   5.784   4.259 -0.7500  0.5475  0.5128
19919SOL    HW161434   7.096   5.738   4.289 -0.9510 -0.5566 -0.6384
19919SOL    HW261435   6.954   5.770   4.330 -0.8472 -1.0776  0.1356
19920SOL     OW61436   3.936   7.908   6.557  0.2266 -0.4534  0.5705
19920SOL    HW161437   3.921   7.999   6.532 -0.5220 -0.9835 -0.9832
19920SOL    HW261438   4.029   7.894   6.540 -0.0915 -0.5624 -1.1920
19921SOL     OW61439   3.099   1.226   8.480  0.0411 -0.2187  0.2494
19921SOL    HW161440   3.104   1.287   8.407  0.8276 -0.0974  0.3986
19921SOL    HW261441   3.057   1.148   8.444  0.5669 -0.2155 -0.3763
19922SOL     OW61442   8.917   6.843   3.181 -0.1857  0.2117 -0.1642
19922SOL    HW161443   8.934   6.804   3.095 -1.1491 -0.8072  0.0944
19922SOL    HW261444   8.918   6.937   3.165  0.5639  0.0555 -1.1171
19923SOL     OW61445   2.108   3.213   3.690 -0.1999  0.0332 -0.0192
19923SOL    HW161446   2.171   3.262   3.637 -1.4362  0.7453 -0.8459
19923SOL    HW261447   2.099   3.265   3.770 -0.1456  0.1992 -0.1214
19924SOL     OW61448   3.994   5.903   0.864 -0.1780 -0.2301 -0.7306
19924SOL    HW161449   3.926   5.970   0.873  0.8537  0.9604 -1.6143
19924SOL    HW261450   4.064   5.930   0.923 -0.0184 -0.8675 -0.6196
19925SOL     OW61451   0.467   7.295   2.931  0.0908 -0.4477  0.0625
19925SOL    HW161452   0.554   7.294   2.971 -0.0034 -0.0577  0.2814
19925SOL    HW261453   0.480   7.261   2.843  0.7503  1.1975 -0.4846
19926SOL     OW61454   6.470   2.953   0.786  0.4646  0.2303  0.3423
19926SOL    HW161455   6.524   2.874   0.791 -0.3766 -0.4003 -0.4332
19926SOL    HW261456   6.389   2.929   0.831 -0.1123  0.3796 -0.5991
19927SOL     OW61457   6.455   4.914   4.548  0.1615  0.0999  0.0357
19927SOL    HW161458   6.432   4.971   4.621  0.1223  0.0387  0.0715
19927SOL    HW261459   6.520   4.963   4.499  0.1412  0.1681  0.0762
19928SOL     OW61460   1.523   1.501   8.065  0.6541 -0.8308  0.4768
19928SOL    HW161461   1.465   1.567   8.102 -1.6946 -2.5215 -0.0568
19928SOL    HW261462   1.520   1.516   7.970  1.7659 -0.3964  0.5047
19929SOL     OW61463   1.199   7.082   5.183 -0.4235  0.3783 -0.1712
19929SOL    HW161464   1.152   7.072   5.101 -0.1672 -0.3272 -0.2426
19929SOL    HW261465   1.192   6.996   5.225  1.6538 -0.0781 -0.6640
19930SOL     OW61466   8.548   5.599   9.118  0.0853  0.1839  0.3299
19930SOL    HW161467   8.585   5.684   9.143 -0.5958  0.9301 -1.1532
19930SOL    HW261468   8.559   5.545   9.196  1.6825  1.2453  0.8789
19931SOL     OW61469   0.254   6.290   6.942 -0.4580 -0.3152 -0.1853
19931SOL    HW161470   0.206   6.279   7.024 -0.4288 -2.1466 -0.3956
19931SOL    HW261471   0.275   6.201   6.915  1.5363  0.3848 -1.0014
19932SOL     OW61472   2.472   0.842   0.594  0.6797  0.5137  0.0275
19932SOL    HW161473   2.501   0.890   0.517  1.0316  0.4725  0.1326
19932SOL    HW261474   2.412   0.902   0.639 -0.0710  0.2677 -0.6453
19933SOL     OW61475   1.240   0.830   4.063  0.3448  0.0941 -0.0322
19933SOL    HW161476   1.153   0.797   4.084  1.0363 -1.0254  1.1748
19933SOL    HW261477   1.274   0.768   3.998  0.2510  0.5201 -0.4903
19934SOL     OW61478   6.934   6.025   7.565 -0.5712  0.2911  0.5641
19934SOL    HW161479   6.927   6.072   7.648  1.2680 -0.3646  1.1005
19934SOL    HW261480   6.925   5.932   7.589 -3.2192  0.2530 -0.3697
19935SOL     OW61481   2.797   1.553   6.554 -0.0508  0.0458 -0.0058
19935SOL    HW161482   2.728   1.583   6.495 -1.7961 -1.6020  1.1748
19935SOL    HW261483   2.829   1.472   6.514 -0.4250 -0.4436  0.6869
19936SOL     OW61484   1.292   4.862   4.907  0.0830  0.3348 -0.1059
19936SOL    HW161485   1.201   4.863   4.935  0.8386 -1.5048  2.7736
19936SOL    HW261486   1.292   4.897   4.818 -3.2804  1.2031  0.2002
19937SOL     OW61487   3.784   1.663   8.149  0.0919 -0.0179 -0.1175
19937SOL    HW161488   3.856   1.628   8.096 -0.4415  2.6762 -2.8094
19937SOL    HW261489   3.813   1.751   8.173 -2.1781  1.0651 -1.1560
19938SOL     OW61490   8.896   7.481   8.173 -0.5550  0.3531 -0.4445
19938SOL    HW161491   8.855   7.418   8.232  0.8558 -0.6455 -0.5125
19938SOL    HW261492   8.914   7.557   8.229 -0.3126 -0.1350  0.1609
19939SOL     OW61493   3.506   1.079   8.431 -0.3550 -0.4110  0.0562
19939SOL    HW161494   3.506   1.161   8.381 -0.0536 -1.2460 -1.3422
19939SOL    HW261495   3.591   1.039   8.413 -0.9915 -1.6431 -0.3079
19940SOL     OW61496   4.489   7.127   5.696 -0.6497  0.1173  0.1224
19940SOL    HW161497   4.553   7.117   5.626  0.0845  2.4810  0.4154
19940SOL    HW261498   4.473   7.037   5.727 -0.4603 -0.8822 -2.5661
19941SOL     OW61499   5.172   2.516   4.872  0.0391  0.2691 -0.1469
19941SOL    HW161500   5.121   2.437   4.889  0.1557  0.3832  0.7900
19941SOL    HW261501   5.231   2.493   4.801 -0.5474 -0.2072 -0.4818
19942SOL     OW61502   0.670   5.002   3.354  0.1210  0.4712  0.8768
19942SOL    HW161503   0.682   5.085   3.399  1.2422  1.9125 -1.9667
19942SOL    HW261504   0.614   4.950   3.413 -0.1063  2.9873  2.9477
19943SOL     OW61505   0.513   4.328   0.911  0.3669 -0.0602  0.4054
19943SOL    HW161506   0.444   4.268   0.939  0.5552 -0.8013 -0.6975
19943SOL    HW261507   0.524   4.310   0.818  0.3102  1.8024  0.0204
19944SOL     OW61508   4.385   2.086   6.936 -0.0560 -0.0612  0.0808
19944SOL    HW161509   4.407   2.160   6.992  0.3482 -0.2212  0.1328
19944SOL    HW261510   4.365   2.015   6.997 -2.8245  0.6707  0.0801
19945SOL     OW61511   5.534   2.730   9.126  0.7387 -0.4593  0.4381
19945SOL    HW161512   5.622   2.700   9.104  1.1750  0.6391  0.6757
19945SOL    HW261513   5.492   2.653   9.166  1.8604 -0.7406  1.0841
19946SOL     OW61514   3.329   5.781   4.570 -0.1357 -0.0404  0.1515
19946SOL    HW161515   3.387   5.817   4.503  0.6069 -1.1373  0.1872
19946SOL    HW261516   3.388   5.753   4.640 -0.9060  1.1464  1.2983
19947SOL     OW61517   1.680   2.029   2.032  0.1339 -0.4734  0.1001
19947SOL    HW161518   1.724   2.013   1.948 -0.2523  0.7035 -0.3360
19947SOL    HW261519   1.652   2.120   2.027 -2.7347 -1.3013  0.1745
19948SOL     OW61520   1.082   7.582   5.946  0.1090 -0.3517 -0.0087
19948SOL    HW161521   1.101   7.662   5.898 -0.3617 -0.0051  0.3769
19948SOL    HW261522   1.067   7.611   6.036 -3.5315 -0.4352 -0.5176
19949SOL     OW61523   7.473   6.495   8.154 -0.2831  0.0349 -0.3714
19949SOL    HW161524   7.442   6.428   8.214 -0.6078  0.5307  0.0174
19949SOL    HW261525   7.442   6.466   8.068  0.3508 -0.7750 -0.3371
19950SOL     OW61526   4.236   0.326   0.400 -0.6398  0.1220  0.0383
19950SOL    HW161527   4.159   0.304   0.348 -1.5306 -0.6415  1.6649
19950SOL    HW261528   4.227   0.420   0.417 -1.0634  0.0967 -0.0356
19951SOL     OW61529   6.460   3.339   7.388 -0.4341 -0.3807 -0.4634
19951SOL    HW161530   6.421   3.378   7.467  0.2855  0.3229 -0.4494
19951SOL    HW261531   6.415   3.255   7.379 -0.7119 -0.3571  0.5535
19952SOL     OW61532   1.177   8.807   0.433 -0.0927 -0.0821  0.5370
19952SOL    HW161533   1.216   8.793   0.519  0.3157  1.4160  0.6138
19952SOL    HW261534   1.084   8.786   0.445 -0.3090  1.4671  1.7068
19953SOL     OW61535   1.173   4.824   8.161  0.1250 -0.0963 -0.4543
19953SOL    HW161536   1.174   4.828   8.065 -0.3890  1.4552 -0.4164
19953SOL    HW261537   1.154   4.914   8.188  0.4122 -0.4939  1.1100
19954SOL     OW61538   6.570   1.220   0.210 -0.3272 -0.2015 -0.1767
19954SOL    HW161539   6.572   1.172   0.293  0.5162  0.7076  0.3474
19954SOL    HW261540   6.486   1.267   0.212  0.2670  0.8534  0.7813
19955SOL     OW61541   2.024   0.500   4.693 -0.0664  0.4680  0.4126
19955SOL    HW161542   2.106   0.498   4.644 -0.4361 -2.2417 -0.1753
19955SOL    HW261543   1.973   0.569   4.652  0.0566 -1.0144 -2.3213
19956SOL     OW61544   9.057   8.721   3.229  0.3886  0.2197 -0.0026
19956SOL    HW161545   9.088   8.684   3.311  2.2105  1.5959 -0.0251
19956SOL    HW261546   9.026   8.809   3.252  0.2770  0.3579 -0.6708
19957SOL     OW61547   8.235   6.757   3.567  0.1781 -0.2296 -0.4084
19957SOL    HW161548   8.194   6.736   3.483  1.3566 -1.6524 -0.6554
19957SOL    HW261549   8.307   6.816   3.544 -0.3059  0.4244 -0.2445
19958SOL     OW61550   0.055   1.584   7.606 -0.0818  0.1459 -0.4235
19958SOL    HW161551   0.026   1.539   7.527 -1.5787  1.9753 -0.9609
19958SOL    HW261552   0.103   1.518   7.656  0.1379 -1.2666 -2.4519
19959SOL     OW61553   7.353   4.230   5.482 -0.9168  0.4670 -0.1987
19959SOL    HW161554   7.280   4.227   5.419 -2.3987  0.0669  1.4910
19959SOL    HW261555   7.339   4.313   5.529 -0.6831  0.0663  0.5812
19960SOL     OW61556   6.782   5.328   5.489  0.3476  0.1659  0.4393
19960SOL    HW161557   6.822   5.324   5.576 -0.4455  1.7464  0.9053
19960SOL    HW261558   6.842   5.279   5.433  2.2978  1.3751  1.3716
19961SOL     OW61559   5.796   0.128   6.076 -0.3313 -0.2401  0.0270
19961SOL    HW161560   5.889   0.147   6.087 -0.7756  2.0874  0.0211
19961SOL    HW261561   5.760   0.136   6.165 -0.2663 -2.8344  0.3253
19962SOL     OW61562   8.656   9.073   3.045  0.1132  0.4992  0.3204
19962SOL    HW161563   8.710   9.092   2.968  0.7210  1.0834  0.8820
19962SOL    HW261564   8.576   9.125   3.032  0.6394  1.3803  0.5590
19963SOL     OW61565   8.017   9.076   1.385 -0.5867 -0.2706  0.1386
19963SOL    HW161566   7.973   9.096   1.467 -0.1473 -0.5337  0.4368
19963SOL    HW261567   8.071   9.000   1.404 -0.3679 -0.2391 -0.3528
19964SOL     OW61568   4.411   4.594   0.833  0.4009  0.1622 -0.3799
19964SOL    HW161569   4.436   4.667   0.775 -3.0693  1.4441 -0.4176
19964SOL    HW261570   4.359   4.536   0.777  0.9348 -1.0010  0.3163
19965SOL     OW61571   5.088   1.337   3.405 -0.5101 -0.0750  0.1648
19965SOL    HW161572   5.087   1.244   3.425  0.6692 -0.2342 -0.5010
19965SOL    HW261573   5.152   1.374   3.466 -1.1292  0.3446  0.5744
19966SOL     OW61574   3.778   0.261   7.425 -0.0095  0.5020  0.1878
19966SOL    HW161575   3.688   0.276   7.396 -0.1928 -0.2462  0.3448
19966SOL    HW261576   3.770   0.207   7.503  0.6060 -0.3838 -0.3465
19967SOL     OW61577   8.159   6.372   6.235 -0.4678  0.1736  0.0466
19967SOL    HW161578   8.112   6.339   6.159 -0.9869 -2.1704  1.3341
19967SOL    HW261579   8.247   6.338   6.226 -0.3785  0.3620  0.1986
19968SOL     OW61580   1.462   4.457   1.774  0.1276 -0.0893  0.4670
19968SOL    HW161581   1.555   4.444   1.793  0.0349  1.8526  2.5493
19968SOL    HW261582   1.426   4.494   1.855 -2.0916  0.8051 -0.8674
19969SOL     OW61583   5.428   2.550   8.855  0.0480 -0.1225 -0.1506
19969SOL    HW161584   5.409   2.644   8.853  0.9340  0.0800  0.6278
19969SOL    HW261585   5.494   2.538   8.787  0.1960 -0.1227 -0.0066
19970SOL     OW61586   0.394   3.418   1.430  0.0716 -0.2694  0.2984
19970SOL    HW161587   0.387   3.323   1.440  0.2387 -0.4421 -1.1230
19970SOL    HW261588   0.335   3.453   1.496  0.2202 -1.3587  1.0235
19971SOL     OW61589   7.573   7.956   6.423 -0.7382 -0.0885 -0.2374
19971SOL    HW161590   7.478   7.953   6.421 -0.7310 -1.7950  0.7607
19971SOL    HW261591   7.595   7.956   6.517  0.2872 -2.9560 -0.4360
19972SOL     OW61592   6.640   8.698   1.806  0.5118  0.2083  0.5190
19972SOL    HW161593   6.705   8.640   1.846  0.8842  0.6010  0.4835
19972SOL    HW261594   6.690   8.773   1.777  0.2566 -0.1289 -0.8056
19973SOL     OW61595   4.369   1.495   9.181 -0.1283 -1.0875  0.2325
19973SOL    HW161596   4.381   1.529   9.093 -0.1695 -0.3329  0.5118
19973SOL    HW261597   4.281   1.522   9.206  0.8722  1.1334  1.5383
19974SOL     OW61598   6.878   9.250   3.507 -0.6034 -0.2498  0.4524
19974SOL    HW161599   6.913   9.196   3.437 -0.1831 -0.0447  0.4973
19974SOL    HW261600   6.788   9.220   3.519 -0.6915 -0.2555 -0.2030
19975SOL     OW61601   3.669   1.849   1.808 -0.2524 -0.5584  0.0359
19975SOL    HW161602   3.681   1.922   1.869 -1.0011  0.2433 -0.7602
19975SOL    HW261603   3.744   1.792   1.823  0.4171  0.4520  0.5714
19976SOL     OW61604   1.773   9.261   0.709 -0.0369  0.4310  0.4222
19976SOL    HW161605   1.845   9.298   0.761 -0.1963  1.0748  0.1762
19976SOL    HW261606   1.812   9.242   0.624 -0.0356  0.3281  0.4458
19977SOL     OW61607   0.737   0.549   0.854 -0.5034  0.2561 -0.0270
19977SOL    HW161608   0.716   0.572   0.764  0.1758 -0.9852 -0.5112
19977SOL    HW261609   0.833   0.547   0.857 -0.5066 -3.1913 -0.2263
19978SOL     OW61610   6.078   5.072   3.683 -0.5571 -0.6856  0.5277
19978SOL    HW161611   6.147   5.014   3.649  0.2814  0.7577 -0.2540
19978SOL    HW261612   6.007   5.065   3.619  1.0147  2.0172 -1.6144
19979SOL     OW61613   5.336   7.560   3.650 -0.5260 -0.3787 -0.1235
19979SOL    HW161614   5.275   7.541   3.580  1.5134 -0.1236 -2.0311
19979SOL    HW261615   5.393   7.629   3.615 -0.0570  0.4509  2.1327
19980SOL     OW61616   6.015   0.881   8.109 -0.1570 -0.1348 -0.5041
19980SOL    HW161617   6.105   0.863   8.135 -0.0834 -0.3342 -0.8891
19980SOL    HW261618   6.021   0.898   8.015 -0.3719  0.8796 -0.3432
19981SOL     OW61619   1.278   8.516   6.660  0.5857  0.0698 -0.2457
19981SOL    HW161620   1.335   8.463   6.716 -1.7580 -2.5784 -0.2590
19981SOL    HW261621   1.275   8.468   6.577  0.9568  1.9376 -1.3598
19982SOL     OW61622   1.012   2.722   0.384 -0.3231  0.1037 -0.0355
19982SOL    HW161623   1.022   2.629   0.406 -0.2173 -0.1222 -0.9994
19982SOL    HW261624   1.015   2.767   0.468 -2.1993 -0.9146  0.5928
19983SOL     OW61625   2.703   6.579   4.493 -0.0994 -0.0880  0.0535
19983SOL    HW161626   2.756   6.589   4.573 -0.1748  1.9649 -0.1214
19983SOL    HW261627   2.763   6.537   4.431  0.1990 -1.0096  0.9311
19984SOL     OW61628   7.360   5.578   6.922 -0.0504 -0.0880  0.1457
19984SOL    HW161629   7.440   5.564   6.872  0.2924  0.4224  0.5579
19984SOL    HW261630   7.311   5.496   6.912  0.6401 -0.4956  0.1175
19985SOL     OW61631   5.254   7.231   0.070  0.2839  0.3857 -0.6457
19985SOL    HW161632   5.337   7.261   0.106 -0.1359  0.8964 -0.0892
19985SOL    HW261633   5.226   7.161   0.129  0.8754 -0.5719 -1.4877
19986SOL     OW61634   5.620   1.826   5.069 -0.3142  0.0400  0.2961
19986SOL    HW161635   5.546   1.765   5.065  0.1446 -0.5808  1.1109
19986SOL    HW261636   5.642   1.843   4.977 -1.3297  0.0639  0.0548
19987SOL     OW61637   1.654   7.967   2.999  0.2692 -0.2785  0.3563
19987SOL    HW161638   1.621   7.971   3.089  0.0896  0.8973  0.2408
19987SOL    HW261639   1.745   7.994   3.005  0.1341  0.2420  0.1288
19988SOL     OW61640   3.574   9.049   5.736  0.5563  0.6159  0.1013
19988SOL    HW161641   3.494   9.003   5.714  1.2979 -0.8526  0.4213
19988SOL    HW261642   3.545   9.135   5.767 -0.8600  0.2253 -0.1162
19989SOL     OW61643   4.059   3.306   5.268 -0.3374  0.0089 -0.1954
19989SOL    HW161644   4.104   3.247   5.329  0.6125  0.1537 -0.7543
19989SOL    HW261645   4.101   3.391   5.282 -0.4977  0.1638 -0.6602
19990SOL     OW61646   4.758   6.921   1.119  0.1263  0.0484 -0.4458
19990SOL    HW161647   4.830   6.956   1.172  1.6169 -1.5453 -1.3740
19990SOL    HW261648   4.701   6.877   1.182  1.0728 -0.4961  0.0382
19991SOL     OW61649   8.043   4.327   7.263 -0.0822  0.0632  0.1737
19991SOL    HW161650   7.973   4.386   7.237 -0.1696  0.3838  1.1185
19991SOL    HW261651   8.110   4.337   7.194  0.2035  1.7736  0.6788
19992SOL     OW61652   3.915   2.888   0.330 -0.4263 -0.1762 -0.4155
19992SOL    HW161653   3.876   2.930   0.406  0.6447  0.0740  0.0119
19992SOL    HW261654   3.842   2.872   0.270 -1.0573  0.9362  0.0551
19993SOL     OW61655   5.511   5.458   5.335  0.2625  0.2146  0.0937
19993SOL    HW161656   5.549   5.376   5.366  0.1507  0.4399  0.8270
19993SOL    HW261657   5.581   5.522   5.341  0.3654  0.1660 -0.5330
19994SOL     OW61658   8.550   5.129   0.701 -0.2082 -0.0262  0.0422
19994SOL    HW161659   8.590   5.145   0.787 -1.2415 -0.6580  0.6586
19994SOL    HW261660   8.545   5.034   0.695  0.1895  0.0068 -0.8866
19995SOL     OW61661   0.565   8.251   1.615 -0.0435  0.0523 -0.2016
19995SOL    HW161662   0.510   8.179   1.648 -0.8015  0.2425 -1.0261
19995SOL    HW261663   0.594   8.297   1.694  0.3010 -1.0499  0.3244
19996SOL     OW61664   8.563   6.749   0.455 -0.1663 -0.4856  0.4861
19996SOL    HW161665   8.612   6.821   0.413  0.9024 -0.8305  1.1323
19996SOL    HW261666   8.608   6.670   0.426 -2.2174 -1.0114 -1.3992
19997SOL     OW61667   0.995   3.717   5.278 -0.4350 -0.1713  0.5042
19997SOL    HW161668   0.983   3.793   5.221  0.9383  0.6304  1.2455
19997SOL    HW261669   0.978   3.750   5.366  2.2175 -0.1933  1.0506
19998SOL     OW61670   2.200   5.327   1.071  0.7664 -0.2005 -0.0719
19998SOL    HW161671   2.113   5.305   1.038  1.3226 -2.8350  0.0810
19998SOL    HW261672   2.185   5.391   1.140 -0.9843 -0.0874 -0.5468
19999SOL     OW61673   2.052   1.402   2.873  0.2129  0.3458  0.0569
19999SOL    HW161674   2.041   1.316   2.913 -0.1861 -0.5961 -1.9703
19999SOL    HW261675   2.144   1.403   2.845  0.5126  1.0260  1.0638
20000SOL     OW61676   7.099   0.336   0.869  0.1927  0.0130 -0.3184
20000SOL    HW161677   7.076   0.423   0.837 -0.5780 -0.5730 -1.4145
20000SOL    HW261678   7.140   0.351   0.954 -0.7255  1.3829 -0.0994
20001SOL     OW61679   1.358   8.957   4.430  0.1896 -0.3722  0.5227
20001SOL    HW161680   1.441   8.934   4.471  0.7877 -1.5336 -1.2574
20001SOL    HW261681   1.292   8.942   4.498  1.3325 -0.3678  1.6394
20002SOL     OW61682   9.283   0.270   4.903 -0.3982 -0.2757  0.3495
20002SOL    HW161683   9.232   0.274   4.983 -1.1512  0.2037 -0.1550
20002SOL    HW261684   9.364   0.316   4.924  0.2384 -1.8464  1.4372
20003SOL     OW61685   6.665   0.640   7.386 -0.0865 -0.2312  0.1652
20003SOL    HW161686   6.577   0.608   7.368 -0.2301  0.6542 -0.7399
20003SOL    HW261687   6.684   0.612   7.475 -0.7251 -1.6885 -0.1485
20004SOL     OW61688   1.604   0.528   2.757 -0.2134 -0.1731  0.2034
20004SOL    HW161689   1.518   0.493   2.778 -1.3500  1.9442 -0.6929
20004SOL    HW261690   1.658   0.451   2.737 -0.6223 -1.8732  5.0004
20005SOL     OW61691   3.067   6.542   2.143  0.0889 -0.2466 -0.2833
20005SOL    HW161692   3.126   6.597   2.091  1.1017 -0.3812  0.7134
20005SOL    HW261693   3.065   6.459   2.096  0.9764 -0.3565 -0.1308
20006SOL     OW61694   0.934   8.228   4.831 -0.1186  0.2926 -0.0317
20006SOL    HW161695   0.886   8.294   4.880 -0.7340 -1.5394  1.8955
20006SOL    HW261696   0.868   8.164   4.806  0.9646 -1.1849  0.8361
20007SOL     OW61697   7.228   6.265   3.822 -0.2827 -0.0396 -0.1666
20007SOL    HW161698   7.185   6.268   3.908 -0.8151 -1.2770 -0.3915
20007SOL    HW261699   7.176   6.323   3.767 -1.4095 -1.1799 -0.3193
20008SOL     OW61700   3.120   4.660   3.695  0.4316 -0.3770 -0.3004
20008SOL    HW161701   3.212   4.634   3.703  0.2745 -1.0238 -0.6170
20008SOL    HW261702   3.124   4.749   3.659  0.8965 -1.2310 -2.4579
20009SOL     OW61703   1.167   4.550   9.107 -0.3346  0.1127  0.7515
20009SOL    HW161704   1.250   4.597   9.109 -0.0036 -0.4135 -0.0915
20009SOL    HW261705   1.179   4.478   9.169  0.8350 -1.5300 -1.2707
20010SOL     OW61706   1.350   2.806   5.543  0.3581 -0.1894 -0.4695
20010SOL    HW161707   1.379   2.857   5.467  2.3699  0.5581  0.7710
20010SOL    HW261708   1.406   2.729   5.544  0.2334 -0.2775  0.1644
20011SOL     OW61709   6.776   1.044   3.501  0.1742 -0.3129 -0.5374
20011SOL    HW161710   6.850   0.997   3.540 -1.3867 -0.1372  2.8084
20011SOL    HW261711   6.717   1.060   3.574 -1.5538  2.6726 -2.4896
20012SOL     OW61712   6.763   2.904   2.556  0.0914  0.0163 -0.0653
20012SOL    HW161713   6.852   2.928   2.530  0.0077 -1.0691 -1.3916
20012SOL    HW261714   6.710   2.921   2.478 -0.5181 -1.2790  0.0543
20013SOL     OW61715   4.124   7.086   7.130  0.2392  0.1867  0.2870
20013SOL    HW161716   4.108   6.999   7.166 -0.1658 -0.5127 -1.5413
20013SOL    HW261717   4.127   7.073   7.035 -1.0959  2.3810 -0.0875
20014SOL     OW61718   1.852   5.199   2.060 -0.4122  0.2523  0.2208
20014SOL    HW161719   1.907   5.128   2.026 -1.7604 -1.0196  0.6275
20014SOL    HW261720   1.869   5.200   2.154  1.0391  1.7589 -0.0390
20015SOL     OW61721   2.219   4.668   8.740  0.0402 -0.1730 -0.6642
20015SOL    HW161722   2.128   4.671   8.769  0.0316 -1.1562 -0.5663
20015SOL    HW261723   2.229   4.581   8.701  1.7917 -1.3870  2.2933
20016SOL     OW61724   4.671   7.449   0.022  0.1283  0.1873  0.0111
20016SOL    HW161725   4.659   7.395  -0.056 -1.1211 -1.4653  1.3101
20016SOL    HW261726   4.585   7.450   0.063 -0.6725  5.4692 -1.3829
20017SOL     OW61727   8.920   6.582   6.424  0.2056 -0.0558  0.3424
20017SOL    HW161728   8.972   6.620   6.353 -0.2729 -1.1299 -0.6065
20017SOL    HW261729   8.963   6.498   6.443 -1.1673 -0.9554 -0.4525
20018SOL     OW61730   8.476   0.171   4.184  0.1966  0.6722  0.0491
20018SOL    HW161731   8.488   0.077   4.199  0.8667  0.6132 -0.8525
20018SOL    HW261732   8.565   0.208   4.190  0.1397  1.0178 -1.2470
20019SOL     OW61733   2.881   3.455   0.841  0.2461  0.2534 -0.4710
20019SOL    HW161734   2.913   3.545   0.837 -0.1008  0.3443 -1.5837
20019SOL    HW261735   2.938   3.407   0.781 -0.5706  0.0653 -1.1101
20020SOL     OW61736   7.637   2.156   3.677  0.6162 -0.2311  0.2323
20020SOL    HW161737   7.636   2.063   3.700  0.9887 -0.3467 -0.2115
20020SOL    HW261738   7.639   2.201   3.761 -0.4228 -0.6048  0.4673
20021SOL     OW61739   2.874   1.650   5.007 -0.3150 -0.0862 -0.1311
20021SOL    HW161740   2.944   1.713   5.028  0.9432 -1.9147  1.2947
20021SOL    HW261741   2.798   1.682   5.057 -0.7146  2.2303 -2.1252
20022SOL     OW61742   6.509   5.428   3.981 -0.0257  0.1505  0.6224
20022SOL    HW161743   6.541   5.343   3.948 -1.0485 -0.1722  0.4461
20022SOL    HW261744   6.436   5.450   3.923 -0.6316  0.5019  1.5079
20023SOL     OW61745   6.302   5.952   4.748 -0.0600  0.9140 -0.0888
20023SOL    HW161746   6.235   5.884   4.753  0.3921  0.4845  0.2216
20023SOL    HW261747   6.290   5.991   4.661 -0.3459  0.4624 -0.2568
20024SOL     OW61748   2.312   1.867   5.969 -0.2447 -0.2658  0.2697
20024SOL    HW161749   2.278   1.837   5.885 -0.4123 -0.1677  0.3022
20024SOL    HW261750   2.392   1.915   5.947  0.5506 -1.5322  0.2994
20025SOL     OW61751   5.408   0.166   0.557 -0.0595  0.2359  0.6498
20025SOL    HW161752   5.417   0.085   0.606  0.5358 -0.2818 -0.3090
20025SOL    HW261753   5.483   0.167   0.498 -0.8592  0.7785 -0.3576
20026SOL     OW61754   3.947   3.021   4.665 -0.0393  0.3086  0.1092
20026SOL    HW161755   3.986   2.944   4.623 -0.2414  0.3663 -0.1888
20026SOL    HW261756   4.008   3.044   4.735 -0.2619 -0.4643  0.5563
20027SOL     OW61757   7.951   7.077   4.368 -0.7571  0.0428 -0.1957
20027SOL    HW161758   7.887   7.142   4.393 -1.6554 -0.9970  0.2594
20027SOL    HW261759   8.014   7.075   4.440 -2.0405 -1.2756  0.9044
20028SOL     OW61760   6.649   8.380   2.527  0.0783  0.2505 -0.1281
20028SOL    HW161761   6.581   8.319   2.559 -0.3221  1.1360  0.7432
20028SOL    HW261762   6.653   8.447   2.595  2.4809 -0.2711  0.2797
20029SOL     OW61763   0.451   7.789   2.839 -0.1114 -0.1893  0.1313
20029SOL    HW161764   0.450   7.856   2.909  0.8944 -2.5177  2.4502
20029SOL    HW261765   0.544   7.775   2.821 -0.3580  0.0275 -1.3770
20030SOL     OW61766   1.554   3.404   6.263  0.1974  0.1445  0.5097
20030SOL    HW161767   1.504   3.342   6.317  0.9546  0.3044  1.4034
20030SOL    HW261768   1.642   3.367   6.260 -0.0601 -0.3678 -1.4294
20031SOL     OW61769   8.999   7.368   4.569  0.1251  0.2346  0.1893
20031SOL    HW161770   8.933   7.372   4.500  0.1100  0.6076  0.2228
20031SOL    HW261771   9.083   7.377   4.523  0.2354 -1.5166  0.0076
20032SOL     OW61772   8.911   4.563   5.702 -0.2918 -0.2260  0.1982
20032SOL    HW161773   8.862   4.645   5.692  0.8052  0.3652 -0.5050
20032SOL    HW261774   8.850   4.503   5.745  0.1244  2.1182  4.2542
20033SOL     OW61775   7.202   5.804   7.770  0.3191 -0.1360  0.4010
20033SOL    HW161776   7.292   5.777   7.757  0.1812 -0.4454  0.0840
20033SOL    HW261777   7.201   5.897   7.747  0.3841 -0.3301 -0.3761
20034SOL     OW61778   3.948   8.843   8.682  0.3650  0.6262  0.3460
20034SOL    HW161779   3.918   8.775   8.622  1.9016  0.2719 -0.0451
20034SOL    HW261780   4.014   8.800   8.736  0.5398  1.5135  0.8474
20035SOL     OW61781   2.524   4.212   2.307 -0.1361 -0.0205  0.4602
20035SOL    HW161782   2.461   4.205   2.235 -0.5077 -1.3325  0.8886
20035SOL    HW261783   2.528   4.123   2.343  1.2630  0.2676  1.0319
20036SOL     OW61784   5.211   0.153   6.669 -0.2982  0.4579  0.5203
20036SOL    HW161785   5.249   0.239   6.651 -2.1868  0.8757 -1.7675
20036SOL    HW261786   5.127   0.172   6.712 -1.9854 -0.0771 -2.4027
20037SOL     OW61787   4.626   8.591   9.001  0.0877 -0.5798  0.0875
20037SOL    HW161788   4.622   8.686   9.017  2.5063  0.0008 -2.4258
20037SOL    HW261789   4.559   8.576   8.934 -0.1106 -0.6073  0.2912
20038SOL     OW61790   8.281   3.961   0.694 -0.0097  0.3500 -0.0390
20038SOL    HW161791   8.252   4.026   0.757  0.6960 -0.5765  1.2642
20038SOL    HW261792   8.329   4.010   0.628  1.0850  1.0734  1.2833
20039SOL     OW61793   3.750   0.992   8.333 -0.0862  0.1787  0.6791
20039SOL    HW161794   3.818   1.050   8.370  0.3420 -0.3879  0.7940
20039SOL    HW261795   3.767   0.993   8.239 -0.0740  0.2416  0.6818
20040SOL     OW61796   4.036   7.778   8.372  0.4214  0.8903  0.5840
20040SOL    HW161797   3.981   7.853   8.350 -0.6971 -0.3137 -0.8339
20040SOL    HW261798   3.998   7.743   8.452 -1.0043 -0.0339 -0.4799
20041SOL     OW61799   0.090   8.528   5.981 -0.0611  0.0795  0.0237
20041SOL    HW161800   0.077   8.516   5.887 -1.8036 -0.8255  0.3494
20041SOL    HW261801   0.002   8.519   6.019  0.6435  0.2195  1.7635
20042SOL     OW61802   2.189   7.066   7.755 -0.1794 -0.3865 -0.0168
20042SOL    HW161803   2.257   7.041   7.818  0.8051 -0.1665 -0.9896
20042SOL    HW261804   2.223   7.039   7.670 -0.6260  1.1297 -0.6953
20043SOL     OW61805   0.431   6.077   8.382 -0.2735 -0.3339  0.3117
20043SOL    HW161806   0.374   6.010   8.420 -0.2572 -0.1163  0.7247
20043SOL    HW261807   0.411   6.157   8.431 -0.0927 -0.1015  0.0107
20044SOL     OW61808   5.986   1.923   0.251 -0.1074  0.1738  0.6415
20044SOL    HW161809   6.047   1.968   0.310  2.5385 -0.9105 -1.1723
20044SOL    HW261810   5.997   1.830   0.272  0.7846 -0.2218 -1.4171
20045SOL     OW61811   0.537   5.018   8.546 -0.1240 -0.4623 -0.2770
20045SOL    HW161812   0.501   5.101   8.576  2.1762  0.2158  0.7482
20045SOL    HW261813   0.474   4.952   8.576  1.3276  0.3252  5.0808
20046SOL     OW61814   9.191   3.307   1.008  0.3925 -0.1323  0.2840
20046SOL    HW161815   9.247   3.230   0.995  0.4750  0.2411 -1.7773
20046SOL    HW261816   9.216   3.367   0.938 -1.0325  0.9775  0.6922
20047SOL     OW61817   1.925   7.637   2.900 -0.3478 -0.3276  0.1477
20047SOL    HW161818   1.861   7.602   2.838 -0.6302  0.0913  0.2003
20047SOL    HW261819   1.929   7.572   2.969  1.5316 -1.8354 -1.3272
20048SOL     OW61820   3.751   1.464   0.869 -0.7326  0.1958  0.2199
20048SOL    HW161821   3.722   1.431   0.784  0.6263 -0.4779  0.0094
20048SOL    HW261822   3.796   1.390   0.910 -0.8780  0.6875  1.2837
20049SOL     OW61823   0.466   0.172   4.233  0.5918  0.4980  1.3383
20049SOL    HW161824   0.494   0.088   4.196 -0.7822  0.7020 -0.2134
20049SOL    HW261825   0.493   0.168   4.325  0.5247 -1.6636  1.2860
20050SOL     OW61826   2.143   0.379   5.225 -0.1477  0.6380 -0.0381
20050SOL    HW161827   2.097   0.398   5.144 -0.4600 -0.8228 -0.2020
20050SOL    HW261828   2.221   0.332   5.199  0.0086  0.6050  0.4703
20051SOL     OW61829   7.209   0.332   4.532  0.2083  0.1640 -0.2996
20051SOL    HW161830   7.293   0.365   4.564 -0.5004  1.1287  0.6056
20051SOL    HW261831   7.156   0.320   4.611 -0.0271 -1.8168 -0.7425
20052SOL     OW61832   1.292   2.859   8.713 -0.4515 -0.3066  0.3620
20052SOL    HW161833   1.300   2.782   8.769 -0.8702 -2.0234 -1.8742
20052SOL    HW261834   1.370   2.911   8.734 -0.7734 -0.7179  2.7630
20053SOL     OW61835   8.853   0.822   9.164  0.4026  0.5206  0.0263
20053SOL    HW161836   8.816   0.906   9.137  0.7536  0.7710  0.3155
20053SOL    HW261837   8.820   0.810   9.253 -0.6130 -0.2191 -0.4489
20054SOL     OW61838   2.251   1.554   1.385  0.0262  0.1351  0.2751
20054SOL    HW161839   2.278   1.601   1.307  0.7054  0.0785  0.4763
20054SOL    HW261840   2.248   1.621   1.453 -0.6613  0.2040  0.1816
20055SOL     OW61841   8.167   5.800   2.657 -0.0173  0.1564 -0.3552
20055SOL    HW161842   8.241   5.844   2.615 -0.7308  1.3796 -0.3491
20055SOL    HW261843   8.104   5.785   2.587 -0.1778 -0.0024 -0.1790
20056SOL     OW61844   4.517   5.071   5.486 -0.6572 -0.3178 -0.2359
20056SOL    HW161845   4.548   5.052   5.398 -0.8419  0.0857 -0.3895
20056SOL    HW261846   4.492   5.164   5.484 -2.4077 -0.7671 -0.2713
20057SOL     OW61847   3.440   3.919   0.085  0.2093 -0.4959 -0.1285
20057SOL    HW161848   3.532   3.918   0.112  0.4216  0.2803 -0.8142
20057SOL    HW261849   3.431   4.000   0.035 -0.4879 -1.2945 -1.3127
20058SOL     OW61850   6.550   9.260   4.167 -0.4325  0.1005 -0.3994
20058SOL    HW161851   6.537   9.316   4.090 -2.8814  0.4884  0.2491
20058SOL    HW261852   6.578   9.319   4.236  1.4574 -0.2021 -0.8638
20059SOL     OW61853   5.581   7.581   1.484  0.6487  0.5143  0.6320
20059SOL    HW161854   5.634   7.637   1.428 -0.5259  0.2922 -0.7166
20059SOL    HW261855   5.519   7.539   1.425  0.3446 -0.8447  1.8905
20060SOL     OW61856   2.717   1.047   2.207  0.1135 -0.1689  0.0011
20060SOL    HW161857   2.760   1.116   2.156  0.5517  0.5364  1.3047
20060SOL    HW261858   2.634   1.086   2.234 -0.2413 -0.6426 -0.3831
20061SOL     OW61859   0.607   6.447   2.712  0.0190  0.9249  0.1418
20061SOL    HW161860   0.672   6.382   2.686 -1.3351 -0.3046 -0.2376
20061SOL    HW261861   0.658   6.514   2.759  1.5756  0.1017 -0.3268
20062SOL     OW61862   0.094   2.990   5.303 -0.3300 -0.5753 -0.2044
20062SOL    HW161863   0.108   3.015   5.394 -0.0304  0.5689 -0.5641
20062SOL    HW261864  -0.001   2.994   5.290 -0.5608 -2.7063  0.6108
20063SOL     OW61865   3.624   5.792   8.962 -0.1183  0.0070  0.0474
20063SOL    HW161866   3.559   5.726   8.984  0.4039 -0.4864  0.1135
20063SOL    HW261867   3.633   5.786   8.867  0.1605 -0.2317  0.0890
20064SOL     OW61868   8.702   1.191   4.171 -0.0999 -0.3312  0.0917
20064SOL    HW161869   8.755   1.124   4.213 -3.6458 -2.1655  1.8011
20064SOL    HW261870   8.662   1.147   4.096 -0.5144  0.5593 -0.2184
20065SOL     OW61871   7.955   3.075   4.817 -0.5017  0.1469  0.6213
20065SOL    HW161872   7.937   3.001   4.875  0.6099  0.2657  1.1290
20065SOL    HW261873   7.883   3.136   4.833 -2.0938 -1.3261 -0.6813
20066SOL     OW61874   8.066   3.843   3.618 -0.4602  0.3364 -0.7210
20066SOL    HW161875   8.024   3.760   3.640 -2.1582  0.9363 -1.6164
20066SOL    HW261876   8.116   3.825   3.539 -1.5750  0.3921 -1.4395
20067SOL     OW61877   3.554   0.573   8.342  0.1338  0.0173  0.0903
20067SOL    HW161878   3.647   0.558   8.329  0.2431  1.6869 -1.1051
20067SOL    HW261879   3.543   0.574   8.437  2.0085  3.7274  0.3459
20068SOL     OW61880   5.248   0.984   5.947  0.3590 -0.1960 -0.6127
20068SOL    HW161881   5.298   1.022   6.019 -0.5717 -0.5614  0.2418
20068SOL    HW261882   5.311   0.974   5.876  1.7155 -1.5382  0.7649
20069SOL     OW61883   6.877   5.340   8.847 -0.1137 -0.0063  0.0959
20069SOL    HW161884   6.813   5.270   8.834 -0.0995  0.0910 -0.4965
20069SOL    HW261885   6.843   5.414   8.798  0.7920 -0.1699 -0.8037
20070SOL     OW61886   2.696   5.914   3.537  0.2153  0.2119 -0.1488
20070SOL    HW161887   2.692   6.002   3.574  1.5842  0.1980  0.0428
20070SOL    HW261888   2.647   5.860   3.599  0.9863  0.5028  0.7222
20071SOL     OW61889   0.872   7.382   1.258 -0.0890  0.3099 -0.3938
20071SOL    HW161890   0.827   7.315   1.309 -0.1622  1.3138  0.8864
20071SOL    HW261891   0.934   7.422   1.319  0.0818  1.2781 -1.1809
20072SOL     OW61892   7.330   4.162   6.233 -0.3112  0.3112 -0.7201
20072SOL    HW161893   7.408   4.108   6.241 -1.3208 -0.8552  1.7656
20072SOL    HW261894   7.328   4.187   6.141  1.9347 -1.2173 -1.2320
20073SOL     OW61895   4.377   0.275   6.854  0.1686  0.4917  0.7073
20073SOL    HW161896   4.332   0.279   6.938 -0.8288  2.4986  0.1021
20073SOL    HW261897   4.316   0.228   6.797  0.4060  0.0331  0.8283
20074SOL     OW61898   3.167   9.274   2.635 -0.6640 -0.5803 -0.3345
20074SOL    HW161899   3.240   9.335   2.626 -0.2008 -1.2226 -0.9881
20074SOL    HW261900   3.179   9.211   2.564 -1.7443 -0.8065 -0.3278
20075SOL     OW61901   7.762   3.887   1.502 -0.9177 -0.0371  0.1298
20075SOL    HW161902   7.670   3.864   1.500 -0.4047 -2.1160 -0.0361
20075SOL    HW261903   7.804   3.816   1.551  0.6059  0.8385  0.1304
20076SOL     OW61904   3.733   4.169   6.012  0.5744  0.0087  0.7576
20076SOL    HW161905   3.765   4.257   5.994 -0.2689  0.3402  0.9017
20076SOL    HW261906   3.811   4.114   6.003  0.3240  0.1705 -3.7105
20077SOL     OW61907   4.782   6.517   5.460 -0.2904 -0.7666 -0.1980
20077SOL    HW161908   4.792   6.612   5.473  0.4232 -0.9130  0.3192
20077SOL    HW261909   4.687   6.504   5.458 -0.4054  0.2266 -2.2638
20078SOL     OW61910   7.971   1.718   7.996  0.0573 -0.3158  0.0584
20078SOL    HW161911   7.954   1.794   8.053 -0.1786 -1.2419  1.2468
20078SOL    HW261912   7.938   1.643   8.046 -0.1847 -1.1468 -1.3298
20079SOL     OW61913   8.771   0.113   3.026  0.1549  0.2166  0.4032
20079SOL    HW161914   8.680   0.141   3.014  0.4431  0.3337 -1.6942
20079SOL    HW261915   8.811   0.126   2.940  1.8971 -0.8031  1.0474
20080SOL     OW61916   0.970   4.353   2.433  0.1878  0.3363 -0.5568
20080SOL    HW161917   0.909   4.372   2.503  1.1104  1.1275  0.0559
20080SOL    HW261918   0.916   4.323   2.360 -0.6708 -1.5769  0.8593
20081SOL     OW61919   8.079   0.466   7.214  0.0933 -0.0147 -0.3237
20081SOL    HW161920   8.158   0.492   7.167  0.9517 -2.6015 -0.3886
20081SOL    HW261921   8.095   0.490   7.305  0.6054  0.2348 -0.4808
20082SOL     OW61922   6.719   2.735   2.065 -0.2410  0.0890 -0.2212
20082SOL    HW161923   6.812   2.732   2.042 -0.3321 -1.1747 -0.4842
20082SOL    HW261924   6.716   2.713   2.158 -0.3898 -1.5069 -0.5866
20083SOL     OW61925   0.833   7.944   4.984  0.1718 -0.6136 -0.7754
20083SOL    HW161926   0.790   7.982   5.060  1.2430 -1.3661  0.2323
20083SOL    HW261927   0.913   7.905   5.019  0.4636 -1.3505 -2.2206
20084SOL     OW61928   0.266   3.399   0.191  0.0297 -0.4464 -0.3904
20084SOL    HW161929   0.346   3.439   0.157 -0.4557 -0.5288 -1.6401
20084SOL    HW261930   0.296   3.348   0.266  0.8652  1.0591  0.3237
20085SOL     OW61931   5.465   4.071   2.411  0.4440 -0.1599 -0.3014
20085SOL    HW161932   5.432   4.126   2.482 -0.4542 -0.6309 -0.3406
20085SOL    HW261933   5.477   3.985   2.451  2.3624  0.1909 -0.1081
20086SOL     OW61934   8.965   2.581   5.215 -0.1136 -0.5804  0.3620
20086SOL    HW161935   8.961   2.486   5.206  0.3968 -0.4624 -1.2922
20086SOL    HW261936   8.873   2.608   5.219 -0.2469 -1.2876  2.7560
20087SOL     OW61937   5.005   2.771   3.198  0.4373  0.1505 -0.6253
20087SOL    HW161938   5.008   2.866   3.201  2.5175  0.0863 -0.3886
20087SOL    HW261939   5.001   2.750   3.104 -0.0799  0.4545 -0.6739
20088SOL     OW61940   7.504   4.775   6.584 -0.5326 -0.6362 -0.3983
20088SOL    HW161941   7.521   4.747   6.674  0.9389 -0.2439 -0.5490
20088SOL    HW261942   7.553   4.857   6.574  0.9941 -1.7195 -2.1913
20089SOL     OW61943   7.330   5.247   8.863  0.1256 -1.1178 -0.1243
20089SOL    HW161944   7.279   5.205   8.793 -0.4736 -0.8079  0.1247
20089SOL    HW261945   7.410   5.275   8.820 -1.0824  0.8546 -1.1643
20090SOL     OW61946   2.498   3.507   8.177  0.3977  0.2616  0.6151
20090SOL    HW161947   2.442   3.570   8.132 -0.5948 -0.9259  0.1508
20090SOL    HW261948   2.546   3.559   8.241  0.4044  1.6642 -0.4949
20091SOL     OW61949   3.285   0.971   2.435 -0.2049 -0.3763 -0.0517
20091SOL    HW161950   3.337   1.011   2.365  0.1441  0.4186  0.6523
20091SOL    HW261951   3.196   0.970   2.401 -0.1993  0.9293 -0.1214
20092SOL     OW61952   7.566   7.907   6.707 -0.5784  0.4662  0.3254
20092SOL    HW161953   7.486   7.857   6.693 -0.8662  1.0040  0.0317
20092SOL    HW261954   7.544   7.970   6.775 -0.4018  0.6044  0.2545
20093SOL     OW61955   4.532   7.174   0.448 -0.5198  0.4935 -0.0967
20093SOL    HW161956   4.545   7.082   0.469  1.7149  0.6547 -0.6153
20093SOL    HW261957   4.496   7.212   0.528  0.0571 -0.5222  0.6569
20094SOL     OW61958   0.052   6.493   7.281  0.0567  0.1433  0.0134
20094SOL    HW161959  -0.042   6.491   7.301 -0.0014 -2.0392 -0.3665
20094SOL    HW261960   0.057   6.490   7.186  0.5009  0.7400  0.0161
20095SOL     OW61961   3.324   6.678   1.436 -0.2633  0.0032 -0.2184
20095SOL    HW161962   3.228   6.683   1.439 -0.1521  2.0729  0.8520
20095SOL    HW261963   3.349   6.733   1.362  0.2044  1.7084  1.1684
20096SOL     OW61964   2.953   6.794   2.274  0.1332  0.4228 -1.0082
20096SOL    HW161965   2.865   6.829   2.289 -0.2247 -0.5171 -0.8871
20096SOL    HW261966   2.941   6.725   2.209  0.4427 -1.1954  0.6094
20097SOL     OW61967   7.085   6.541   3.328  0.5746 -0.1933 -0.7128
20097SOL    HW161968   7.015   6.565   3.388  1.1073 -0.0355 -0.1504
20097SOL    HW261969   7.080   6.446   3.322  0.3192 -0.1821 -0.6645
20098SOL     OW61970   1.245   0.342   8.791  0.2733  0.2386  0.0161
20098SOL    HW161971   1.233   0.248   8.808  1.8249 -0.2644 -1.5138
20098SOL    HW261972   1.162   0.371   8.755 -0.2885 -0.4957  0.7069
20099SOL     OW61973   2.017   3.328   5.104 -0.0478 -0.1864  0.4138
20099SOL    HW161974   2.027   3.289   5.190 -0.0436  0.1288  0.5583
20099SOL    HW261975   1.960   3.404   5.118  1.1554  0.7430  0.4155
20100SOL     OW61976   3.660   0.404   5.560  0.1525  0.7069  0.2993
20100SOL    HW161977   3.736   0.365   5.604 -0.2974  2.9938  3.2272
20100SOL    HW261978   3.698   0.455   5.489  1.2162  0.2059  0.4970
20101SOL     OW61979   8.254   2.466   4.137 -0.3162 -0.0134 -0.4834
20101SOL    HW161980   8.212   2.521   4.071  0.0512 -0.8311 -1.4019
20101SOL    HW261981   8.181   2.433   4.190 -0.8765 -1.5131 -2.1421
20102SOL     OW61982   9.109   4.019   0.221  0.1870 -0.6568 -0.0424
20102SOL    HW161983   9.092   3.926   0.234 -0.1730 -0.6282 -0.2916
20102SOL    HW261984   9.083   4.035   0.130 -0.8856 -0.0499  0.3741
20103SOL     OW61985   1.784   7.701   7.776  0.0047 -0.6139 -1.0105
20103SOL    HW161986   1.744   7.642   7.711  0.6353 -0.8812 -1.1550
20103SOL    HW261987   1.871   7.665   7.790  0.3394  0.2157 -0.9891
20104SOL     OW61988   8.864   8.772   6.055 -0.1944 -0.3453  0.2068
20104SOL    HW161989   8.944   8.766   6.002 -0.1055 -2.0840  0.4878
20104SOL    HW261990   8.802   8.820   6.000  0.4059 -0.7510 -0.8484
20105SOL     OW61991   3.539   2.089   7.563 -0.1873 -0.5366  0.1526
20105SOL    HW161992   3.487   2.102   7.642 -1.3118 -1.4597 -0.4069
20105SOL    HW261993   3.576   2.175   7.543 -2.0822  0.2978  0.1775
20106SOL     OW61994   4.416   1.159   3.449  0.2583  0.6494 -0.0458
20106SOL    HW161995   4.450   1.070   3.452  1.2143  0.9532 -1.4512
20106SOL    HW261996   4.324   1.149   3.428  0.0416 -0.0638  1.1886
20107SOL     OW61997   6.538   7.387   1.353  0.4046  0.1140  0.3609
20107SOL    HW161998   6.520   7.481   1.361 -1.0685 -0.1213 -0.0170
20107SOL    HW261999   6.595   7.380   1.276 -0.9031  0.5394 -0.6620
20108SOL     OW62000   8.437   0.929   4.936 -0.4499  0.5143 -0.0274
20108SOL    HW162001   8.491   0.973   4.871 -1.2205  1.2248 -0.1884
20108SOL    HW262002   8.355   0.908   4.890 -0.2557 -0.7196  0.1557
20109SOL     OW62003   2.412   3.190   0.328  0.0135  0.0613  0.4255
20109SOL    HW162004   2.468   3.257   0.288 -1.5237  0.0995 -1.7622
20109SOL    HW262005   2.332   3.236   0.350 -0.3312 -0.6471  0.6652
20110SOL     OW62006   4.561   9.087   7.172 -0.2310  0.2329 -0.1181
20110SOL    HW162007   4.604   9.081   7.087 -0.0983 -0.3659 -0.0103
20110SOL    HW262008   4.513   9.004   7.180 -1.8867  1.1323 -0.4986
20111SOL     OW62009   3.309   9.161   0.766 -0.2060  0.2376 -0.4226
20111SOL    HW162010   3.334   9.079   0.809  0.3464  0.4311 -0.3722
20111SOL    HW262011   3.245   9.134   0.700 -0.7781 -0.1125  0.2608
20112SOL     OW62012   1.060   5.867   8.906  0.0167 -0.0199 -0.0942
20112SOL    HW162013   1.123   5.937   8.894  1.0750 -0.5973  1.8935
20112SOL    HW262014   1.063   5.817   8.824  0.0874  1.5701 -1.0669
20113SOL     OW62015   4.642   4.931   4.984 -0.0058  0.2664 -0.2716
20113SOL    HW162016   4.681   4.883   4.910 -2.1309 -2.0978  0.0565
20113SOL    HW262017   4.624   5.018   4.949 -0.4073 -0.6190 -2.3739
20114SOL     OW62018   8.249   4.729   5.916 -0.1274  0.3910 -0.0639
20114SOL    HW162019   8.219   4.815   5.884 -1.9805  1.3110  3.8755
20114SOL    HW262020   8.331   4.747   5.961 -0.6612  0.1388  1.0118
20115SOL     OW62021   0.036   9.149   8.013 -0.1704 -0.5495 -0.3013
20115SOL    HW162022  -0.058   9.129   8.012 -0.0880 -1.0561  1.0154
20115SOL    HW262023   0.045   9.225   7.955 -1.6187  0.4867  0.8008
20116SOL     OW62024   1.810   3.964   5.286 -0.3697 -0.1323  0.5401
20116SOL    HW162025   1.861   3.884   5.270  0.0046  0.3545 -0.7638
20116SOL    HW262026   1.720   3.938   5.271 -0.2644 -0.3578  0.2976
20117SOL     OW62027   2.148   8.127   2.991  0.1840 -0.0612  0.3498
20117SOL    HW162028   2.172   8.084   3.072  0.4758 -2.1036 -0.7793
20117SOL    HW262029   2.231   8.139   2.944 -0.2071 -1.0056 -0.6250
20118SOL     OW62030   2.699   8.291   6.206  0.0204 -0.1377 -0.2259
20118SOL    HW162031   2.702   8.217   6.266  3.3260 -1.7975 -2.2735
20118SOL    HW262032   2.644   8.261   6.133 -0.6527  0.3680  0.0626
20119SOL     OW62033   9.167   2.464   3.163 -0.0089 -0.2493 -0.6676
20119SOL    HW162034   9.080   2.504   3.170  0.0070 -0.2826 -0.2487
20119SOL    HW262035   9.212   2.490   3.244  0.7722  0.6965 -1.3976
20120SOL     OW62036   8.476   7.765   1.052  0.3890 -0.3509  0.7204
20120SOL    HW162037   8.403   7.786   0.993  0.6571  0.7658  0.7819
20120SOL    HW262038   8.538   7.716   0.997 -0.6989 -1.8966  0.8388
20121SOL     OW62039   8.336   9.046   7.565  0.9737  0.4958 -0.2081
20121SOL    HW162040   8.397   9.014   7.498  0.7503 -0.7125  0.1508
20121SOL    HW262041   8.285   8.968   7.589  0.7916  1.0130  1.0816
20122SOL     OW62042   1.010   1.159   2.882  0.0848 -0.3389 -0.5596
20122SOL    HW162043   0.915   1.164   2.882  0.1247  0.4225 -0.7767
20122SOL    HW262044   1.038   1.235   2.932  0.5360 -1.4887  0.9723
20123SOL     OW62045   4.994   3.857   4.281 -0.1528  0.3787  0.3652
20123SOL    HW162046   4.981   3.890   4.192 -1.9224 -0.2737  0.3532
20123SOL    HW262047   4.967   3.929   4.337  1.7510  1.0892  0.4028
20124SOL     OW62048   4.777   6.786   5.451 -0.2397 -0.3348 -0.0281
20124SOL    HW162049   4.767   6.880   5.465 -0.1793 -0.4492  0.8259
20124SOL    HW262050   4.747   6.771   5.362 -3.0554  0.0738  0.7838
20125SOL     OW62051   3.292   2.907   3.656 -0.4960 -0.3591  0.1126
20125SOL    HW162052   3.254   2.969   3.718 -1.3291  1.4297 -2.1173
20125SOL    HW262053   3.217   2.862   3.618 -0.0904 -0.5629 -0.4614
20126SOL     OW62054   4.402   1.669   6.418  0.4315 -0.3358 -0.2628
20126SOL    HW162055   4.424   1.577   6.434 -0.3271 -0.4042  0.3946
20126SOL    HW262056   4.483   1.707   6.383  1.7485 -0.5357  2.4004
20127SOL     OW62057   0.079   6.897   7.551  0.1311 -0.4813 -0.4810
20127SOL    HW162058   0.088   6.979   7.502  0.1483 -0.2101 -0.0282
20127SOL    HW262059   0.124   6.914   7.633  1.7047 -1.5682 -1.1023
20128SOL     OW62060   8.998   6.665   7.139 -0.0354  0.0532  0.0328
20128SOL    HW162061   8.978   6.628   7.053 -2.3773  0.3365  0.4168
20128SOL    HW262062   9.065   6.731   7.122  1.6627 -1.9197 -1.1350
20129SOL     OW62063   4.342   9.122   6.938 -0.1091 -0.0890 -0.0704
20129SOL    HW162064   4.285   9.065   6.887 -0.6195  0.0033  0.3938
20129SOL    HW262065   4.286   9.157   7.007  0.4034  0.3304  0.1389
20130SOL     OW62066   7.088   4.659   6.345 -0.0525  0.4029 -0.2212
20130SOL    HW162067   7.077   4.738   6.291  2.2771  0.5756 -0.4769
20130SOL    HW262068   7.177   4.665   6.379 -0.7936 -0.7499  2.0191
20131SOL     OW62069   6.759   3.063   8.766 -0.3173  0.0105 -0.4952
20131SOL    HW162070   6.741   3.107   8.682  0.1863  2.0381  0.4375
20131SOL    HW262071   6.809   2.985   8.742  1.6456  1.6696 -1.9119
20132SOL     OW62072   2.797   4.841   5.234  0.1353 -0.7086 -0.0179
20132SOL    HW162073   2.703   4.853   5.244  0.4550 -0.4372  3.3953
20132SOL    HW262074   2.821   4.894   5.158 -2.1458  0.7992  0.2773
20133SOL     OW62075   3.271   0.027   6.991 -0.3353  0.1500 -0.4284
20133SOL    HW162076   3.178   0.026   6.969 -0.4845  0.7267  0.1729
20133SOL    HW262077   3.297   0.119   6.985 -0.0349  0.1173  0.3485
20134SOL     OW62078   0.789   5.143   1.670  0.0593 -0.1312  0.7039
20134SOL    HW162079   0.837   5.220   1.702 -1.4579  0.4249  1.6733
20134SOL    HW262080   0.858   5.084   1.639  1.2028  2.0991 -1.1635
20135SOL     OW62081   7.575   2.628   7.610  0.4103  0.7127  0.0773
20135SOL    HW162082   7.518   2.560   7.645  1.3294 -0.3678 -0.5238
20135SOL    HW262083   7.542   2.709   7.649 -2.7424  0.3530 -1.7300
20136SOL     OW62084   2.933   1.189   7.368  0.7983  0.0002  0.3692
20136SOL    HW162085   2.990   1.208   7.294  1.5947  0.8274  1.1982
20136SOL    HW262086   2.977   1.117   7.414 -0.3593 -1.4312 -0.6765
20137SOL     OW62087   7.770   0.997   5.086  0.9865  0.4732 -0.0981
20137SOL    HW162088   7.737   0.947   5.161  0.9138  0.8507  0.1197
20137SOL    HW262089   7.842   1.050   5.122  0.4201  1.2627 -0.1300
20138SOL     OW62090   4.808   2.669   3.917  0.1396  0.6095 -0.9944
20138SOL    HW162091   4.891   2.716   3.911 -0.2934  1.5771  0.2419
20138SOL    HW262092   4.742   2.735   3.897 -0.3421 -0.1194 -1.8156
20139SOL     OW62093   8.033   3.276   6.661 -0.4344  0.6129  0.1783
20139SOL    HW162094   7.991   3.359   6.637 -0.8890  0.2449 -0.3152
20139SOL    HW262095   7.985   3.210   6.612  0.6255  0.1608 -0.2707
20140SOL     OW62096   4.650   5.600   1.169  0.2503 -0.2026  0.1921
20140SOL    HW162097   4.733   5.581   1.212  0.6632  0.2730 -0.3865
20140SOL    HW262098   4.590   5.534   1.202  1.4245 -1.9642 -1.1262
20141SOL     OW62099   0.830   8.330   0.453  0.3192  0.5206  0.4579
20141SOL    HW162100   0.783   8.252   0.482  0.3154  0.3607  0.0326
20141SOL    HW262101   0.913   8.297   0.418  0.6006  0.7717  0.8930
20142SOL     OW62102   2.407   5.637   3.363 -0.5499  0.0017  0.4490
20142SOL    HW162103   2.323   5.633   3.319  0.1505 -0.9961 -0.8173
20142SOL    HW262104   2.404   5.719   3.413 -2.0822  0.1915  0.0594
20143SOL     OW62105   1.601   2.815   7.747  0.2029  0.2458  0.1783
20143SOL    HW162106   1.558   2.870   7.681  1.1420 -0.3825 -0.9640
20143SOL    HW262107   1.693   2.840   7.743  0.1249  0.8846  1.9334
20144SOL     OW62108   9.109   3.651   2.084  0.1625  0.4167 -0.2646
20144SOL    HW162109   9.088   3.559   2.070 -0.2598  0.2386  1.4706
20144SOL    HW262110   9.025   3.692   2.105  0.6016  0.8688  0.6544
20145SOL     OW62111   3.416   3.169   5.461 -0.1816 -0.0544 -0.7877
20145SOL    HW162112   3.383   3.121   5.537 -0.8762 -1.1943 -1.7948
20145SOL    HW262113   3.398   3.112   5.386  0.3125  1.1360 -1.8424
20146SOL     OW62114   7.564   2.115   2.756  0.6473  0.1183  0.0989
20146SOL    HW162115   7.478   2.106   2.798  1.6866 -0.6895  2.0915
20146SOL    HW262116   7.600   2.026   2.757  1.9203  0.6241  0.1680
20147SOL     OW62117   1.165   3.245   0.913  0.2344 -0.0052 -0.1408
20147SOL    HW162118   1.142   3.166   0.960  0.8628  0.0736  0.3160
20147SOL    HW262119   1.205   3.302   0.980  0.2308  0.4975 -0.5598
20148SOL     OW62120   4.062   2.079   6.837  0.4093  0.4863  0.1145
20148SOL    HW162121   3.967   2.077   6.846  0.3984  0.3989 -0.0046
20148SOL    HW262122   4.079   2.034   6.754  0.6415 -0.7663  0.8192
20149SOL     OW62123   0.685   7.761   2.615 -0.1762  0.4709 -0.1024
20149SOL    HW162124   0.711   7.782   2.704 -0.5810  0.2699  0.0678
20149SOL    HW262125   0.663   7.668   2.618 -0.3274  0.4974 -0.3749
20150SOL     OW62126   1.843   7.618   6.493  0.1646 -0.0786 -0.4518
20150SOL    HW162127   1.770   7.585   6.546 -3.7252  2.3883 -3.9780
20150SOL    HW262128   1.861   7.705   6.530  1.2031 -0.5961  0.2748
20151SOL     OW62129   1.216   4.571   4.272 -0.0813  0.0910 -0.0822
20151SOL    HW162130   1.173   4.548   4.190 -0.3946  2.4495 -0.6252
20151SOL    HW262131   1.154   4.629   4.317  1.4537  1.4975  0.2822
20152SOL     OW62132   1.449   6.056   8.232  0.0364 -0.3645 -0.1633
20152SOL    HW162133   1.382   6.017   8.176 -0.5665 -0.5697  0.7066
20152SOL    HW262134   1.450   6.148   8.207 -1.6523 -0.0562  0.9188
20153SOL     OW62135   6.999   2.583   7.310 -0.2553  0.6049 -0.1795
20153SOL    HW162136   6.931   2.562   7.374  0.2607  1.4460  0.6613
20153SOL    HW262137   7.025   2.673   7.331  0.0227  0.8382 -1.4794
20154SOL     OW62138   1.911   4.620   0.216 -0.2378  0.3532  0.1793
20154SOL    HW162139   1.858   4.549   0.179  1.6391 -1.3754  0.7233
20154SOL    HW262140   1.908   4.606   0.310  0.8616  0.4991  0.2332
20155SOL     OW62141   8.800   4.911   3.943 -0.3025 -0.2232 -0.3989
20155SOL    HW162142   8.781   4.935   4.034  1.7506  1.1434 -0.3071
20155SOL    HW262143   8.845   4.827   3.950  3.7627  1.8832  0.2390
20156SOL     OW62144   4.724   9.066   3.484  0.5950  0.4069 -0.1602
20156SOL    HW162145   4.714   9.059   3.579  1.7127  0.4673 -0.0278
20156SOL    HW262146   4.780   8.992   3.460  0.9750  0.8524 -0.6617
20157SOL     OW62147   4.100   2.657   1.396 -0.3389 -0.2389 -0.1391
20157SOL    HW162148   4.053   2.739   1.414 -0.8733 -0.4348 -0.6471
20157SOL    HW262149   4.043   2.610   1.335  0.3514 -0.6336 -0.4753
20158SOL     OW62150   9.160   6.991   1.239  0.0034 -0.0105  0.0610
20158SOL    HW162151   9.110   6.923   1.283  0.2136 -0.6419 -0.6697
20158SOL    HW262152   9.141   6.979   1.146  0.9411  0.1986 -0.1638
20159SOL     OW62153   6.706   0.459   5.120 -0.1549  0.0177  0.4251
20159SOL    HW162154   6.679   0.551   5.114  0.4715  0.3561  2.6627
20159SOL    HW262155   6.800   0.461   5.103 -0.2885 -0.3308 -0.3809
20160SOL     OW62156   8.236   3.456   3.504 -0.2614 -0.2931  0.2425
20160SOL    HW162157   8.183   3.383   3.473  0.8793 -0.2661 -1.8590
20160SOL    HW262158   8.303   3.416   3.561  0.3578 -0.8899 -0.8993
20161SOL     OW62159   7.677   6.307   6.980  0.6994 -0.8253  0.1579
20161SOL    HW162160   7.717   6.286   7.065 -0.2449  0.7754  1.0417
20161SOL    HW262161   7.676   6.403   6.978 -0.5547 -0.8499 -1.0508
20162SOL     OW62162   1.840   2.956   2.135  0.6459  0.7553 -0.1250
20162SOL    HW162163   1.876   2.902   2.064  0.1930 -3.2663  2.5521
20162SOL    HW262164   1.916   2.989   2.182  0.9075  0.5438 -0.3963
20163SOL     OW62165   1.939   5.840   5.930 -0.3303 -0.0245  0.0002
20163SOL    HW162166   1.992   5.914   5.960  1.4927 -1.3686  0.1732
20163SOL    HW262167   1.964   5.827   5.839 -2.4291  1.0759 -0.7675
20164SOL     OW62168   1.687   3.223   1.118 -0.1319  0.1815 -0.3356
20164SOL    HW162169   1.723   3.306   1.150  0.4778 -0.3553  0.3519
20164SOL    HW262170   1.605   3.249   1.074  0.2994  1.2050 -0.5570
20165SOL     OW62171   4.687   6.773   1.348 -0.3152  0.6665 -0.1481
20165SOL    HW162172   4.732   6.822   1.417  0.1697  0.6718 -0.4695
20165SOL    HW262173   4.594   6.787   1.366 -0.2385 -0.7646  1.5543
20166SOL     OW62174   8.153   5.698   5.617  0.8190  0.3135 -0.6883
20166SOL    HW162175   8.165   5.623   5.675 -1.4544 -0.2726 -0.9169
20166SOL    HW262176   8.175   5.664   5.529 -1.9270 -0.6466 -1.0565
20167SOL     OW62177   4.126   7.867   0.483  0.6352 -0.5325  0.3002
20167SOL    HW162178   4.127   7.800   0.552  1.5003 -0.1034  0.7187
20167SOL    HW262179   4.105   7.948   0.528 -1.3888 -0.6708 -0.3673
20168SOL     OW62180   1.047   2.516   9.263 -0.0753 -0.0577  0.3121
20168SOL    HW162181   1.058   2.603   9.302  1.0952 -0.1380  0.1937
20168SOL    HW262182   1.027   2.459   9.337 -0.1270  0.1824  0.4850
20169SOL     OW62183   8.487   3.132   8.101  0.2985  0.0212  0.2152
20169SOL    HW162184   8.450   3.203   8.155  2.3798  1.2023  0.1354
20169SOL    HW262185   8.530   3.177   8.029 -1.3831 -1.5073 -1.8053
20170SOL     OW62186   8.408   7.647   4.621 -0.1907  0.2560  0.3158
20170SOL    HW162187   8.341   7.673   4.557 -1.8121 -0.4829  1.6668
20170SOL    HW262188   8.382   7.693   4.702  1.2511  0.3858  0.7106
20171SOL     OW62189   6.146   3.622   3.716 -0.2538  0.6707  0.3005
20171SOL    HW162190   6.092   3.690   3.677 -0.6739  0.0350 -0.2240
20171SOL    HW262191   6.234   3.637   3.680 -0.6795 -0.0324 -1.0446
20172SOL     OW62192   4.955   3.729   7.609 -0.8864  0.2880  0.0153
20172SOL    HW162193   5.029   3.738   7.669 -1.5102 -0.8828  0.9690
20172SOL    HW262194   4.902   3.807   7.624  0.2554  1.2654 -0.8538
20173SOL     OW62195   5.846   7.800   1.053 -0.4026 -0.2879 -0.7737
20173SOL    HW162196   5.892   7.813   0.970 -0.1299 -1.7669 -0.8652
20173SOL    HW262197   5.770   7.858   1.048 -1.3262 -1.6257 -2.7880
20174SOL     OW62198   4.412   6.628   6.821 -0.0614  0.6953 -0.8085
20174SOL    HW162199   4.419   6.542   6.862  0.7905 -0.0154 -2.4240
20174SOL    HW262200   4.364   6.681   6.885  1.4695 -0.3047  1.2193
20175SOL     OW62201   7.255   2.504   2.769 -0.2205 -0.5274 -0.1396
20175SOL    HW162202   7.252   2.425   2.823 -2.3124 -2.0596 -2.3610
20175SOL    HW262203   7.331   2.492   2.712  1.3279  0.5699  1.6575
20176SOL     OW62204   6.110   7.387   0.280  0.0438 -0.5177  0.5322
20176SOL    HW162205   6.130   7.322   0.213  2.1808 -0.6707  1.2846
20176SOL    HW262206   6.016   7.379   0.294 -0.2812 -1.0669 -1.8320
20177SOL     OW62207   6.242   0.364   4.050 -0.5094 -0.0831 -0.2729
20177SOL    HW162208   6.305   0.387   4.119  0.5229  1.2040 -1.6145
20177SOL    HW262209   6.289   0.299   3.997 -1.6414 -1.7633  0.7315
20178SOL     OW62210   4.530   2.175   3.197 -0.4746 -0.0139  0.1659
20178SOL    HW162211   4.538   2.254   3.251  0.1397 -0.3504  0.5757
20178SOL    HW262212   4.553   2.103   3.256  2.1215 -0.2380 -1.0437
20179SOL     OW62213   2.370   3.134   8.298 -0.3453  0.5905 -0.0184
20179SOL    HW162214   2.413   3.196   8.357  0.7663 -1.4387  1.3502
20179SOL    HW262215   2.412   3.149   8.214  1.5283  0.1670  0.8087
20180SOL     OW62216   0.308   2.812   3.074 -0.1153  0.5673  0.3447
20180SOL    HW162217   0.216   2.794   3.051 -0.3291  0.9948  0.8470
20180SOL    HW262218   0.349   2.837   2.991  0.1003 -1.8175 -0.2998
20181SOL     OW62219   9.211   2.794   5.543  0.2655  0.4716 -0.2977
20181SOL    HW162220   9.285   2.844   5.577  0.8303 -1.1309  0.8679
20181SOL    HW262221   9.249   2.713   5.509 -0.8027  0.2163 -0.9372
20182SOL     OW62222   1.164   8.327   5.728  0.1944  0.2221  0.2497
20182SOL    HW162223   1.239   8.331   5.786 -0.0128  0.8090  0.4894
20182SOL    HW262224   1.201   8.311   5.641  0.4967 -0.7526  0.5592
20183SOL     OW62225   5.920   9.273   7.220  0.4311  0.1576 -0.0795
20183SOL    HW162226   5.830   9.276   7.253 -0.0198  0.1865 -1.2674
20183SOL    HW262227   5.969   9.226   7.287 -0.1995  1.2427  1.1749
20184SOL     OW62228   0.802   5.294   0.317 -0.4111 -0.5016 -0.0852
20184SOL    HW162229   0.847   5.351   0.255 -1.5550 -1.6919 -2.0479
20184SOL    HW262230   0.759   5.228   0.263 -0.2377 -2.4534  2.0401
20185SOL     OW62231   4.637   4.264   8.031 -0.3097 -0.1092 -0.0682
20185SOL    HW162232   4.665   4.316   8.106 -3.1089 -0.5072  1.3195
20185SOL    HW262233   4.700   4.191   8.029  0.2834  0.3213  1.3976
20186SOL     OW62234   1.981   4.230   1.331  0.1984  0.7322  0.0878
20186SOL    HW162235   2.000   4.276   1.412  0.4441  0.4252  0.2046
20186SOL    HW262236   1.885   4.224   1.328  0.1915  0.7175  0.3673
20187SOL     OW62237   6.497   2.043   6.132  0.1213 -0.1332 -0.3567
20187SOL    HW162238   6.416   2.033   6.182 -0.1254  1.4230 -0.4228
20187SOL    HW262239   6.468   2.057   6.041  0.3874  1.8327 -0.1647
20188SOL     OW62240   6.293   4.669   5.238  0.9457  0.2814  0.2153
20188SOL    HW162241   6.243   4.729   5.182  1.6116  0.2707 -0.3953
20188SOL    HW262242   6.244   4.667   5.320 -0.9732 -0.9903 -0.9207
20189SOL     OW62243   4.703   8.327   8.335 -0.3710  0.0380 -0.5116
20189SOL    HW162244   4.723   8.278   8.414  1.7271  0.7972 -0.5529
20189SOL    HW262245   4.735   8.273   8.263  2.5909  1.7352 -0.5171
20190SOL     OW62246   6.625   0.966   0.133  0.4020 -0.1009 -0.2578
20190SOL    HW162247   6.717   0.991   0.127  0.1758  1.6365  2.5916
20190SOL    HW262248   6.580   1.046   0.161 -2.0338 -0.8634 -1.8136
20191SOL     OW62249   3.381   3.907   5.229 -1.0772  0.8018  0.4481
20191SOL    HW162250   3.343   3.838   5.283  1.0043  0.4943  1.5893
20191SOL    HW262251   3.326   3.909   5.151 -1.3176 -2.0465  0.4689
20192SOL     OW62252   5.580   4.104   1.391  0.3543  0.1751 -0.0511
20192SOL    HW162253   5.514   4.102   1.321  0.2734  1.4294 -0.0275
20192SOL    HW262254   5.594   4.012   1.413 -0.3607 -0.1820 -1.0227
20193SOL     OW62255   9.150   7.235   2.059  0.2763  0.4697  0.6418
20193SOL    HW162256   9.122   7.276   2.141 -1.1844  1.6134 -0.4266
20193SOL    HW262257   9.213   7.296   2.021 -1.4039  1.4468 -0.6232
20194SOL     OW62258   3.384   7.346   5.052 -0.1182  0.3692 -0.3992
20194SOL    HW162259   3.466   7.394   5.041 -0.2140  0.6083 -0.0781
20194SOL    HW262260   3.357   7.324   4.963  1.9941 -2.6384 -0.3585
20195SOL     OW62261   4.552   7.952   5.714  0.1437  0.2952  0.2161
20195SOL    HW162262   4.481   8.006   5.747 -0.8135  0.6072 -2.2603
20195SOL    HW262263   4.509   7.873   5.681  1.1090 -0.1672  0.0399
20196SOL     OW62264   3.374   1.409   1.370 -0.1941  0.1741 -0.2321
20196SOL    HW162265   3.409   1.437   1.285  1.3840  4.2321  1.6369
20196SOL    HW262266   3.451   1.376   1.417 -0.4115  1.1262  0.8133
20197SOL     OW62267   3.081   8.152   4.534  0.1584 -0.4441 -0.3165
20197SOL    HW162268   3.103   8.146   4.627  0.3996 -1.2516 -0.4157
20197SOL    HW262269   2.986   8.163   4.532  0.1036 -0.8366  0.0197
20198SOL     OW62270   2.779   2.672   6.123 -0.0362  0.6813  0.3117
20198SOL    HW162271   2.791   2.577   6.118  0.3230  0.7215  0.4087
20198SOL    HW262272   2.759   2.689   6.215 -0.9332  0.6061  0.1395
20199SOL     OW62273   6.849   2.580   6.405 -0.3182  0.5423 -0.1097
20199SOL    HW162274   6.813   2.521   6.472  0.4615  0.3765  0.1675
20199SOL    HW262275   6.779   2.588   6.340  0.7403 -3.3994 -1.8806
20200SOL     OW62276   4.547   5.824   7.053  0.3096 -0.1257  0.0328
20200SOL    HW162277   4.637   5.796   7.071  0.2676  0.9621  2.1252
20200SOL    HW262278   4.493   5.763   7.103 -0.1134 -0.5859 -0.9787
20201SOL     OW62279   7.032   0.332   9.146  0.8922 -0.3345 -0.6618
20201SOL    HW162280   7.013   0.384   9.068  1.9032 -0.1976 -0.8267
20201SOL    HW262281   7.034   0.242   9.114 -0.2633 -0.4265 -0.4908
20202SOL     OW62282   4.667   7.678   6.365 -0.5242 -0.3738 -0.4719
20202SOL    HW162283   4.674   7.587   6.337 -1.3760 -0.9179  1.0450
20202SOL    HW262284   4.709   7.680   6.451  1.2924  1.0939 -1.3504
20203SOL     OW62285   3.221   8.134   2.176 -0.1444  0.5093 -0.2408
20203SOL    HW162286   3.220   8.206   2.112  0.9563  0.6808 -0.0810
20203SOL    HW262287   3.300   8.084   2.153 -0.4302 -0.1432  0.2039
20204SOL     OW62288   2.325   6.292   1.610 -0.2169 -0.8722 -0.0302
20204SOL    HW162289   2.356   6.275   1.521 -1.1363 -2.1986 -0.1142
20204SOL    HW262290   2.243   6.340   1.597  0.0410 -0.3855  0.1235
20205SOL     OW62291   4.756   5.452   6.548 -0.0817  0.0984 -0.5477
20205SOL    HW162292   4.713   5.537   6.537  0.2681  0.1183 -1.7696
20205SOL    HW262293   4.834   5.457   6.492  0.1946 -0.8547 -0.2545
20206SOL     OW62294   4.117   8.500   6.754  0.3278  0.3815  0.4839
20206SOL    HW162295   4.194   8.459   6.794  0.2878 -0.5006 -0.3123
20206SOL    HW262296   4.131   8.490   6.659  0.3547  2.3050  0.2544
20207SOL     OW62297   8.480   3.019   6.260  0.1407  0.3767  0.6121
20207SOL    HW162298   8.484   3.093   6.200  1.0423 -0.3932 -0.3043
20207SOL    HW262299   8.566   3.018   6.302  0.7929 -1.2005 -0.6889
20208SOL     OW62300   4.565   0.551   4.992 -0.4083 -0.4898 -0.6489
20208SOL    HW162301   4.470   0.550   5.008 -0.3929 -0.6480 -0.5666
20208SOL    HW262302   4.572   0.566   4.898 -0.5284 -1.0500 -0.7481
20209SOL     OW62303   7.853   8.684   5.315  0.1618 -0.2463 -0.1265
20209SOL    HW162304   7.834   8.667   5.223 -2.2032  0.8291  0.1249
20209SOL    HW262305   7.770   8.668   5.360  1.2193 -0.5114  1.7939
20210SOL     OW62306   0.693   2.195   4.097  0.2704  0.5745 -0.1940
20210SOL    HW162307   0.780   2.182   4.133  0.0365 -0.9429 -0.1603
20210SOL    HW262308   0.665   2.280   4.133  0.3214 -0.5685  2.6310
20211SOL     OW62309   2.250   4.310   1.857 -0.3754  0.2065  0.3890
20211SOL    HW162310   2.171   4.326   1.805 -1.8716 -3.1196  1.4476
20211SOL    HW262311   2.237   4.360   1.937  0.0308  2.0877 -0.7046
20212SOL     OW62312   0.409   8.725   1.446  0.1242 -0.0368 -0.0392
20212SOL    HW162313   0.421   8.639   1.486  0.5448 -1.2137 -2.5643
20212SOL    HW262314   0.492   8.743   1.402 -0.7913  0.4884 -1.6190
20213SOL     OW62315   1.973   5.792   2.850  0.1359  0.5180 -0.1280
20213SOL    HW162316   1.935   5.705   2.837 -1.2933  1.2536 -0.9931
20213SOL    HW262317   2.065   5.775   2.870 -0.2866 -1.2235  0.4095
20214SOL     OW62318   9.010   7.425   0.484  0.2717  0.5863 -0.5801
20214SOL    HW162319   8.944   7.357   0.493 -1.3361  2.0681 -0.9552
20214SOL    HW262320   8.966   7.506   0.511  2.4951  1.3175  1.0246
20215SOL     OW62321   4.970   3.149   7.444  0.0258  0.0662 -0.3991
20215SOL    HW162322   4.919   3.210   7.496  1.0080 -0.5685  1.3513
20215SOL    HW262323   4.960   3.179   7.354  0.3522  2.7008  0.4138
20216SOL     OW62324   6.924   8.000   1.817  0.2311  0.3183  0.3013
20216SOL    HW162325   6.871   7.978   1.894  2.8927 -1.2868  1.7602
20216SOL    HW262326   6.884   7.951   1.745 -0.6305 -0.3663  1.2257
20217SOL     OW62327   4.409   9.238   7.891  0.2018 -0.2124 -0.1951
20217SOL    HW162328   4.351   9.187   7.835  0.3930 -0.6613  0.0171
20217SOL    HW262329   4.434   9.178   7.961 -0.4995  0.5082  0.6933
20218SOL     OW62330   2.973   7.906   2.544 -0.0055  0.0009 -0.3568
20218SOL    HW162331   2.974   7.915   2.448  1.6376  1.2316 -0.2588
20218SOL    HW262332   2.924   7.983   2.574 -0.4160 -0.3214 -0.2003
20219SOL     OW62333   5.241   3.498   7.045  0.1932  0.1066 -0.1595
20219SOL    HW162334   5.163   3.499   7.101  0.3372  0.5035  0.0355
20219SOL    HW262335   5.243   3.585   7.005  0.4121  0.0188 -0.3363
20220SOL     OW62336   7.815   5.390   8.405 -0.4623  0.3681  0.2902
20220SOL    HW162337   7.848   5.308   8.367 -0.6206  0.4921 -0.1253
20220SOL    HW262338   7.866   5.403   8.484 -0.4814 -0.1705  0.3894
20221SOL     OW62339   4.219   2.998   6.219 -0.3064  0.3057  0.3452
20221SOL    HW162340   4.148   2.958   6.270  0.1513 -2.3009 -0.9693
20221SOL    HW262341   4.299   2.963   6.258  0.0890 -0.5469 -1.2010
20222SOL     OW62342   3.619   4.138   3.251  0.0434 -0.4078  0.0928
20222SOL    HW162343   3.570   4.218   3.228  0.2098 -0.3595 -0.1028
20222SOL    HW262344   3.709   4.159   3.228  0.1378 -0.5335  0.3593
20223SOL     OW62345   8.227   0.498   3.744 -0.3925  0.3571  0.4649
20223SOL    HW162346   8.251   0.431   3.679 -2.2153 -0.4380  0.5740
20223SOL    HW262347   8.156   0.547   3.702  0.1250  1.4733  0.8723
20224SOL     OW62348   3.268   0.992   7.629  0.2239 -0.3739 -0.2894
20224SOL    HW162349   3.328   0.917   7.619  0.9634  0.4599 -2.3479
20224SOL    HW262350   3.299   1.056   7.565  0.3817  2.2392  2.2904
20225SOL     OW62351   9.028   8.792   5.262  0.1279  0.7694 -0.1618
20225SOL    HW162352   9.114   8.831   5.244  0.3388  0.3483 -0.0539
20225SOL    HW262353   9.026   8.784   5.358  0.2595  0.1037 -0.2159
20226SOL     OW62354   5.250   6.263   0.209  0.1676 -0.1079 -0.2782
20226SOL    HW162355   5.223   6.190   0.153  0.8511 -0.5851  0.0065
20226SOL    HW262356   5.339   6.284   0.180 -0.5407  1.5428 -1.3067
20227SOL     OW62357   3.810   4.420   5.661 -0.1414 -0.0880  0.5114
20227SOL    HW162358   3.838   4.505   5.696 -0.0687 -0.2881  0.9351
20227SOL    HW262359   3.734   4.442   5.606 -0.6063  0.1584  1.2405
20228SOL     OW62360   3.232   7.060   5.246 -0.1119  0.2868 -0.5422
20228SOL    HW162361   3.220   7.045   5.152  0.8791 -1.3905 -0.4269
20228SOL    HW262362   3.229   7.155   5.256  1.0175  0.5525 -2.4572
20229SOL     OW62363   3.390   5.435   3.404 -0.2823  0.6365 -0.2737
20229SOL    HW162364   3.327   5.364   3.413  0.7399 -0.1731  0.6655
20229SOL    HW262365   3.340   5.508   3.367 -1.6053 -0.1953 -0.1368
20230SOL     OW62366   6.361   1.997   6.601  0.2814  0.4081  0.4810
20230SOL    HW162367   6.387   1.918   6.554 -0.7932 -0.3029  1.0765
20230SOL    HW262368   6.430   2.061   6.580  0.6226 -0.3664 -0.8080
20231SOL     OW62369   9.083   8.030   8.471 -0.0340  0.1200 -0.0306
20231SOL    HW162370   9.153   7.967   8.487  0.2534  0.5368  0.3474
20231SOL    HW262371   9.099   8.062   8.382  0.6053  0.6525  0.2689
20232SOL     OW62372   8.843   7.049   8.542 -0.0677 -0.1033 -0.1698
20232SOL    HW162373   8.928   7.071   8.581 -1.1851  0.6669  1.9331
20232SOL    HW262374   8.844   6.954   8.535  0.3962 -0.2201  1.2642
20233SOL     OW62375   2.106   4.359   7.029  0.1201 -0.4635 -0.2976
20233SOL    HW162376   2.029   4.307   7.054  0.7389 -0.9189  0.6806
20233SOL    HW262377   2.123   4.415   7.106 -0.2606  0.8604 -1.1626
20234SOL     OW62378   5.363   3.974   7.879  0.3662  0.2984 -0.1710
20234SOL    HW162379   5.427   3.939   7.940 -1.0691 -0.5260  0.8972
20234SOL    HW262380   5.390   3.942   7.794  0.6993 -1.0251  0.4251
20235SOL     OW62381   4.146   2.052   3.270  0.4006 -0.1989  0.3099
20235SOL    HW162382   4.068   2.010   3.306  0.0274 -0.2715 -0.5874
20235SOL    HW262383   4.127   2.065   3.178  1.4395 -0.1874  0.0858
20236SOL     OW62384   8.696   8.675   6.649 -0.1304  0.4434  0.1592
20236SOL    HW162385   8.706   8.655   6.556 -0.5187 -2.4605  0.6962
20236SOL    HW262386   8.601   8.671   6.664  0.0393 -0.7557  0.9906
20237SOL     OW62387   2.239   4.002   8.990 -0.0644  0.2503 -0.2057
20237SOL    HW162388   2.330   4.017   8.964  0.0281  0.6864  0.3566
20237SOL    HW262389   2.246   3.961   9.077 -0.4192  1.0525  0.2050
20238SOL     OW62390   3.416   6.570   5.173 -0.0611 -0.1752  0.7526
20238SOL    HW162391   3.321   6.560   5.177 -0.5302  1.9992 -2.8907
20238SOL    HW262392   3.435   6.648   5.226 -0.3286 -0.5033  1.3291
20239SOL     OW62393   3.467   2.665   8.050 -0.3553 -0.0156 -0.2529
20239SOL    HW162394   3.397   2.707   7.999  1.2141  1.7296 -1.0135
20239SOL    HW262395   3.515   2.612   7.987 -0.5327 -0.6396  0.1280
20240SOL     OW62396   4.160   1.361   3.503  0.0531 -0.0885 -0.1243
20240SOL    HW162397   4.224   1.355   3.575 -0.6204  1.1867  0.6018
20240SOL    HW262398   4.087   1.408   3.541 -1.1978 -1.2463 -1.0559
20241SOL     OW62399   3.882   5.177   7.160 -0.6751 -0.3571 -0.2620
20241SOL    HW162400   3.855   5.172   7.068 -0.9923  1.3820 -0.2813
20241SOL    HW262401   3.803   5.154   7.209 -0.6463 -0.7811 -0.4107
20242SOL     OW62402   4.704   0.023   3.786 -0.3445 -0.0366 -0.8793
20242SOL    HW162403   4.732  -0.027   3.863 -0.6616  1.7463  0.4085
20242SOL    HW262404   4.782   0.073   3.760 -0.6168  0.3477 -0.9518
20243SOL     OW62405   5.459   6.991   4.268  0.0667  0.0454 -0.4048
20243SOL    HW162406   5.461   7.081   4.236  1.9121 -0.4889 -1.8846
20243SOL    HW262407   5.417   6.941   4.198  0.6385 -0.5059 -0.3696
20244SOL     OW62408   0.784   8.029   1.236  0.2648  0.1837 -0.7872
20244SOL    HW162409   0.874   8.043   1.266  0.9910  1.3523 -3.3905
20244SOL    HW262410   0.733   8.092   1.285  1.0902  0.5036 -0.3190
20245SOL     OW62411   7.151   3.074   5.283  0.4689  0.0080  0.2600
20245SOL    HW162412   7.203   3.082   5.203  0.9515 -3.0759  0.2041
20245SOL    HW262413   7.177   2.990   5.320 -3.1058 -0.7541  1.2263
20246SOL     OW62414   1.076   5.757   7.707  0.2724  0.2901 -0.1105
20246SOL    HW162415   1.100   5.839   7.665 -0.4230  0.4132 -0.2790
20246SOL    HW262416   0.996   5.777   7.755  0.2549 -0.2196  0.0807
20247SOL     OW62417   3.266   3.466   1.920  0.4029  0.4185  0.0917
20247SOL    HW162418   3.225   3.383   1.894 -1.1903  1.2589 -0.1477
20247SOL    HW262419   3.235   3.529   1.854 -0.6000  1.7765  1.8288
20248SOL     OW62420   1.586   8.649   0.584  0.0527 -0.1945 -0.5218
20248SOL    HW162421   1.517   8.702   0.624  0.8344  1.0870 -0.8213
20248SOL    HW262422   1.604   8.580   0.648 -0.5597  0.2586  0.1502
20249SOL     OW62423   2.672   6.381   5.574 -0.2856 -0.3934 -0.0117
20249SOL    HW162424   2.648   6.467   5.540 -0.2739 -0.4516 -0.1643
20249SOL    HW262425   2.741   6.399   5.638 -0.9376 -0.1972  0.6411
20250SOL     OW62426   1.946   4.449   4.092 -0.0516 -0.1589 -0.4587
20250SOL    HW162427   1.992   4.384   4.039 -0.8276 -0.1066 -1.2051
20250SOL    HW262428   1.856   4.415   4.098 -0.0649  0.0328  0.4943
20251SOL     OW62429   8.878   7.728   8.982  0.2880  0.0525  0.0042
20251SOL    HW162430   8.952   7.739   8.923  0.7998 -1.8697  0.2790
20251SOL    HW262431   8.912   7.672   9.052 -0.6267  1.4041  1.5593
20252SOL     OW62432   1.732   6.238   8.376  0.1079 -0.1818 -0.2705
20252SOL    HW162433   1.769   6.162   8.331 -0.0117 -1.0406  1.0561
20252SOL    HW262434   1.798   6.307   8.366  1.1940 -1.1123  0.4077
20253SOL     OW62435   2.062   6.989   5.639 -0.3112 -0.3373 -0.1755
20253SOL    HW162436   2.035   7.033   5.719  1.4967  0.7000 -0.1138
20253SOL    HW262437   2.033   7.046   5.568  2.2483  1.1264 -0.0874
20254SOL     OW62438   3.136   2.853   9.044 -0.3725  0.0156 -0.2117
20254SOL    HW162439   3.178   2.823   8.964  0.8285  0.6692  0.1571
20254SOL    HW262440   3.053   2.806   9.047  0.6075 -1.7609 -0.6346
20255SOL     OW62441   3.065   1.350   8.741 -0.3290  0.0432  0.2300
20255SOL    HW162442   3.059   1.292   8.665  2.0463  2.6404 -2.0690
20255SOL    HW262443   3.157   1.376   8.744 -0.6019  0.8114  3.4072
20256SOL     OW62444   1.606   2.620   4.130 -0.3684 -0.0226 -0.0580
20256SOL    HW162445   1.600   2.543   4.186  0.9234  1.7257  2.6380
20256SOL    HW262446   1.698   2.625   4.105 -0.0253  1.6434  1.3892
20257SOL     OW62447   5.199   6.961   2.598 -0.4119 -0.6327 -0.4453
20257SOL    HW162448   5.120   6.935   2.645  0.0389 -1.2148 -0.0037
20257SOL    HW262449   5.265   6.976   2.666 -0.3075  0.4635 -0.7691
20258SOL     OW62450   6.109   8.847   1.928  0.4683  0.5211 -0.3969
20258SOL    HW162451   6.021   8.828   1.960  1.5413 -2.7663  0.8046
20258SOL    HW262452   6.138   8.921   1.982 -0.6462  0.0592  0.8746
20259SOL     OW62453   5.351   2.718   4.181 -0.1111 -0.6010 -0.7507
20259SOL    HW162454   5.395   2.636   4.161 -0.3061 -0.8754 -0.0894
20259SOL    HW262455   5.356   2.725   4.277  0.4861  0.4856 -0.8556
20260SOL     OW62456   3.495   7.419   5.426 -0.0120 -0.1780 -0.2547
20260SOL    HW162457   3.515   7.444   5.516 -0.2544  0.9874 -0.5109
20260SOL    HW262458   3.522   7.494   5.373 -0.5533 -0.5443 -1.0751
20261SOL     OW62459   2.764   3.881   1.885  0.2980 -0.3218 -0.2366
20261SOL    HW162460   2.728   3.881   1.796 -1.7749  1.6088  0.5361
20261SOL    HW262461   2.845   3.932   1.878 -0.8514  1.4937 -0.6954
20262SOL     OW62462   1.113   6.632   3.084 -0.4315 -0.2326  0.2393
20262SOL    HW162463   1.064   6.560   3.045 -1.5953  0.3037  0.6866
20262SOL    HW262464   1.104   6.619   3.179 -0.0952  0.1169  0.3196
20263SOL     OW62465   7.555   4.962   7.623 -0.1561  0.1434 -0.5835
20263SOL    HW162466   7.553   5.006   7.537  0.3558  0.4844 -0.4267
20263SOL    HW262467   7.559   5.034   7.686  0.4785 -0.1322 -0.3115
20264SOL     OW62468   2.797   9.222   4.275 -0.0186  0.2824  0.8462
20264SOL    HW162469   2.781   9.151   4.337 -0.3223  0.1363  0.5974
20264SOL    HW262470   2.885   9.206   4.242 -0.1392 -0.0502  0.6899
20265SOL     OW62471   0.556   5.260   5.398 -0.3231 -0.2443 -0.3099
20265SOL    HW162472   0.579   5.220   5.314  3.6618 -2.1404  1.5597
20265SOL    HW262473   0.617   5.334   5.407 -0.5917 -0.1648  0.9649
20266SOL     OW62474   0.002   0.348   2.007  0.0630 -0.4783 -0.5606
20266SOL    HW162475  -0.009   0.258   2.039  0.2896  0.1891  1.5018
20266SOL    HW262476  -0.061   0.399   2.058  0.3494  0.6169 -1.2928
20267SOL     OW62477   3.403   1.355   7.838  0.1326  0.8058  0.0759
20267SOL    HW162478   3.477   1.339   7.896 -0.7146 -1.0964  0.6702
20267SOL    HW262479   3.334   1.388   7.895 -1.3252 -2.8306  0.5813
20268SOL     OW62480   3.271   0.250   2.159 -0.2488  0.4344  0.1731
20268SOL    HW162481   3.215   0.188   2.206  0.8629 -0.0797  0.8368
20268SOL    HW262482   3.222   0.272   2.080 -0.2788 -1.9875 -0.5158
20269SOL     OW62483   2.631   3.993   4.002 -0.3339 -0.2352 -0.0181
20269SOL    HW162484   2.667   3.939   3.932  0.0321  1.2518 -1.0081
20269SOL    HW262485   2.546   4.022   3.969 -0.3474  0.1295  0.3272
20270SOL     OW62486   4.677   2.406   6.916 -0.0475  0.0147  0.3268
20270SOL    HW162487   4.727   2.452   6.984  0.3412  1.5055 -0.9545
20270SOL    HW262488   4.613   2.354   6.965  1.0053  0.1441  1.8845
20271SOL     OW62489   6.410   4.352   7.848  0.1468  0.2016 -0.2409
20271SOL    HW162490   6.334   4.409   7.857 -0.9524 -1.5617  1.8869
20271SOL    HW262491   6.379   4.278   7.796  1.0634  0.5710 -1.3529
20272SOL     OW62492   3.858   6.144   0.572 -0.1093 -0.2072 -0.1479
20272SOL    HW162493   3.859   6.128   0.667  1.3158  0.3134 -0.0610
20272SOL    HW262494   3.950   6.147   0.547 -0.3964  2.2793 -1.0860
20273SOL     OW62495   6.632   3.498   0.763 -0.2588 -0.0687  0.0048
20273SOL    HW162496   6.710   3.484   0.816 -0.0686  1.9659  0.3313
20273SOL    HW262497   6.633   3.428   0.698  1.3311 -0.6036  0.5927
20274SOL     OW62498   0.822   1.806   1.013  0.0114  0.5824 -0.1071
20274SOL    HW162499   0.852   1.717   0.998 -0.3303  0.4802 -0.1976
20274SOL    HW262500   0.736   1.796   1.055  0.9423  0.8660  1.9044
20275SOL     OW62501   5.482   5.549   4.114 -0.4263  0.3685  0.8493
20275SOL    HW162502   5.549   5.497   4.070 -0.1595  0.3044  1.3319
20275SOL    HW262503   5.515   5.638   4.112 -0.9497  0.5503 -0.1042
20276SOL     OW62504   8.863   4.678   4.847  0.1423  0.2002 -0.4544
20276SOL    HW162505   8.921   4.605   4.869 -2.1557 -1.0388  1.6909
20276SOL    HW262506   8.911   4.756   4.875  1.0881 -0.7538  0.6003
20277SOL     OW62507   2.827   0.745   5.453  0.3650  0.3605 -0.9712
20277SOL    HW162508   2.804   0.655   5.427  2.7341 -0.5929  0.0863
20277SOL    HW262509   2.812   0.797   5.374 -0.4095 -1.0848 -1.7990
20278SOL     OW62510   7.584   4.931   6.228  0.0555 -0.1647 -0.6115
20278SOL    HW162511   7.656   4.993   6.238 -1.4002  1.1421  2.1895
20278SOL    HW262512   7.516   4.980   6.181 -1.0202  0.3683  1.4293
20279SOL     OW62513   4.523   2.495   8.968 -0.1120 -0.2193  0.0379
20279SOL    HW162514   4.474   2.513   9.048 -0.2910 -0.1658 -0.0835
20279SOL    HW262515   4.502   2.568   8.909 -0.3414 -0.4892 -0.2201
20280SOL     OW62516   1.881   5.678   1.384  0.5284  0.2137 -0.0380
20280SOL    HW162517   1.792   5.703   1.409  1.6057  3.3276  0.9117
20280SOL    HW262518   1.918   5.640   1.463  1.3121  2.6182  0.7800
20281SOL     OW62519   3.923   6.824   4.763  0.2441  0.2923  0.0349
20281SOL    HW162520   3.968   6.762   4.706 -0.8584 -0.1885 -0.3303
20281SOL    HW262521   3.904   6.900   4.707 -0.2284  0.1073 -0.0533
20282SOL     OW62522   8.298   1.500   6.959 -0.4010 -0.2142 -0.3737
20282SOL    HW162523   8.301   1.484   7.053  0.5364 -0.5757 -0.4579
20282SOL    HW262524   8.287   1.413   6.920 -0.4889 -0.1005 -0.6061
20283SOL     OW62525   7.821   2.617   7.472 -0.4591  0.1091 -0.1570
20283SOL    HW162526   7.742   2.638   7.521 -1.9792 -2.2314 -1.5115
20283SOL    HW262527   7.791   2.561   7.400  2.4446 -1.0818 -0.5259
20284SOL     OW62528   3.009   0.985   8.425 -0.5737  0.1141 -0.1027
20284SOL    HW162529   2.995   0.904   8.377 -1.4192 -0.9040  1.8362
20284SOL    HW262530   3.012   0.959   8.517  0.1259  2.1476  0.4814
20285SOL     OW62531   5.701   3.619   1.536 -0.5923 -0.3133 -0.2852
20285SOL    HW162532   5.779   3.672   1.554 -1.1149  1.1099 -2.0202
20285SOL    HW262533   5.630   3.683   1.531 -1.5011 -1.3607 -0.8214
20286SOL     OW62534   5.352   3.637   1.876 -0.3299  0.8485  0.5467
20286SOL    HW162535   5.291   3.704   1.846 -1.0905  0.5453  1.4160
20286SOL    HW262536   5.315   3.604   1.957 -1.6004 -2.7899 -1.3767
20287SOL     OW62537   7.915   7.221   4.067  0.2497  0.6743  0.5325
20287SOL    HW162538   7.845   7.171   4.026  1.2211  0.4809 -0.9340
20287SOL    HW262539   7.969   7.155   4.111  0.3216  0.6667  0.4321
20288SOL     OW62540   0.767   2.426   0.351 -0.0865 -0.0563  0.2715
20288SOL    HW162541   0.710   2.503   0.353 -1.2447 -0.9144  1.0968
20288SOL    HW262542   0.756   2.386   0.437  1.2500 -0.6139  0.1909
20289SOL     OW62543   6.047   7.220   2.318 -0.4809 -0.0859  0.2188
20289SOL    HW162544   5.973   7.280   2.322  0.5114  1.1554  0.4102
20289SOL    HW262545   6.079   7.214   2.408  0.3188  0.2547 -0.0354
20290SOL     OW62546   8.401   5.532   5.562 -0.2647 -0.0586 -0.2234
20290SOL    HW162547   8.343   5.474   5.611 -0.4011  0.7166  0.5503
20290SOL    HW262548   8.357   5.545   5.478 -1.4138  0.8363  0.4994
20291SOL     OW62549   3.128   0.906   5.606 -0.1975 -0.0936  0.4445
20291SOL    HW162550   3.129   0.812   5.586  0.4784 -0.1142  0.5788
20291SOL    HW262551   3.185   0.915   5.682 -1.1474  0.2761  1.1185
20292SOL     OW62552   4.307   0.566   3.081  0.3963  0.2651 -0.4035
20292SOL    HW162553   4.402   0.570   3.069  0.5611 -0.7376  0.5077
20292SOL    HW262554   4.271   0.620   3.010  1.5587 -1.0683 -2.0532
20293SOL     OW62555   5.252   3.615   1.552 -0.4269 -0.1866  0.1249
20293SOL    HW162556   5.278   3.635   1.642  0.2363 -1.7201  0.2870
20293SOL    HW262557   5.271   3.695   1.503  3.6739 -0.8704  0.4364
20294SOL     OW62558   0.383   8.958   8.351 -0.3158  0.1277  0.0583
20294SOL    HW162559   0.347   9.024   8.411 -3.1793 -2.4734  1.3334
20294SOL    HW262560   0.368   8.995   8.264 -1.2087  1.4691  0.7527
20295SOL     OW62561   5.349   8.499   3.111  0.8491 -0.1983 -0.4632
20295SOL    HW162562   5.292   8.553   3.165  2.6624 -0.6099  1.9202
20295SOL    HW262563   5.305   8.414   3.107  0.5343 -0.0645  0.0695
20296SOL     OW62564   2.547   3.973   2.419  0.7200  0.2206  0.4748
20296SOL    HW162565   2.528   3.892   2.371 -0.7332  1.4128 -1.0462
20296SOL    HW262566   2.609   3.947   2.487  1.8089 -1.7869 -1.2319
20297SOL     OW62567   9.020   8.352   7.132  0.5207 -0.3545 -0.3096
20297SOL    HW162568   9.091   8.288   7.133  1.0366  0.2061 -0.4795
20297SOL    HW262569   9.029   8.397   7.047 -1.0612 -1.4129 -1.0678
20298SOL     OW62570   8.259   2.050   5.078 -0.1537  0.6130 -0.3193
20298SOL    HW162571   8.272   1.961   5.047  0.4681  0.2863  0.8855
20298SOL    HW262572   8.222   2.040   5.166  1.1051  1.5314  0.3275
20299SOL     OW62573   1.655   7.931   9.004 -0.2788 -0.8719 -0.5136
20299SOL    HW162574   1.584   7.899   9.059 -0.7342 -0.8313 -1.0729
20299SOL    HW262575   1.615   8.001   8.952  0.5897  0.2899  0.3602
20300SOL     OW62576   7.162   3.283   1.349  0.3731 -0.2623 -0.1312
20300SOL    HW162577   7.197   3.268   1.437  1.2117  1.3186 -0.1734
20300SOL    HW262578   7.071   3.310   1.364 -0.5830 -3.4169  0.0332
20301SOL     OW62579   7.546   7.907   2.607  0.7770 -0.1933  0.5511
20301SOL    HW162580   7.483   7.835   2.608  0.3300  0.2020  0.7429
20301SOL    HW262581   7.623   7.870   2.562 -0.0452 -0.2898 -0.8043
20302SOL     OW62582   3.126   8.126   8.738  0.4863  0.4097  0.6238
20302SOL    HW162583   3.103   8.036   8.762  1.0970  0.3566  1.0179
20302SOL    HW262584   3.151   8.120   8.646  0.2817  0.2200  0.5787
20303SOL     OW62585   5.604   5.001   5.624 -0.1995 -0.6198  0.2638
20303SOL    HW162586   5.643   4.918   5.596  1.8020 -0.1028  1.4337
20303SOL    HW262587   5.533   4.976   5.684  1.7184 -1.4523  2.2421
20304SOL     OW62588   2.127   1.805   8.356  0.3869 -0.7602  0.0144
20304SOL    HW162589   2.114   1.711   8.345  0.8389 -1.0843  2.0374
20304SOL    HW262590   2.039   1.841   8.368  0.3048 -1.0992  0.4412
20305SOL     OW62591   0.973   8.581   4.144  0.4471  0.1910  0.7947
20305SOL    HW162592   0.958   8.671   4.172 -0.6725 -0.7268  3.2881
20305SOL    HW262593   1.031   8.544   4.211 -1.2928 -1.7076  1.3179
20306SOL     OW62594   5.526   7.265   1.373  0.1144 -0.2996 -0.3327
20306SOL    HW162595   5.475   7.186   1.354  0.7035 -0.8811  0.4157
20306SOL    HW262596   5.462   7.335   1.377 -0.4826 -0.8300 -0.5135
20307SOL     OW62597   4.344   8.156   5.408 -0.3226 -0.0834 -0.2902
20307SOL    HW162598   4.413   8.170   5.472 -0.2248 -1.1279 -0.1482
20307SOL    HW262599   4.293   8.237   5.409  0.6727  0.5440 -0.1255
20308SOL     OW62600   4.182   4.215   3.096  0.5374  0.0694  0.1077
20308SOL    HW162601   4.250   4.275   3.066  2.0558 -1.1546  1.0214
20308SOL    HW262602   4.166   4.238   3.187  0.2833 -0.1454  0.1209
20309SOL     OW62603   0.884   2.881   8.988 -0.3259  0.3439  0.3912
20309SOL    HW162604   0.843   2.936   8.921 -0.2818  1.2697  1.1113
20309SOL    HW262605   0.868   2.927   9.070  2.0875  0.7042  0.6976
20310SOL     OW62606   2.469   2.674   7.895  0.0040 -0.1138 -0.4234
20310SOL    HW162607   2.518   2.755   7.883 -1.2477  0.6915 -0.2050
20310SOL    HW262608   2.414   2.690   7.972 -3.3285  0.3855 -2.8098
20311SOL     OW62609   6.122   1.679   7.891  0.0939  0.0771 -0.0568
20311SOL    HW162610   6.199   1.727   7.859  1.3716 -1.1568  1.0875
20311SOL    HW262611   6.087   1.735   7.961 -0.1941  0.7679 -0.7531
20312SOL     OW62612   0.935   4.484   1.776 -0.4651 -0.5082  0.2157
20312SOL    HW162613   0.956   4.393   1.754 -0.9731 -0.5316 -0.1837
20312SOL    HW262614   0.841   4.482   1.797 -0.7460  0.1319 -0.9440
20313SOL     OW62615   8.118   0.263   7.558  0.1566 -0.2422  0.2989
20313SOL    HW162616   8.189   0.326   7.567  0.8293 -0.7616 -1.1337
20313SOL    HW262617   8.161   0.178   7.561 -0.4788 -0.5809 -0.0223
20314SOL     OW62618   7.401   4.313   8.289  0.4896  0.2346 -0.3482
20314SOL    HW162619   7.464   4.323   8.361  0.4610 -3.1360  0.1875
20314SOL    HW262620   7.323   4.278   8.331  0.0049 -0.4615 -1.8355
20315SOL     OW62621   4.272   4.317   1.065  0.0497  0.3400 -0.3504
20315SOL    HW162622   4.206   4.333   1.133 -1.1552  0.1116 -1.4401
20315SOL    HW262623   4.237   4.242   1.016  1.7853 -0.6343 -0.1278
20316SOL     OW62624   6.896   1.940   1.146 -0.0222  0.3344  0.3889
20316SOL    HW162625   6.834   1.885   1.195  3.2256 -3.6324  0.3645
20316SOL    HW262626   6.954   1.976   1.212  2.2259 -2.1804 -0.1463
20317SOL     OW62627   5.582   6.163   1.640  0.3870  0.2183 -0.0256
20317SOL    HW162628   5.610   6.236   1.695  2.1839 -0.9503  0.6542
20317SOL    HW262629   5.594   6.085   1.695 -1.1730 -0.6334 -0.8494
20318SOL     OW62630   7.539   7.587   4.692 -0.5550  0.1611  0.5860
20318SOL    HW162631   7.619   7.614   4.737  0.2454  1.4668 -1.5552
20318SOL    HW262632   7.469   7.630   4.740  0.3611  2.3098  0.0676
20319SOL     OW62633   6.133   6.568   8.749 -0.5479 -0.2177  0.0391
20319SOL    HW162634   6.066   6.504   8.775 -1.2436  0.7509  0.6690
20319SOL    HW262635   6.114   6.587   8.657  0.9440 -2.4656 -0.7739
20320SOL     OW62636   1.662   8.436   7.129  0.1100 -0.0753  0.5749
20320SOL    HW162637   1.636   8.453   7.038 -0.6483 -0.6879  0.6634
20320SOL    HW262638   1.624   8.508   7.178  0.1046 -0.0019  0.4633
20321SOL     OW62639   6.668   9.268   9.013  0.1832 -0.5806  0.1552
20321SOL    HW162640   6.596   9.284   8.952  0.0971 -0.7441  0.2122
20321SOL    HW262641   6.743   9.251   8.956  0.1886 -0.3503  0.0945
20322SOL     OW62642   3.120   8.136   0.551  0.3519 -0.5208 -0.7600
20322SOL    HW162643   3.207   8.165   0.526  0.2721 -1.0693 -1.6756
20322SOL    HW262644   3.132   8.096   0.637  0.6699  1.1071 -0.0197
20323SOL     OW62645   4.930   9.135   5.478 -0.2861 -0.0110 -0.0611
20323SOL    HW162646   4.926   9.105   5.569 -2.3602 -0.1668 -0.1936
20323SOL    HW262647   4.908   9.058   5.426 -2.5808  0.9164 -0.5274
20324SOL     OW62648   3.282   3.518   2.179  0.1866 -0.1306 -0.0797
20324SOL    HW162649   3.287   3.512   2.083 -0.7248  0.5214 -0.1788
20324SOL    HW262650   3.302   3.430   2.210  0.7101 -0.2884 -0.8647
20325SOL     OW62651   2.257   0.129   8.699  0.2311  0.0013  0.2350
20325SOL    HW162652   2.216   0.080   8.627 -0.2367  0.8641 -0.0848
20325SOL    HW262653   2.227   0.084   8.778 -1.2970  0.5852  0.0059
20326SOL     OW62654   5.033   2.086   7.437 -0.2444  0.3835  0.3968
20326SOL    HW162655   4.980   2.072   7.515 -2.2812  0.8131 -0.8552
20326SOL    HW262656   5.018   2.178   7.414  0.9453  0.4701 -0.0338
20327SOL     OW62657   6.348   3.897   3.904 -0.0450  0.2895  0.1200
20327SOL    HW162658   6.359   3.913   3.811  0.7588  1.0301  0.3302
20327SOL    HW262659   6.302   3.975   3.936  1.8734  1.1828  0.7648
20328SOL     OW62660   0.616   8.286   7.841 -0.3909 -0.4720 -0.0957
20328SOL    HW162661   0.582   8.204   7.805 -1.0819 -0.2382  0.0329
20328SOL    HW262662   0.621   8.271   7.935  1.1900 -0.9957 -0.2381
20329SOL     OW62663   1.736   4.107   6.447  0.4517  0.5663 -0.4472
20329SOL    HW162664   1.641   4.113   6.458  0.5529  1.4431 -0.0416
20329SOL    HW262665   1.770   4.098   6.535  0.9659  3.4899 -0.3136
20330SOL     OW62666   0.331   6.397   5.993 -0.5766 -0.1301 -0.1300
20330SOL    HW162667   0.370   6.316   6.025 -0.4368 -0.0482 -0.0900
20330SOL    HW262668   0.343   6.394   5.898 -2.4169 -1.1146 -0.3326
20331SOL     OW62669   8.777   7.982   0.467  0.2782 -0.0060 -0.5807
20331SOL    HW162670   8.712   8.012   0.402 -0.0109  0.1042 -0.2431
20331SOL    HW262671   8.861   8.009   0.431  0.0159  1.2279 -0.2698
20332SOL     OW62672   2.250   8.416   5.388 -0.0333  0.6968  0.2316
20332SOL    HW162673   2.261   8.323   5.367  0.8967  0.9596 -0.4770
20332SOL    HW262674   2.238   8.459   5.303  2.5751  1.6079  0.2550
20333SOL     OW62675   6.981   6.183   8.672 -0.7178 -0.3031  0.0035
20333SOL    HW162676   6.887   6.180   8.656 -0.8059  0.8439  0.2554
20333SOL    HW262677   7.008   6.091   8.673 -1.9716 -0.6766  0.7442
20334SOL     OW62678   4.481   1.051   4.032 -0.0662 -0.2763 -0.1442
20334SOL    HW162679   4.571   1.050   3.999  1.4030  2.4659  3.4586
20334SOL    HW262680   4.475   0.973   4.088  1.0006  0.8974  1.6798
20335SOL     OW62681   2.159   6.276   8.711  0.5988 -0.3081 -0.3495
20335SOL    HW162682   2.221   6.243   8.646  0.0675 -2.3831  0.1576
20335SOL    HW262683   2.151   6.369   8.691  0.8045 -0.8085 -2.9639
20336SOL     OW62684   3.974   2.104   3.950 -0.7871 -0.1608 -0.6620
20336SOL    HW162685   3.880   2.089   3.937 -0.4478 -1.9292 -1.1541
20336SOL    HW262686   4.008   2.021   3.983  0.6655  0.3795 -0.7343
20337SOL     OW62687   2.300   6.952   8.004 -0.2343  0.2342  0.3364
20337SOL    HW162688   2.228   6.901   8.040 -1.0661  0.4100 -1.0460
20337SOL    HW262689   2.273   7.043   8.012 -1.5506  0.1988 -2.9462
20338SOL     OW62690   4.151   8.442   8.922 -0.1775  0.2167 -0.6418
20338SOL    HW162691   4.055   8.435   8.927 -0.1123  0.1186  1.0532
20338SOL    HW262692   4.182   8.351   8.919 -0.1572  0.2618 -1.9551
20339SOL     OW62693   6.381   5.835   3.508 -0.9323  0.3488 -0.0219
20339SOL    HW162694   6.451   5.869   3.452 -1.6911  1.6760 -0.1872
20339SOL    HW262695   6.402   5.867   3.596 -0.5688 -0.4406  0.1785
20340SOL     OW62696   2.606   8.459   4.958 -0.2029 -0.9175 -0.0170
20340SOL    HW162697   2.575   8.369   4.943 -1.7631 -0.0615 -2.1095
20340SOL    HW262698   2.564   8.511   4.890  0.9375  1.3788  0.9722
20341SOL     OW62699   8.212   8.223   1.943  0.0200  0.4684  0.1983
20341SOL    HW162700   8.243   8.241   2.032 -2.1070  0.3164  1.0102
20341SOL    HW262701   8.141   8.160   1.956 -2.4459  2.8455 -1.3152
20342SOL     OW62702   5.825   8.328   0.668  0.9547 -0.2672 -0.0424
20342SOL    HW162703   5.819   8.264   0.739  0.9013 -1.4907 -1.1338
20342SOL    HW262704   5.915   8.361   0.673  0.6527  0.4270  1.2305
20343SOL     OW62705   2.795   5.669   2.119 -0.1457  0.0659  0.1417
20343SOL    HW162706   2.833   5.731   2.182 -0.5699 -0.2664  0.7210
20343SOL    HW262707   2.800   5.715   2.035  1.5133  0.0446  0.2040
20344SOL     OW62708   3.469   4.490   1.508  1.0513  0.7918 -0.0616
20344SOL    HW162709   3.425   4.546   1.572 -1.3542  0.2305 -1.1681
20344SOL    HW262710   3.549   4.461   1.552 -0.5764  0.3833  2.7348
20345SOL     OW62711   3.348   0.827   8.378 -0.1364  0.1272  0.0686
20345SOL    HW162712   3.375   0.916   8.399  0.7674  0.0546 -0.7473
20345SOL    HW262713   3.430   0.777   8.373 -0.6274 -0.7419  0.4573
20346SOL     OW62714   6.696   3.177   4.652  0.7452 -0.4797 -0.0396
20346SOL    HW162715   6.601   3.182   4.655  0.6142 -0.9613 -2.5368
20346SOL    HW262716   6.715   3.092   4.613  2.2245 -0.6501  1.0029
20347SOL     OW62717   6.768   3.445   4.303  0.1393 -0.5845 -0.2286
20347SOL    HW162718   6.687   3.487   4.276 -0.0136 -1.7657 -1.7107
20347SOL    HW262719   6.759   3.432   4.397 -1.5748 -1.0497 -0.4393
20348SOL     OW62720   4.524   1.073   0.242 -0.2870  0.0677 -0.0232
20348SOL    HW162721   4.463   1.016   0.196  0.1758  0.2025 -0.8235
20348SOL    HW262722   4.548   1.139   0.177 -2.5046  2.4987  1.5388
20349SOL     OW62723   4.456   7.007   0.081 -0.3742 -0.4683  0.1851
20349SOL    HW162724   4.545   6.974   0.095 -1.7106 -3.9893  1.0627
20349SOL    HW262725   4.433   6.977  -0.007 -1.7555 -2.2811  1.1326
20350SOL     OW62726   4.992   8.814   1.833  0.6594  0.3011  0.4187
20350SOL    HW162727   4.909   8.794   1.789  0.6838  0.2105  0.4150
20350SOL    HW262728   5.045   8.857   1.765 -0.6260  3.4880  1.3264
20351SOL     OW62729   3.029   3.380   3.610 -0.2999  0.6255  0.1388
20351SOL    HW162730   3.006   3.442   3.541 -2.0779  0.9267  0.9813
20351SOL    HW262731   2.987   3.415   3.688 -0.8881 -1.3603  0.7312
20352SOL     OW62732   2.391   4.463   8.990  0.2116  0.4419  0.4045
20352SOL    HW162733   2.311   4.422   8.957  0.3191  0.5143  0.0549
20352SOL    HW262734   2.360   4.541   9.035  0.3073  2.0995 -2.3093
20353SOL     OW62735   1.615   0.594   5.996 -0.7045  0.2645  0.3977
20353SOL    HW162736   1.621   0.681   5.956  1.8836 -1.2170 -2.7045
20353SOL    HW262737   1.525   0.565   5.976 -0.3934  0.7613 -1.9240
20354SOL     OW62738   2.927   4.677   8.961  0.5565  0.5299  0.0856
20354SOL    HW162739   2.955   4.623   8.887 -0.3555  0.1220  0.0315
20354SOL    HW262740   3.003   4.732   8.980  1.0600  0.1149 -0.6702
20355SOL     OW62741   7.564   9.053   2.842  0.2562  0.6731 -0.7291
20355SOL    HW162742   7.530   9.142   2.854 -0.9468  0.2204 -0.7709
20355SOL    HW262743   7.533   9.006   2.919 -1.6846 -0.4946 -2.2102
20356SOL     OW62744   2.086   7.490   0.905  0.3276  0.3274 -0.2301
20356SOL    HW162745   2.162   7.538   0.872  0.3556 -0.4871 -1.3620
20356SOL    HW262746   2.044   7.551   0.966  0.6838  1.5719 -1.2133
20357SOL     OW62747   7.377   4.563   8.180 -0.0338  0.1490 -0.4285
20357SOL    HW162748   7.367   4.473   8.211 -0.4037  0.0825 -0.7319
20357SOL    HW262749   7.442   4.557   8.109 -0.9651 -0.0764 -1.2781
20358SOL     OW62750   6.343   6.426   8.866  0.2966 -0.2302 -0.0109
20358SOL    HW162751   6.305   6.339   8.873  1.6398 -0.8597 -0.5386
20358SOL    HW262752   6.276   6.478   8.822  0.1445 -1.3899 -1.1641
20359SOL     OW62753   2.682   3.190   1.598 -0.2254 -0.4648  0.2914
20359SOL    HW162754   2.726   3.143   1.526  0.3158 -0.7387  0.7939
20359SOL    HW262755   2.748   3.253   1.628 -0.5945 -0.0751  0.2899
20360SOL     OW62756   6.490   6.834   0.380 -0.2362 -0.0478 -0.2339
20360SOL    HW162757   6.509   6.877   0.464 -0.3210  0.8275 -0.6525
20360SOL    HW262758   6.395   6.840   0.371 -0.0989  1.1236 -1.0431
20361SOL     OW62759   4.432   5.721   3.995  0.0627 -0.5891 -0.2322
20361SOL    HW162760   4.476   5.679   3.922 -0.7954 -0.2257 -0.9688
20361SOL    HW262761   4.350   5.754   3.958 -0.5625 -0.7607  0.9825
20362SOL     OW62762   1.032   3.362   6.399  0.1058  0.4280 -0.2495
20362SOL    HW162763   1.093   3.436   6.400  0.9082 -0.2306  1.7644
20362SOL    HW262764   1.066   3.302   6.465 -2.0326 -0.5467 -0.0021
20363SOL     OW62765   1.932   7.124   2.690  0.7038 -0.0434  0.4138
20363SOL    HW162766   1.999   7.121   2.622  1.6396 -0.3436  1.3335
20363SOL    HW262767   1.952   7.204   2.740 -0.0781  0.2679  0.2403
20364SOL     OW62768   4.403   8.507   1.840  0.5483  0.3458  1.1153
20364SOL    HW162769   4.346   8.541   1.771  1.8992 -1.0638 -0.7324
20364SOL    HW262770   4.343   8.481   1.910 -1.0052 -0.2920 -0.4209
20365SOL     OW62771   6.281   2.836   1.647 -0.1391  0.0147 -0.1266
20365SOL    HW162772   6.333   2.858   1.570 -0.0290  1.3022  0.2909
20365SOL    HW262773   6.326   2.760   1.685 -1.4979 -2.0734 -2.5344
20366SOL     OW62774   6.290   7.958   5.479  0.2198 -0.2715 -0.1766
20366SOL    HW162775   6.310   8.050   5.463  0.5676 -1.0103 -4.6936
20366SOL    HW262776   6.376   7.917   5.495  0.2557 -0.1360 -0.0170
20367SOL     OW62777   5.819   6.251   2.078 -0.1286 -0.4664 -0.5967
20367SOL    HW162778   5.883   6.319   2.095 -0.3133 -0.4266 -0.0481
20367SOL    HW262779   5.860   6.170   2.110 -0.2895 -0.4649 -0.3859
20368SOL     OW62780   8.285   8.329   4.943 -0.5325  0.3842  1.0012
20368SOL    HW162781   8.336   8.255   4.911  0.6138  0.9221  1.5786
20368SOL    HW262782   8.254   8.373   4.863 -1.7216 -1.0504  0.6614
20369SOL     OW62783   5.243   8.105   7.740  0.0855  0.0230  0.0745
20369SOL    HW162784   5.190   8.087   7.663 -0.0046 -1.2527  0.4269
20369SOL    HW262785   5.228   8.198   7.758 -0.3848  0.1753 -1.0668
20370SOL     OW62786   2.884   4.659   0.984 -0.6065  0.2286  0.0849
20370SOL    HW162787   2.876   4.664   0.889 -0.9923 -0.1536  0.0956
20370SOL    HW262788   2.960   4.714   1.005 -1.3583  1.4304 -0.3068
20371SOL     OW62789   4.537   6.260   4.794  0.6068 -0.2234  0.4794
20371SOL    HW162790   4.615   6.290   4.747  0.3065  2.2367  1.4372
20371SOL    HW262791   4.550   6.292   4.884 -0.4920 -1.6804  1.1702
20372SOL     OW62792   3.568   0.688   5.111 -0.3033 -0.1007 -0.0711
20372SOL    HW162793   3.587   0.782   5.102 -0.0698 -0.0851  0.5548
20372SOL    HW262794   3.620   0.646   5.043  1.8452 -0.0386  1.4852
20373SOL     OW62795   0.997   2.540   0.694 -0.0549  0.1969  0.1328
20373SOL    HW162796   0.996   2.455   0.650  1.4534  0.3423 -0.2135
20373SOL    HW262797   0.965   2.522   0.782  1.5489 -1.0020  0.5034
20374SOL     OW62798   1.769   0.887   7.028  0.2900  0.2376 -0.6129
20374SOL    HW162799   1.847   0.938   7.048 -0.3223  0.8528  0.2704
20374SOL    HW262800   1.702   0.952   7.008 -0.6079 -0.1657  0.9329
20375SOL     OW62801   4.537   0.865   3.693 -0.0704  0.6499 -0.3638
20375SOL    HW162802   4.477   0.811   3.641 -0.9205  2.5940 -1.4276
20375SOL    HW262803   4.543   0.819   3.777 -1.4941 -0.6200 -0.9359
20376SOL     OW62804   7.202   3.277   1.080 -0.1829  0.0021 -0.1438
20376SOL    HW162805   7.280   3.330   1.062  1.3096 -2.4022 -1.0347
20376SOL    HW262806   7.203   3.266   1.175  0.4460  0.1656 -0.1257
20377SOL     OW62807   3.351   8.933   3.415 -0.4735  0.3755  0.0280
20377SOL    HW162808   3.345   9.028   3.425  1.7325  0.7017 -1.3396
20377SOL    HW262809   3.437   8.918   3.376 -0.8323 -2.1897  0.0954
20378SOL     OW62810   6.888   9.169   3.228  0.0145 -0.3243 -0.3572
20378SOL    HW162811   6.825   9.236   3.199  0.5869  0.4595  0.1743
20378SOL    HW262812   6.879   9.098   3.164 -1.0852 -0.0298 -0.5435
20379SOL     OW62813   7.936   2.083   2.743 -0.2044 -0.1801 -0.1823
20379SOL    HW162814   7.965   2.174   2.752 -1.9633  0.3129  0.7653
20379SOL    HW262815   7.996   2.034   2.800 -0.8115  0.7505  1.3167
20380SOL     OW62816   3.030   6.745   1.135  0.5230 -0.1630 -0.2143
20380SOL    HW162817   2.997   6.813   1.193  2.3935  0.5677  0.0223
20380SOL    HW262818   2.957   6.725   1.077 -0.7198  0.5236  1.1025
20381SOL     OW62819   3.191   3.633   7.359  0.0466 -0.4238  0.3379
20381SOL    HW162820   3.164   3.543   7.373  0.8955 -0.8762 -0.8872
20381SOL    HW262821   3.215   3.665   7.446 -1.0848 -1.0970  0.9028
20382SOL     OW62822   3.611   2.675   8.285 -0.1624 -0.0785  0.0913
20382SOL    HW162823   3.617   2.581   8.271  0.7619  0.2930 -2.1917
20382SOL    HW262824   3.552   2.706   8.217  0.3573  1.1185  0.1721
20383SOL     OW62825   8.889   6.926   5.408 -0.1196 -0.3499 -0.0655
20383SOL    HW162826   8.811   6.962   5.365 -0.6782 -0.5366  0.7726
20383SOL    HW262827   8.857   6.848   5.453  0.6643 -0.7268 -0.1483
20384SOL     OW62828   7.850   5.082   3.642 -0.0968 -0.1269  0.4864
20384SOL    HW162829   7.761   5.098   3.610  0.6126  0.9667 -1.0293
20384SOL    HW262830   7.905   5.095   3.565  1.3389 -1.2064  1.3201
20385SOL     OW62831   4.377   5.836   3.029 -0.1529 -0.6199 -0.4744
20385SOL    HW162832   4.424   5.816   2.948 -0.1998 -0.1652 -0.6181
20385SOL    HW262833   4.285   5.834   3.004 -0.1251  0.7338 -0.7204
20386SOL     OW62834   7.194   1.451   3.769  0.1617 -0.2684 -0.1851
20386SOL    HW162835   7.112   1.482   3.730  0.5617 -1.1501 -1.7409
20386SOL    HW262836   7.224   1.525   3.822 -1.8378 -0.0767  0.7521
20387SOL     OW62837   8.153   5.935   0.838 -0.0348  0.2797  0.3556
20387SOL    HW162838   8.158   5.982   0.755 -0.5866  1.6859  1.0992
20387SOL    HW262839   8.149   6.004   0.905  0.4122 -0.8304  1.5473
20388SOL     OW62840   8.610   3.979   0.496  0.3382 -0.0224 -0.4680
20388SOL    HW162841   8.705   3.976   0.508  0.3275 -0.0778 -0.3985
20388SOL    HW262842   8.598   3.980   0.401  0.4490  1.2110 -0.4780
20389SOL     OW62843   0.295   1.059   3.153  0.3331 -0.5403 -0.5194
20389SOL    HW162844   0.294   1.026   3.243  1.0446 -0.0630 -0.3231
20389SOL    HW262845   0.384   1.043   3.123  0.3648  0.1611 -0.8083
20390SOL     OW62846   2.452   5.576   8.462 -0.1870 -0.7314  0.0171
20390SOL    HW162847   2.544   5.588   8.484 -0.1361 -1.2688  0.1178
20390SOL    HW262848   2.443   5.613   8.374  0.0006 -0.1689  0.2368
20391SOL     OW62849   3.160   2.215   6.476  0.2123  0.3126  0.1298
20391SOL    HW162850   3.130   2.298   6.512  2.1963  0.6429  1.0762
20391SOL    HW262851   3.104   2.149   6.518 -1.2029  1.1239 -0.4441
20392SOL     OW62852   3.230   8.257   6.374  0.4057  0.4733 -0.2783
20392SOL    HW162853   3.173   8.180   6.366  1.1605  0.0224 -1.4750
20392SOL    HW262854   3.171   8.332   6.361 -0.1442  0.0675 -0.1673
20393SOL     OW62855   4.661   4.621   5.061  0.0685  0.0116  0.1185
20393SOL    HW162856   4.622   4.594   4.977 -1.1377 -0.8222  0.9277
20393SOL    HW262857   4.677   4.715   5.050  0.9554 -0.2989 -1.4350
20394SOL     OW62858   7.657   4.006   1.018 -0.2530 -0.1589 -0.0557
20394SOL    HW162859   7.584   4.055   1.055 -0.3456 -1.4089  1.4883
20394SOL    HW262860   7.735   4.042   1.060  0.0867  1.3465 -1.8873
20395SOL     OW62861   6.632   2.999   3.859  0.0167 -0.0006  0.4485
20395SOL    HW162862   6.684   2.943   3.801  0.6605  0.5264  0.5135
20395SOL    HW262863   6.697   3.055   3.903 -0.4771 -0.3150  1.5874
20396SOL     OW62864   5.317   0.844   2.201 -0.4685  0.3976  0.0330
20396SOL    HW162865   5.336   0.925   2.248 -1.3687  0.7234 -0.1455
20396SOL    HW262866   5.349   0.859   2.112  4.2970 -1.4362  1.2820
20397SOL     OW62867   3.615   7.188   4.535  0.4119 -0.8726 -0.2446
20397SOL    HW162868   3.593   7.276   4.566 -0.5170 -1.5501  1.0357
20397SOL    HW262869   3.613   7.196   4.439 -1.2181  0.1270 -0.1537
20398SOL     OW62870   3.707   7.702   0.230 -0.2660  0.8834  0.3873
20398SOL    HW162871   3.721   7.757   0.306  3.6240  0.4502  0.1046
20398SOL    HW262872   3.690   7.615   0.266 -1.8700  1.3416  0.7696
20399SOL     OW62873   6.371   6.410   1.317  0.3042  0.0279 -0.3426
20399SOL    HW162874   6.380   6.315   1.316  1.9079  0.1541  0.5492
20399SOL    HW262875   6.460   6.443   1.318 -0.2375  1.5850 -1.9817
20400SOL     OW62876   4.300   8.610   5.462  0.4430  0.6659 -0.1095
20400SOL    HW162877   4.342   8.673   5.520 -0.2459  0.8490  0.1929
20400SOL    HW262878   4.229   8.659   5.420 -0.8903 -0.2341  1.0524
20401SOL     OW62879   7.309   9.167   8.091  0.3087 -0.8273  0.1994
20401SOL    HW162880   7.264   9.201   8.168  1.8954  1.3303  0.2449
20401SOL    HW262881   7.399   9.197   8.102  1.1580 -2.7961 -1.1825
20402SOL     OW62882   8.352   4.200   2.597  0.3298 -0.1111  0.5178
20402SOL    HW162883   8.435   4.247   2.608 -0.8119  1.9377  0.7184
20402SOL    HW262884   8.355   4.129   2.661  1.9358 -0.0853  0.4825
20403SOL     OW62885   3.223   8.738   3.585  0.3892 -0.5888  0.2204
20403SOL    HW162886   3.149   8.776   3.632  1.4986 -0.3125  1.7796
20403SOL    HW262887   3.252   8.808   3.526 -1.9367 -1.4398 -2.0058
20404SOL     OW62888   0.480   2.185   4.296  0.1982  0.3714  0.7280
20404SOL    HW162889   0.455   2.155   4.209 -2.6707 -0.3219  1.7454
20404SOL    HW262890   0.516   2.272   4.282 -1.1282  0.6642 -1.0370
20405SOL     OW62891   0.083   1.304   1.693  0.1849 -0.2674  0.1813
20405SOL    HW162892   0.146   1.240   1.661 -0.1299 -0.3779 -0.2236
20405SOL    HW262893   0.033   1.329   1.616  1.5660  1.9237 -0.0483
20406SOL     OW62894   1.103   8.508   5.128  0.0540  0.2717  0.6201
20406SOL    HW162895   1.108   8.418   5.096  0.6322  1.0769 -1.6051
20406SOL    HW262896   1.054   8.501   5.210  1.3725 -2.2566  1.2287
20407SOL     OW62897   4.207   6.964   8.427  0.0811 -0.6395  0.2353
20407SOL    HW162898   4.199   7.059   8.439  0.2346 -0.7842  1.5559
20407SOL    HW262899   4.288   6.954   8.377  0.0850 -0.0777  0.1174
20408SOL     OW62900   2.138   7.764   0.278 -0.1523 -0.2715 -0.4643
20408SOL    HW162901   2.070   7.730   0.336 -0.4183  0.1304 -0.5420
20408SOL    HW262902   2.115   7.731   0.192  0.1641 -0.7508 -0.3635
20409SOL     OW62903   9.095   2.657   1.752 -0.3267 -0.3859 -0.2517
20409SOL    HW162904   9.089   2.669   1.658  1.0002 -2.3600 -0.6142
20409SOL    HW262905   9.045   2.577   1.769  0.3595 -0.6533  0.5580
20410SOL     OW62906   0.691   8.508   6.635 -0.0276  0.1763 -0.3893
20410SOL    HW162907   0.739   8.427   6.653  0.5961  0.4930 -0.6103
20410SOL    HW262908   0.739   8.576   6.682 -0.3025  0.4868 -0.5488
20411SOL     OW62909   4.129   8.137   7.708 -0.6549 -0.2328  0.2457
20411SOL    HW162910   4.099   8.192   7.780 -1.3863 -1.5708  0.9841
20411SOL    HW262911   4.115   8.190   7.629 -1.3153  0.6437  0.9491
20412SOL     OW62912   5.761   5.780   6.137 -0.2318 -0.4721  0.1143
20412SOL    HW162913   5.695   5.724   6.097  2.0207 -2.8033 -0.4162
20412SOL    HW262914   5.751   5.767   6.231 -0.8303 -0.4234  0.0595
20413SOL     OW62915   2.767   8.956   2.151 -0.2005  0.0050 -0.2134
20413SOL    HW162916   2.818   8.906   2.087  0.3185  0.4698 -0.1616
20413SOL    HW262917   2.691   8.987   2.103 -1.3785 -2.2154  0.1518
20414SOL     OW62918   6.242   4.788   3.500 -0.2010  0.8438  0.0118
20414SOL    HW162919   6.152   4.767   3.474  0.0107  1.2030 -1.0317
20414SOL    HW262920   6.259   4.873   3.461  1.3220 -0.1699 -1.6287
20415SOL     OW62921   2.476   8.467   5.866  0.1944  0.1907 -0.0747
20415SOL    HW162922   2.408   8.534   5.870  0.9349  1.0300 -1.2414
20415SOL    HW262923   2.499   8.450   5.958 -0.5098  1.0068  0.2544
20416SOL     OW62924   6.672   6.495   1.288  0.2016  0.3242  0.3152
20416SOL    HW162925   6.738   6.455   1.232 -2.6849 -3.3433 -0.6628
20416SOL    HW262926   6.682   6.449   1.372 -1.2413 -0.4331  0.0782
20417SOL     OW62927   8.225   8.905   8.663  0.1998  0.1038  0.0007
20417SOL    HW162928   8.136   8.925   8.691  0.2299 -1.4909  1.2402
20417SOL    HW262929   8.277   8.980   8.694 -0.6651  0.9947 -0.6535
20418SOL     OW62930   3.692   4.921   7.159  1.1113  0.2176  0.0848
20418SOL    HW162931   3.656   5.006   7.137  0.4139 -0.2674 -0.6718
20418SOL    HW262932   3.617   4.862   7.161  1.7637 -0.6661 -0.8337
20419SOL     OW62933   5.289   5.736   3.888 -0.3318  0.0183  0.0920
20419SOL    HW162934   5.270   5.757   3.796  1.3325 -0.4090 -0.3808
20419SOL    HW262935   5.284   5.820   3.933  1.7861  0.7694 -0.9621
20420SOL     OW62936   6.070   1.193   8.603  0.1185 -0.2583 -0.4330
20420SOL    HW162937   6.053   1.120   8.544 -0.0493  1.0738 -2.0719
20420SOL    HW262938   6.164   1.209   8.595 -0.1395  0.8542 -1.4921
20421SOL     OW62939   7.543   0.487   7.363 -0.4891 -0.3400 -0.3475
20421SOL    HW162940   7.509   0.573   7.339 -1.2004 -0.7660 -0.8560
20421SOL    HW262941   7.634   0.504   7.389 -0.9921  0.7414  0.7155
20422SOL     OW62942   3.356   7.553   1.895  0.2933 -0.4054 -0.5950
20422SOL    HW162943   3.351   7.648   1.905  0.1129 -0.1944 -2.4676
20422SOL    HW262944   3.267   7.522   1.911  0.7185 -0.4866  1.8493
20423SOL     OW62945   6.092   0.901   3.258  0.2849  0.2384  0.0747
20423SOL    HW162946   6.070   0.971   3.320  1.6417  1.5401 -0.8708
20423SOL    HW262947   6.081   0.941   3.172 -1.6131 -1.5717 -0.5488
20424SOL     OW62948   6.599   4.603   7.839  0.0339  0.1438 -0.2890
20424SOL    HW162949   6.540   4.647   7.900 -0.1334  0.4484 -0.6733
20424SOL    HW262950   6.555   4.520   7.818  0.0841  0.0459 -0.0094
20425SOL     OW62951   1.941   5.342   5.885  0.4240  0.5942  0.3384
20425SOL    HW162952   1.866   5.335   5.944  0.9523 -0.8164  0.8570
20425SOL    HW262953   1.975   5.253   5.878  0.1675  0.6634 -2.3888
20426SOL     OW62954   7.458   5.690   5.220 -0.0684  0.5743 -0.5125
20426SOL    HW162955   7.477   5.701   5.313  1.6005  0.3058 -0.8127
20426SOL    HW262956   7.383   5.630   5.218  0.9548 -0.7604  0.6035
20427SOL     OW62957   2.910   2.703   3.843 -0.2406 -0.1221 -0.3712
20427SOL    HW162958   2.944   2.615   3.828  0.8955  0.2431  0.0794
20427SOL    HW262959   2.938   2.753   3.766  1.0338  0.4026  0.4127
20428SOL     OW62960   3.908   4.709   3.062  0.2679  0.5196  0.3789
20428SOL    HW162961   3.937   4.632   3.012  0.2792  0.7787 -0.0196
20428SOL    HW262962   3.988   4.740   3.106  0.4936  0.9314 -0.3122
20429SOL     OW62963   6.878   4.181   6.120  0.8546 -0.3133 -0.0300
20429SOL    HW162964   6.807   4.170   6.056  0.5080  0.9501  0.1154
20429SOL    HW262965   6.948   4.222   6.070  0.4951  0.8936  0.4512
20430SOL     OW62966   4.839   0.455   5.000  0.0882 -0.8855  0.0494
20430SOL    HW162967   4.870   0.519   4.937  1.4358  0.9446  2.4514
20430SOL    HW262968   4.750   0.483   5.023  0.6277  0.1118  0.9987
20431SOL     OW62969   7.947   0.045   3.722 -0.1008 -0.4687  0.1821
20431SOL    HW162970   7.929   0.074   3.811 -1.3608 -0.1280 -0.1747
20431SOL    HW262971   7.993   0.118   3.681  1.0690 -0.8823  0.7450
20432SOL     OW62972   2.356   8.334   6.751  0.3415 -0.1001 -0.4791
20432SOL    HW162973   2.358   8.350   6.657 -1.5366 -0.5118 -0.6030
20432SOL    HW262974   2.301   8.256   6.762  1.2766 -0.5943  0.8886
20433SOL     OW62975   4.105   1.159   1.915  0.1780  0.3664  0.4571
20433SOL    HW162976   4.088   1.135   1.824 -1.4912  0.5844  0.6947
20433SOL    HW262977   4.194   1.127   1.932 -0.0041 -0.8815 -0.8419
20434SOL     OW62978   4.175   0.107   2.858 -0.0023  0.2560 -0.6971
20434SOL    HW162979   4.233   0.175   2.824 -0.2691  1.2381  0.7723
20434SOL    HW262980   4.106   0.154   2.904 -0.4787 -0.9920 -0.1031
20435SOL     OW62981   6.609   7.456   2.157  0.1238  0.6108 -0.2132
20435SOL    HW162982   6.687   7.427   2.110 -0.0070 -0.7517  0.3608
20435SOL    HW262983   6.641   7.521   2.220  0.5216  1.3246 -1.1487
20436SOL     OW62984   3.077   7.598   5.514  0.2314 -0.1347  0.1595
20436SOL    HW162985   3.059   7.546   5.436 -0.9025 -2.0786  1.6570
20436SOL    HW262986   3.011   7.668   5.512 -0.6069 -0.9105 -0.0011
20437SOL     OW62987   3.641   5.741   3.376 -0.0282 -0.0614  0.5956
20437SOL    HW162988   3.586   5.808   3.335 -1.7474 -2.2976 -0.9026
20437SOL    HW262989   3.583   5.696   3.438  0.5557 -1.3602  0.2269
20438SOL     OW62990   4.280   1.748   3.844 -0.0439  0.2000  0.5598
20438SOL    HW162991   4.253   1.657   3.829 -0.8698  0.9104 -2.6622
20438SOL    HW262992   4.367   1.753   3.806 -0.7594  1.1869 -1.0126
20439SOL     OW62993   4.370   2.086   8.618 -0.1124  0.1596 -0.1442
20439SOL    HW162994   4.294   2.038   8.650  0.1542 -0.1387  0.0452
20439SOL    HW262995   4.369   2.169   8.667  0.5627 -0.4967  0.9930
20440SOL     OW62996   4.997   8.198   0.434 -0.2214 -0.3573 -0.2663
20440SOL    HW162997   5.003   8.293   0.432  2.8304 -0.4915 -0.8292
20440SOL    HW262998   4.928   8.179   0.498  0.0238  2.1992  0.8177
20441SOL     OW62999   8.215   0.002   7.612 -0.1963 -0.0294  0.2674
20441SOL    HW163000   8.216  -0.042   7.697  3.1157 -0.1801  0.2307
20441SOL    HW263001   8.246  -0.065   7.551  1.2050  1.2303 -0.4188
20442SOL     OW63002   5.755   6.445   1.458 -0.2956 -0.5754 -0.2735
20442SOL    HW163003   5.825   6.492   1.412 -0.2131 -0.6206 -0.1950
20442SOL    HW263004   5.787   6.437   1.548 -1.0067  0.6309  0.1092
20443SOL     OW63005   8.793   9.189   5.446 -0.1045 -0.5223  0.0716
20443SOL    HW163006   8.786   9.098   5.417 -0.0569 -0.8076  0.9623
20443SOL    HW263007   8.766   9.188   5.538  0.6739  0.2357  0.3198
20444SOL     OW63008   0.830   2.768   0.205 -0.1526  0.0791  0.4667
20444SOL    HW163009   0.905   2.740   0.257 -0.9676 -1.8036  0.6358
20444SOL    HW263010   0.788   2.836   0.258  3.0392  3.3279 -0.8951
20445SOL     OW63011   9.285   2.561   4.022 -1.1322 -0.0022  0.0212
20445SOL    HW163012   9.322   2.473   4.031 -2.2657 -0.3222  1.7898
20445SOL    HW263013   9.358   2.620   4.043 -1.3226 -0.6164  2.6547
20446SOL     OW63014   3.261   7.896   5.012  0.6672  0.5099  0.2247
20446SOL    HW163015   3.209   7.897   4.932  0.9910 -0.6768 -0.0115
20446SOL    HW263016   3.339   7.948   4.992  0.6972  0.3006 -0.1939
20447SOL     OW63017   4.018   6.921   1.226 -0.3909 -0.0354 -0.1479
20447SOL    HW163018   4.041   7.013   1.232  1.1369 -0.4882  1.1970
20447SOL    HW263019   4.018   6.902   1.132 -1.0430  1.3954 -0.4422
20448SOL     OW63020   5.739   7.847   5.245  0.3644  0.1083 -0.0129
20448SOL    HW163021   5.746   7.940   5.221  0.5063 -0.0431 -0.5474
20448SOL    HW263022   5.812   7.805   5.200  2.2258  0.2577  2.7641
20449SOL     OW63023   0.739   3.489   0.560 -0.1733  0.1255  0.3108
20449SOL    HW163024   0.752   3.399   0.532  0.0090 -0.9201  3.5340
20449SOL    HW263025   0.803   3.540   0.510  0.4796 -1.6953 -0.7329
20450SOL     OW63026   5.111   4.762   2.096  0.8190  0.6639 -0.1406
20450SOL    HW163027   5.020   4.757   2.126  1.4230  1.8168  1.9538
20450SOL    HW263028   5.161   4.716   2.163  1.8653  0.6907 -0.8956
20451SOL     OW63029   7.245   1.115   7.023 -0.5883 -0.0420 -0.4547
20451SOL    HW163030   7.254   1.083   7.113 -1.3749 -0.4968 -0.5224
20451SOL    HW263031   7.179   1.184   7.029 -0.6296 -0.0622 -0.6727
20452SOL     OW63032   2.613   9.097   5.080  0.6848  0.0277  0.3507
20452SOL    HW163033   2.639   9.168   5.021  1.3274  0.1573  0.7882
20452SOL    HW263034   2.645   9.018   5.038  0.0920  0.0064 -0.0679
20453SOL     OW63035   1.513   3.585   7.381  0.0763  0.3392 -0.3857
20453SOL    HW163036   1.437   3.631   7.417 -1.2056 -1.5266 -0.6159
20453SOL    HW263037   1.530   3.513   7.442  0.1998 -0.6374 -1.5280
20454SOL     OW63038   4.517   8.507   7.284 -0.1872  0.2137 -0.3095
20454SOL    HW163039   4.544   8.500   7.193 -0.9299 -1.8200 -0.4103
20454SOL    HW263040   4.465   8.428   7.300  0.7719  0.0262  2.1487
20455SOL     OW63041   3.330   1.524   1.036  0.5963  0.3698  0.4506
20455SOL    HW163042   3.399   1.560   0.980  0.5558 -0.7782 -0.3427
20455SOL    HW263043   3.249   1.563   1.002  0.5690 -0.3474 -0.3143
20456SOL     OW63044   7.897   7.160   8.971  0.7031  0.2013 -0.3265
20456SOL    HW163045   7.985   7.162   9.009  0.4948  0.6984  0.1307
20456SOL    HW263046   7.841   7.202   9.036 -0.1975 -1.7782  0.2137
20457SOL     OW63047   8.781   4.662   6.521  0.7516 -0.6480  0.2245
20457SOL    HW163048   8.732   4.602   6.577  2.4620 -1.6916  0.6399
20457SOL    HW263049   8.826   4.721   6.582  0.6779 -0.2213 -0.1288
20458SOL     OW63050   9.232   2.819   0.527 -0.0517  0.3626 -0.3256
20458SOL    HW163051   9.246   2.913   0.523 -0.5948  0.4147 -1.2976
20458SOL    HW263052   9.317   2.781   0.506  0.6295  0.6161  1.8970
20459SOL     OW63053   0.309   7.792   0.024  0.1191 -0.3489 -0.4942
20459SOL    HW163054   0.220   7.819   0.002  0.0254 -1.9323 -2.1592
20459SOL    HW263055   0.297   7.715   0.080  0.4442 -1.1454 -1.5147
20460SOL     OW63056   2.728   0.629   0.491  0.0178  0.4920 -0.0921
20460SOL    HW163057   2.744   0.720   0.516 -0.2971  0.5249 -0.0098
20460SOL    HW263058   2.719   0.583   0.574 -0.6629  0.5362 -0.1348
20461SOL     OW63059   8.162   1.624   6.716 -0.2109  0.3119  0.1201
20461SOL    HW163060   8.218   1.575   6.655 -0.9498  1.4712 -1.5326
20461SOL    HW263061   8.180   1.585   6.802  2.6961  0.2582 -0.4496
20462SOL     OW63062   3.091   0.425   8.001  0.2086 -0.3564  0.2264
20462SOL    HW163063   3.091   0.415   7.906  0.0434 -0.1395  0.2035
20462SOL    HW263064   3.096   0.335   8.035  1.7186 -0.3617  0.0086
20463SOL     OW63065   2.149   1.516   5.157  0.2344 -0.2106  0.1913
20463SOL    HW163066   2.118   1.440   5.109 -0.5696 -0.0691  0.4779
20463SOL    HW263067   2.207   1.561   5.096  0.8702 -1.1546  0.0874
20464SOL     OW63068   3.571   4.661   7.550  0.2699  1.0354  0.0260
20464SOL    HW163069   3.625   4.736   7.578  0.4637  0.7211  0.4999
20464SOL    HW263070   3.620   4.623   7.477  0.2115  1.3207 -0.1649
20465SOL     OW63071   6.816   5.945   8.971  0.1259  0.1764 -1.0163
20465SOL    HW163072   6.823   5.850   8.982  0.1249  0.1721 -1.0509
20465SOL    HW263073   6.890   5.981   9.021  1.5083  0.0424 -2.9123
20466SOL     OW63074   1.957   8.745   6.693  0.2027  0.4166  0.5117
20466SOL    HW163075   1.959   8.649   6.695  0.5703  0.3828 -1.0464
20466SOL    HW263076   2.038   8.772   6.736  0.8345 -0.0025 -0.4038
20467SOL     OW63077   7.701   6.990   3.077  0.0667  0.1002 -0.3697
20467SOL    HW163078   7.675   7.025   3.163 -0.5441  1.2256 -1.0055
20467SOL    HW263079   7.775   7.044   3.051  0.1510 -0.1395 -0.6267
20468SOL     OW63080   9.103   2.899   6.353  0.0543  0.4176  0.7611
20468SOL    HW163081   9.091   2.867   6.264 -1.3587 -1.2303  1.5241
20468SOL    HW263082   9.186   2.861   6.381  0.1609  0.3788  0.3891
20469SOL     OW63083   2.621   3.631   1.474  0.6655  0.0792 -0.0130
20469SOL    HW163084   2.554   3.625   1.406  0.8578 -4.2728  0.0463
20469SOL    HW263085   2.704   3.634   1.425  0.6899 -0.8092 -0.0422
20470SOL     OW63086   7.404   4.311   3.824 -0.4550 -0.2151  0.3957
20470SOL    HW163087   7.347   4.347   3.757  0.3068  0.6687  0.2182
20470SOL    HW263088   7.479   4.370   3.828 -0.2392 -0.5368  1.6652
20471SOL     OW63089   9.036   6.420   1.354 -0.0241  0.0035  0.1984
20471SOL    HW163090   9.113   6.473   1.374  0.1989  0.0059 -0.6414
20471SOL    HW263091   8.970   6.483   1.326  0.3456 -0.1779 -1.1202
20472SOL     OW63092   6.615   7.157   3.850  0.0366  0.0461  0.0525
20472SOL    HW163093   6.531   7.159   3.804  0.0516  1.1491  0.0684
20472SOL    HW263094   6.591   7.140   3.941 -0.1471 -0.0040 -0.0052
20473SOL     OW63095   7.973   7.159   1.223 -0.1100  0.9668  0.1558
20473SOL    HW163096   8.068   7.147   1.224 -0.2112  0.0885  1.7430
20473SOL    HW263097   7.958   7.239   1.273 -0.1440  1.7009 -1.0175
20474SOL     OW63098   0.429   6.815   1.119  0.1930  0.0503 -0.4893
20474SOL    HW163099   0.488   6.846   1.051  1.2247  2.1359  1.3022
20474SOL    HW263100   0.486   6.791   1.192 -1.0083 -0.4343  0.3135
20475SOL     OW63101   5.296   3.833   0.096  0.6747  0.6657 -0.1671
20475SOL    HW163102   5.235   3.792   0.157 -0.4321  2.6732  0.1218
20475SOL    HW263103   5.368   3.771   0.089 -1.4358 -1.8208 -0.6173
20476SOL     OW63104   0.226   2.061   6.003 -0.0908 -0.1841 -0.1055
20476SOL    HW163105   0.263   2.018   6.080  0.3166 -0.5970 -0.5308
20476SOL    HW263106   0.293   2.125   5.978 -1.0869  1.3894  1.0873
20477SOL     OW63107   5.710   6.216   5.987  0.4759  0.3484 -0.1610
20477SOL    HW163108   5.694   6.216   5.893  0.5408 -2.9263 -0.2479
20477SOL    HW263109   5.674   6.299   6.019 -1.3081  0.6140 -2.7800
20478SOL     OW63110   4.606   5.654   8.606 -0.6040  0.3730 -0.7265
20478SOL    HW163111   4.536   5.698   8.656 -0.6828  1.4359 -1.7507
20478SOL    HW263112   4.682   5.711   8.617 -0.6971  0.7715 -2.0304
20479SOL     OW63113   7.738   3.739   2.115 -0.1492 -0.1555 -0.2938
20479SOL    HW163114   7.769   3.792   2.042  2.1841 -0.5887  0.3562
20479SOL    HW263115   7.715   3.655   2.076  2.3580 -0.8392 -0.3548
20480SOL     OW63116   8.108   0.830   1.654  0.5749 -0.2264  0.2701
20480SOL    HW163117   8.067   0.852   1.737  0.6067  0.5011  0.0944
20480SOL    HW263118   8.163   0.754   1.673  2.1511  1.1664  1.3600
20481SOL     OW63119   1.613   6.503   3.195  0.2355  0.6875 -0.3245
20481SOL    HW163120   1.593   6.562   3.267 -0.5636  2.5040 -1.9795
20481SOL    HW263121   1.575   6.419   3.221 -1.0185  1.6005  0.8547
20482SOL     OW63122   5.404   6.581   6.752 -0.4413  0.4424  0.3156
20482SOL    HW163123   5.433   6.598   6.662 -0.1815 -0.6047  0.1989
20482SOL    HW263124   5.400   6.486   6.759  0.1824  0.4956  1.6127
20483SOL     OW63125   9.067   6.400   4.627 -0.2123 -0.4413 -0.2143
20483SOL    HW163126   9.029   6.376   4.542 -0.4593 -3.5605  0.7057
20483SOL    HW263127   9.132   6.333   4.644 -0.4535 -0.1036  2.2490
20484SOL     OW63128   1.607   1.833   3.049  0.1816  0.7268  0.3052
20484SOL    HW163129   1.693   1.827   3.090 -0.1422  0.2663  0.9123
20484SOL    HW263130   1.551   1.775   3.100  0.2450 -1.4754 -2.0190
20485SOL     OW63131   4.980   0.205   6.824  0.1888 -0.4626 -0.5682
20485SOL    HW163132   4.959   0.233   6.913  2.0062  0.5472 -0.4359
20485SOL    HW263133   4.900   0.223   6.774 -1.3464 -2.4052  1.1415
20486SOL     OW63134   5.640   2.348   2.377 -0.1730 -0.4396 -0.4332
20486SOL    HW163135   5.551   2.332   2.344 -0.0154 -2.4252  0.0488
20486SOL    HW263136   5.690   2.374   2.299 -0.9004 -0.4794 -0.9163
20487SOL     OW63137   1.092   3.203   4.428 -0.0213 -0.0372  0.1443
20487SOL    HW163138   1.033   3.195   4.353 -1.0699 -1.4197  1.1017
20487SOL    HW263139   1.180   3.192   4.391 -0.3867  1.2201 -1.1612
20488SOL     OW63140   4.531   8.686   7.516  0.5229  0.2836 -0.1405
20488SOL    HW163141   4.470   8.676   7.589 -0.7938  0.8497 -1.1407
20488SOL    HW263142   4.515   8.610   7.460 -0.9133  1.5969 -1.5642
20489SOL     OW63143   2.548   9.198   1.314  0.3271  0.8965 -0.1437
20489SOL    HW163144   2.637   9.234   1.309  0.5613  0.3205 -0.1592
20489SOL    HW263145   2.550   9.122   1.256 -0.4544  1.4388 -0.9116
20490SOL     OW63146   2.083   4.224   4.006  0.6220 -0.6076  0.0982
20490SOL    HW163147   2.083   4.149   4.065 -0.1880 -0.2825  0.5148
20490SOL    HW263148   2.175   4.249   3.999  0.8672 -1.4704  0.1661
20491SOL     OW63149   0.221   4.332   6.015  0.1344  0.0846  0.2655
20491SOL    HW163150   0.249   4.335   6.107 -1.7500  0.8941  0.8357
20491SOL    HW263151   0.222   4.424   5.987  2.6465 -0.3323 -1.1621
20492SOL     OW63152   3.727   1.359   7.018 -0.0187  0.0290  0.1098
20492SOL    HW163153   3.748   1.339   7.109 -1.5878 -2.5143 -0.0489
20492SOL    HW263154   3.670   1.435   7.023  1.3229  0.9912  1.1179
20493SOL     OW63155   5.518   5.145   6.884  0.5410  0.6030 -0.0242
20493SOL    HW163156   5.514   5.195   6.802  1.4649 -0.9971 -1.0946
20493SOL    HW263157   5.429   5.147   6.918 -0.3177 -0.3103 -2.0804
20494SOL     OW63158   1.222   4.471   5.479 -0.1020  0.8917 -0.6208
20494SOL    HW163159   1.297   4.523   5.507 -1.4596  3.6388 -1.8857
20494SOL    HW263160   1.208   4.496   5.388 -2.0309 -0.2537 -0.6657
20495SOL     OW63161   1.966   6.095   3.769  0.3583  0.2889 -0.3085
20495SOL    HW163162   2.007   6.175   3.735 -2.4201  1.3102 -1.4297
20495SOL    HW263163   1.962   6.110   3.864  0.5740  1.1652 -0.4273
20496SOL     OW63164   0.760   3.603   6.851  0.3913 -0.1570  0.0009
20496SOL    HW163165   0.683   3.647   6.886  0.9748  0.3084  0.7000
20496SOL    HW263166   0.832   3.662   6.869  0.7100  0.1347 -2.0495
20497SOL     OW63167   5.066   0.119   5.938 -0.2943  0.2339  0.1572
20497SOL    HW163168   5.116   0.126   5.857  0.1913  0.9870  0.5215
20497SOL    HW263169   4.985   0.074   5.912  0.7618 -1.4055 -0.3385
20498SOL     OW63170   4.609   5.049   5.234  0.0076  0.1985  0.3189
20498SOL    HW163171   4.642   5.005   5.156  1.2753  0.5968  0.6166
20498SOL    HW263172   4.628   5.142   5.220 -1.6210  0.5320  0.1996
20499SOL     OW63173   8.428   2.426   4.902  0.4907 -0.4517  0.3822
20499SOL    HW163174   8.458   2.514   4.881  1.3337 -0.9551 -0.5555
20499SOL    HW263175   8.504   2.384   4.942  0.0970 -0.7578  0.8051
20500SOL     OW63176   5.928   5.215   3.839  0.0160  0.3040  0.7610
20500SOL    HW163177   5.984   5.152   3.793 -0.8979 -0.7421  1.0498
20500SOL    HW263178   5.981   5.294   3.845  1.3818 -0.5934  0.8262
20501SOL     OW63179   2.721   4.792   7.313  0.3149  0.4490 -0.3400
20501SOL    HW163180   2.672   4.764   7.390  1.1229 -0.0327  0.0105
20501SOL    HW263181   2.785   4.722   7.299  0.5481  0.8116 -1.1051
20502SOL     OW63182   8.567   2.226   7.807 -0.2565 -0.1966 -0.5339
20502SOL    HW163183   8.586   2.301   7.864  0.0817 -0.2070 -0.6297
20502SOL    HW263184   8.503   2.259   7.744  0.0431  0.0723 -0.7013
20503SOL     OW63185   3.727   4.825   4.912 -0.3076  0.8703 -0.0010
20503SOL    HW163186   3.764   4.835   5.000 -1.1899 -0.6413  0.5708
20503SOL    HW263187   3.800   4.792   4.859  0.0136  0.9905  0.3653
20504SOL     OW63188   1.745   7.549   7.539  0.5731 -0.1455  0.0364
20504SOL    HW163189   1.794   7.598   7.473  1.6605 -0.6465  0.4585
20504SOL    HW263190   1.732   7.463   7.500  2.4328 -0.8974  0.9991
20505SOL     OW63191   2.000   4.883   8.276 -0.1840  0.3313 -0.0112
20505SOL    HW163192   1.905   4.874   8.268  0.0686 -0.9444 -1.9908
20505SOL    HW263193   2.027   4.803   8.322 -0.1047  0.8709  0.8813
20506SOL     OW63194   5.631   8.218   6.673  0.8653  0.3549  0.1324
20506SOL    HW163195   5.574   8.208   6.750  1.9813  0.8981  1.0477
20506SOL    HW263196   5.601   8.298   6.631  1.0145  0.6990  0.6750
20507SOL     OW63197   8.642   4.987   7.040 -0.3077  0.0095  0.3663
20507SOL    HW163198   8.670   5.040   7.115  0.9209  0.5694 -0.4665
20507SOL    HW263199   8.588   5.047   6.988 -0.4348 -0.1105  0.3619
20508SOL     OW63200   4.443   4.815   4.572 -0.5801 -0.7452  0.3545
20508SOL    HW163201   4.444   4.744   4.507  2.6366 -0.4547 -0.0130
20508SOL    HW263202   4.528   4.859   4.560 -0.9495  0.8139  3.1434
20509SOL     OW63203   5.521   3.844   7.165  0.2482 -0.1624  0.0322
20509SOL    HW163204   5.608   3.853   7.126 -0.0197  1.6892 -0.2101
20509SOL    HW263205   5.461   3.842   7.090 -0.0750  0.8076  0.2634
20510SOL     OW63206   0.968   3.627   5.807 -0.3605  0.3614 -0.5005
20510SOL    HW163207   1.013   3.544   5.793  0.0706  0.5468 -0.2527
20510SOL    HW263208   1.037   3.686   5.838 -0.7416  0.7057 -0.3045
20511SOL     OW63209   7.913   1.636   0.762  0.0434  0.6261  0.5932
20511SOL    HW163210   7.888   1.726   0.781 -0.1158  0.5999  0.5087
20511SOL    HW263211   7.838   1.584   0.792 -0.8295  0.6851 -1.4374
20512SOL     OW63212   0.467   5.409   7.716 -0.2222 -0.2907 -0.1498
20512SOL    HW163213   0.557   5.377   7.707 -0.2812 -0.9282  1.3519
20512SOL    HW263214   0.446   5.396   7.809 -1.5283  0.7491 -0.2805
20513SOL     OW63215   0.516   0.179   0.017  0.1792  0.5957 -0.2090
20513SOL    HW163216   0.506   0.090  -0.017 -0.4896  0.5452  0.1034
20513SOL    HW263217   0.590   0.174   0.077  0.8764  0.5105 -1.0763
20514SOL     OW63218   1.626   4.183   7.097 -0.1660  0.1254  0.0430
20514SOL    HW163219   1.548   4.213   7.050 -0.2465  0.5791  0.4577
20514SOL    HW263220   1.600   4.184   7.189  0.1628 -0.2300  0.1405
20515SOL     OW63221   0.976   7.979   4.165  0.9920 -0.4716  0.1797
20515SOL    HW163222   0.970   7.981   4.261 -0.4947  0.0248  0.0907
20515SOL    HW263223   1.009   8.065   4.141 -0.5544  0.1268  0.1432
20516SOL     OW63224   8.735   4.365   5.742  0.1257 -0.1379  0.4654
20516SOL    HW163225   8.702   4.277   5.755  0.3812 -0.5044 -1.2314
20516SOL    HW263226   8.676   4.404   5.678 -0.8922  1.4660  2.3343
20517SOL     OW63227   2.913   2.277   2.506  0.5050 -0.1068 -0.2065
20517SOL    HW163228   2.872   2.332   2.573  0.3801 -0.8693  0.3537
20517SOL    HW263229   2.846   2.212   2.483  0.9329 -0.5467 -0.2430
20518SOL     OW63230   2.665   5.238   5.468 -0.2778  0.1573  0.5114
20518SOL    HW163231   2.588   5.236   5.525  0.0937  0.4894  1.0236
20518SOL    HW263232   2.691   5.331   5.466  0.1317  0.0404  0.3656
20519SOL     OW63233   5.710   6.663   6.262  0.0425 -0.2101 -0.4801
20519SOL    HW163234   5.681   6.711   6.185 -0.5552 -0.8530 -0.6595
20519SOL    HW263235   5.775   6.601   6.228  0.3339  0.0205 -0.3482
20520SOL     OW63236   0.382   0.545   7.718  0.3537 -0.0477  0.0492
20520SOL    HW163237   0.446   0.528   7.649  2.5511  0.8221  1.8151
20520SOL    HW263238   0.297   0.537   7.674  1.6572 -0.4776 -2.5116
20521SOL     OW63239   4.514   3.934   6.536  0.4727 -0.0841 -0.8239
20521SOL    HW163240   4.427   3.955   6.502 -0.3076 -1.1824  0.3873
20521SOL    HW263241   4.550   4.018   6.565 -0.5497  0.2745 -0.5602
20522SOL     OW63242   3.361   7.628   3.064  0.4700 -0.6948 -0.2559
20522SOL    HW163243   3.387   7.677   2.987  0.9575 -0.1020  0.2843
20522SOL    HW263244   3.303   7.559   3.030  0.5346 -0.3288 -1.1199
20523SOL     OW63245   8.725   5.547   8.894 -0.6216  0.6089  0.5389
20523SOL    HW163246   8.669   5.608   8.941 -1.6381 -0.3313  0.5660
20523SOL    HW263247   8.741   5.476   8.956 -1.1759 -0.1669 -0.1918
20524SOL     OW63248   5.877   4.209   7.198 -0.5201 -0.0102  0.3739
20524SOL    HW163249   5.930   4.133   7.172  0.9590  0.9561  0.4757
20524SOL    HW263250   5.808   4.172   7.252 -0.7650 -1.4730 -0.8859
20525SOL     OW63251   7.459   4.536   5.581  0.2293  0.3303  0.2590
20525SOL    HW163252   7.384   4.553   5.525 -0.1671 -0.1610  0.6408
20525SOL    HW263253   7.535   4.541   5.523 -0.1931 -0.3480 -0.3456
20526SOL     OW63254   5.407   2.824   7.414 -0.1757  0.2995  0.3898
20526SOL    HW163255   5.363   2.741   7.434 -1.9729  0.9152 -0.9230
20526SOL    HW263256   5.483   2.798   7.362 -0.0103 -0.6100  1.0561
20527SOL     OW63257   1.684   1.826   7.892  0.1214 -0.5282  0.2565
20527SOL    HW163258   1.777   1.811   7.876  0.1315 -0.6443  0.4211
20527SOL    HW263259   1.639   1.763   7.836  0.1611 -1.0624  0.8201
20528SOL     OW63260   4.219   3.712   5.932 -0.0799  0.1344 -0.2721
20528SOL    HW163261   4.133   3.679   5.956 -0.3720 -0.2195 -1.7720
20528SOL    HW263262   4.224   3.799   5.973 -0.4955 -0.5130  1.1657
20529SOL     OW63263   1.226   2.053   5.096 -0.0138  0.1568  0.1330
20529SOL    HW163264   1.175   2.121   5.141  0.3198  1.0565 -0.8236
20529SOL    HW263265   1.315   2.087   5.093  0.4895 -1.0490  1.0679
20530SOL     OW63266   2.333   0.508   0.952 -0.3218 -0.8093  0.7866
20530SOL    HW163267   2.349   0.592   0.910  1.3749 -0.5418  1.9026
20530SOL    HW263268   2.365   0.443   0.889  2.4257 -0.4032  1.7024
20531SOL     OW63269   0.081   3.055   7.241  0.7338  0.0244 -0.1730
20531SOL    HW163270   0.017   2.984   7.244  1.1806 -0.3317  1.0256
20531SOL    HW263271   0.164   3.011   7.220  1.1360  0.1077  1.2501
20532SOL     OW63272   1.790   0.167   3.482 -0.1544  0.7853 -0.0407
20532SOL    HW163273   1.730   0.178   3.408 -0.3109  1.6497  0.2057
20532SOL    HW263274   1.861   0.228   3.464 -0.1397  0.9144  0.4644
20533SOL     OW63275   4.933   0.212   4.220  0.0504  0.4051  0.6873
20533SOL    HW163276   4.893   0.293   4.253 -0.6019 -0.0685  1.0869
20533SOL    HW263277   4.876   0.143   4.254 -0.7638 -0.0888 -1.6234
20534SOL     OW63278   7.391   2.393   3.622  0.3729  0.3558  0.4275
20534SOL    HW163279   7.471   2.364   3.579  0.5017  1.4007 -0.0640
20534SOL    HW263280   7.340   2.436   3.552 -0.4542  0.0156  0.8108
20535SOL     OW63281   3.584   7.431   0.316 -0.2992 -0.3926 -0.1551
20535SOL    HW163282   3.555   7.340   0.321 -1.4490 -0.0408 -0.3226
20535SOL    HW263283   3.508   7.479   0.283  0.4645  0.5547 -0.5609
20536SOL     OW63284   2.832   3.232   3.219 -0.6293  0.5770 -0.3427
20536SOL    HW163285   2.837   3.212   3.126  0.3163  1.7417 -0.5554
20536SOL    HW263286   2.738   3.241   3.237 -0.7954  0.6788 -1.2450
20537SOL     OW63287   3.984   2.900   7.486  0.2204  0.4233  0.3815
20537SOL    HW163288   3.914   2.915   7.549 -1.9084  2.3930 -2.3348
20537SOL    HW263289   3.960   2.819   7.442  1.1425 -0.3857  1.3559
20538SOL     OW63290   3.361   3.290   8.978  0.3456  0.3118  0.6332
20538SOL    HW163291   3.393   3.336   8.900  1.5190  0.8123  1.4157
20538SOL    HW263292   3.400   3.203   8.973 -2.4523 -0.9373 -1.2354
20539SOL     OW63293   7.617   3.941   4.448 -0.0810 -1.0621  0.1021
20539SOL    HW163294   7.530   3.903   4.453 -0.3309 -0.8550 -2.1984
20539SOL    HW263295   7.671   3.873   4.406  0.5267 -0.6359  0.1789
20540SOL     OW63296   1.063   0.110   0.273 -0.5081  0.1017  0.0051
20540SOL    HW163297   1.062   0.172   0.200 -0.7814  1.4252  1.1076
20540SOL    HW263298   1.111   0.155   0.343  1.6777 -2.0185 -0.0632
20541SOL     OW63299   8.591   7.819   2.999  0.1412  0.0736  0.1281
20541SOL    HW163300   8.595   7.891   3.062  0.8015 -0.0949  0.2840
20541SOL    HW263301   8.615   7.741   3.049 -1.5865 -0.4296  0.2085
20542SOL     OW63302   6.734   0.938   5.612  0.0196  0.1043  0.5647
20542SOL    HW163303   6.671   0.870   5.589 -0.8392  1.0919 -0.0149
20542SOL    HW263304   6.721   1.007   5.548  1.3689  0.5330  0.7244
20543SOL     OW63305   0.513   0.591   8.426  0.1594  0.0093 -0.0880
20543SOL    HW163306   0.464   0.673   8.422 -0.4887 -0.2101  2.4067
20543SOL    HW263307   0.515   0.568   8.519  0.6039 -2.6325 -0.6831
20544SOL     OW63308   4.456   0.986   9.039  0.4283  0.2211  0.1291
20544SOL    HW163309   4.478   1.073   9.073  2.3028  0.3901 -1.3890
20544SOL    HW263310   4.362   0.977   9.053  0.3585  2.1597  1.0395
20545SOL     OW63311   6.561   1.193   3.937 -0.1052 -0.0839 -0.6890
20545SOL    HW163312   6.627   1.260   3.920 -1.4529  1.5286  0.3187
20545SOL    HW263313   6.599   1.139   4.007  0.5634  0.2348 -0.8049
20546SOL     OW63314   7.086   1.314   7.174 -0.0618 -0.3931 -0.6228
20546SOL    HW163315   7.085   1.277   7.263 -0.3382 -0.9044 -0.8377
20546SOL    HW263316   7.003   1.287   7.136 -1.1176  2.0478 -0.1388
20547SOL     OW63317   2.063   8.088   5.608 -0.0476  0.5328  0.2785
20547SOL    HW163318   2.070   8.053   5.697  1.1029  1.3308  0.5043
20547SOL    HW263319   2.045   8.181   5.620  1.2264  0.8638 -0.3122
20548SOL     OW63320   2.105   8.558   2.528  0.3230  0.0726 -0.4600
20548SOL    HW163321   2.085   8.484   2.585 -1.8332 -0.4366 -1.8300
20548SOL    HW263322   2.099   8.635   2.586  2.0214 -0.7523  0.8381
20549SOL     OW63323   1.556   7.502   8.363 -0.3478  0.3498  0.2892
20549SOL    HW163324   1.574   7.432   8.426 -0.8716 -0.3089 -0.2891
20549SOL    HW263325   1.538   7.579   8.417 -0.9011 -0.2362  0.9494
20550SOL     OW63326   5.029   2.622   9.285  0.4687  0.3657  0.5368
20550SOL    HW163327   5.007   2.567   9.359 -0.0304  1.3762  1.1503
20550SOL    HW263328   4.944   2.645   9.246  0.6414  1.0637  0.5595
20551SOL     OW63329   2.223   6.531   2.355 -0.2292  0.4744  0.3602
20551SOL    HW163330   2.255   6.615   2.325 -1.9343  0.3931 -1.7460
20551SOL    HW263331   2.243   6.470   2.284 -0.5289 -0.5682  1.1483
20552SOL     OW63332   0.004   2.120   4.790 -0.3345 -0.0635  0.4592
20552SOL    HW163333  -0.063   2.181   4.819 -0.8375  0.5334 -1.8736
20552SOL    HW263334  -0.001   2.122   4.695  3.0952  0.1054  0.2298
20553SOL     OW63335   2.110   7.439   7.005 -0.2779 -0.1616 -0.2541
20553SOL    HW163336   2.161   7.404   7.079  1.1920 -1.1794 -1.6885
20553SOL    HW263337   2.176   7.478   6.948 -1.1328 -1.1537 -1.9635
20554SOL     OW63338   6.334   6.953   2.648 -0.4620  0.5418 -0.1770
20554SOL    HW163339   6.368   7.031   2.603  0.6675  1.0686  1.5568
20554SOL    HW263340   6.410   6.917   2.694 -1.3212 -0.7234  0.2692
20555SOL     OW63341   7.515   3.726   9.084  0.1506  0.0650 -0.1117
20555SOL    HW163342   7.487   3.659   9.021  0.7166  1.0020 -1.3830
20555SOL    HW263343   7.594   3.691   9.124 -0.1829 -0.5138  0.0464
20556SOL     OW63344   8.237   8.263   5.933 -0.0193 -0.2233 -0.0004
20556SOL    HW163345   8.292   8.323   5.982  0.8145 -1.2260  0.2953
20556SOL    HW263346   8.296   8.220   5.871 -0.6679 -0.5130 -0.4312
20557SOL     OW63347   3.993   7.156   0.208  0.4114  0.0998  0.0737
20557SOL    HW163348   3.976   7.063   0.225  1.1453 -0.0482  0.0146
20557SOL    HW263349   4.064   7.155   0.144 -1.4172  0.6467 -2.0523
20558SOL     OW63350   1.011   8.171   3.832  0.0602 -0.1512  0.1968
20558SOL    HW163351   1.068   8.192   3.906  0.0345 -0.9952  0.4525
20558SOL    HW263352   0.929   8.216   3.852 -0.0585 -0.6646  0.8439
20559SOL     OW63353   6.806   8.336   5.449  0.0183  0.0355  0.2152
20559SOL    HW163354   6.873   8.275   5.477 -0.7971 -0.6809  0.6245
20559SOL    HW263355   6.818   8.343   5.354  0.9354  0.2386  0.3455
20560SOL     OW63356   8.543   5.034   8.789 -0.5183 -0.5911  0.3432
20560SOL    HW163357   8.547   5.018   8.695  1.5336 -1.2401  0.5313
20560SOL    HW263358   8.540   5.129   8.798  1.0863 -0.4808 -0.3125
20561SOL     OW63359   2.628   2.548   0.746 -0.1673  0.0217 -0.1316
20561SOL    HW163360   2.717   2.574   0.720 -0.3903  0.0494 -0.8726
20561SOL    HW263361   2.608   2.604   0.821  0.7798 -0.5970  0.6139
20562SOL     OW63362   5.020   9.221   7.524 -0.1850  0.2068 -1.2708
20562SOL    HW163363   5.042   9.284   7.456  0.3447 -0.0235 -1.3156
20562SOL    HW263364   5.001   9.273   7.601  0.7717  0.4019 -1.1598
20563SOL     OW63365   4.410   4.857   0.222  0.0095 -0.0635 -0.4296
20563SOL    HW163366   4.455   4.774   0.206  0.8528  0.5952 -1.5285
20563SOL    HW263367   4.352   4.867   0.146 -0.6945 -0.0339  0.1023
20564SOL     OW63368   6.498   3.522   7.827 -0.2761  0.8522  0.1558
20564SOL    HW163369   6.462   3.451   7.881 -0.8734 -0.4203 -1.8433
20564SOL    HW263370   6.593   3.512   7.835 -0.3617  0.2790  0.4895
20565SOL     OW63371   1.254   0.122   6.396  0.3722 -0.7883  0.0331
20565SOL    HW163372   1.314   0.115   6.321 -0.5453 -2.0087 -0.6018
20565SOL    HW263373   1.172   0.152   6.359  0.4603  0.5172  0.8544
20566SOL     OW63374   4.082   2.129   4.248  0.2278  0.2783 -0.4115
20566SOL    HW163375   4.015   2.061   4.261  0.0328  0.8317  1.6397
20566SOL    HW263376   4.135   2.096   4.176 -0.7192 -1.3828 -0.3884
20567SOL     OW63377   1.814   6.872   2.727  0.7015  0.1607 -0.5031
20567SOL    HW163378   1.872   6.803   2.694  1.3102  0.8565 -0.8977
20567SOL    HW263379   1.863   6.953   2.714  0.5556  0.5345  1.2459
20568SOL     OW63380   2.661   7.971   1.171  0.2981 -0.0401 -0.6320
20568SOL    HW163381   2.588   7.988   1.230  1.0719 -0.3879  0.4275
20568SOL    HW263382   2.669   7.876   1.169 -0.6518 -0.1240 -2.4590
20569SOL     OW63383   7.541   3.723   1.437 -0.3996 -0.1044 -0.1976
20569SOL    HW163384   7.454   3.720   1.396 -0.4236  0.4709 -0.1869
20569SOL    HW263385   7.602   3.711   1.365 -0.4329  1.1204 -0.4480
20570SOL     OW63386   1.229   8.562   1.137  0.7077 -0.4209 -0.4284
20570SOL    HW163387   1.250   8.470   1.153 -1.8893 -1.0455 -0.4952
20570SOL    HW263388   1.266   8.608   1.212  1.2279 -1.6083  0.0569
20571SOL     OW63389   5.280   7.240   5.970  0.1420 -0.0409 -1.0331
20571SOL    HW163390   5.356   7.191   5.940 -0.6393  0.0263 -3.2064
20571SOL    HW263391   5.308   7.331   5.968  0.0427 -0.0269 -1.6778
20572SOL     OW63392   7.805   1.319   5.787 -0.3677 -0.2022  0.4243
20572SOL    HW163393   7.766   1.350   5.869 -0.2425 -1.9697  1.1845
20572SOL    HW263394   7.783   1.387   5.723  0.6863  1.8619  2.1993
20573SOL     OW63395   3.372   1.604   6.001 -0.1664  0.6370 -0.3549
20573SOL    HW163396   3.459   1.621   6.035  0.4630  0.1129 -1.6998
20573SOL    HW263397   3.386   1.550   5.924 -1.7768 -1.0306  0.4739
20574SOL     OW63398   8.809   2.355   2.695 -0.2182 -0.2777 -0.1699
20574SOL    HW163399   8.716   2.356   2.715  0.2176 -1.3865  2.0800
20574SOL    HW263400   8.845   2.430   2.743 -0.0833  0.7847 -1.8744
20575SOL     OW63401   3.484   6.944   8.854 -0.4229 -0.0373 -0.0669
20575SOL    HW163402   3.429   6.988   8.919 -1.3219  0.9643 -1.4758
20575SOL    HW263403   3.426   6.882   8.810  0.0975 -0.4674 -0.1539
20576SOL     OW63404   9.157   1.581   6.500  0.6363 -0.0544  0.1908
20576SOL    HW163405   9.064   1.565   6.485  1.3673 -3.1606 -1.5609
20576SOL    HW263406   9.173   1.549   6.589  0.1398 -0.0973  0.2625
20577SOL     OW63407   3.299   0.979   6.355  0.1802 -0.2098  0.3868
20577SOL    HW163408   3.384   0.978   6.398  1.3613 -0.3227 -1.8539
20577SOL    HW263409   3.275   0.887   6.346 -0.1220 -0.1827  0.8950
20578SOL     OW63410   4.299   3.657   6.829  0.3369  0.0149 -0.2429
20578SOL    HW163411   4.314   3.595   6.757 -1.3879 -2.4232  1.4062
20578SOL    HW263412   4.216   3.699   6.807 -0.8923 -1.7137  0.9058
20579SOL     OW63413   3.836   1.348   4.608  0.0420 -0.2817 -0.3072
20579SOL    HW163414   3.826   1.259   4.573 -1.3193  0.4106 -1.7771
20579SOL    HW263415   3.802   1.343   4.697  1.1777 -1.5190  0.0681
20580SOL     OW63416   3.742   6.806   7.820  0.3660 -0.0624 -0.5295
20580SOL    HW163417   3.779   6.722   7.794  0.9324  0.2537 -0.7511
20580SOL    HW263418   3.713   6.847   7.738  0.1308 -0.0205 -0.4273
20581SOL     OW63419   0.699   7.237   7.809 -0.6167  0.2176 -0.2953
20581SOL    HW163420   0.766   7.174   7.835 -0.3121  1.3427  1.7547
20581SOL    HW263421   0.700   7.303   7.878 -2.6118  1.1873 -1.1494
20582SOL     OW63422   7.074   0.537   7.133 -0.0162 -0.2568  0.2397
20582SOL    HW163423   7.148   0.516   7.076  0.0623 -0.2278  0.3302
20582SOL    HW263424   7.096   0.622   7.170 -2.0068  1.7507 -2.9410
20583SOL     OW63425   3.565   7.147   4.242 -0.1062 -0.2626  0.3756
20583SOL    HW163426   3.603   7.091   4.174 -1.5635  0.0054 -0.6915
20583SOL    HW263427   3.527   7.221   4.194 -1.5047 -0.2717  1.4278
20584SOL     OW63428   9.256   6.326   8.467  0.2077  0.0147 -0.2026
20584SOL    HW163429   9.285   6.243   8.429 -0.8700 -0.0771 -0.8230
20584SOL    HW263430   9.260   6.388   8.395  0.5342  0.3956  0.1416
20585SOL     OW63431   5.356   1.208   4.177  0.1691  0.2000 -0.3091
20585SOL    HW163432   5.331   1.181   4.265  0.2519  0.2207 -0.2794
20585SOL    HW263433   5.441   1.250   4.187  0.9332 -1.2181 -0.6156
20586SOL     OW63434   6.588   1.905   3.022 -0.3048  0.6493  0.3960
20586SOL    HW163435   6.590   1.862   2.937  1.3371  2.4178 -0.5026
20586SOL    HW263436   6.531   1.981   3.010 -0.3999  0.6763  0.9937
20587SOL     OW63437   1.807   8.399   4.340  0.4908  0.6865  0.1953
20587SOL    HW163438   1.834   8.490   4.328 -1.9082  1.2662 -1.1108
20587SOL    HW263439   1.806   8.362   4.251  2.2300 -0.8614  0.7941
20588SOL     OW63440   0.324   8.366   7.250 -0.0925  0.0791  0.0216
20588SOL    HW163441   0.275   8.435   7.205 -2.3544 -1.7296 -0.4436
20588SOL    HW263442   0.377   8.325   7.181  1.0495  1.1677  0.2455
20589SOL     OW63443   0.572   1.554   3.612 -0.0772 -0.1758  0.0745
20589SOL    HW163444   0.558   1.545   3.517  0.8406 -0.2084 -0.0600
20589SOL    HW263445   0.489   1.525   3.651 -0.5806  0.1600 -0.7286
20590SOL     OW63446   8.956   6.247   4.389  0.0081 -0.0772  0.3439
20590SOL    HW163447   8.909   6.171   4.422 -0.5456  0.2837  0.3972
20590SOL    HW263448   8.888   6.303   4.351  0.5425 -0.0916 -0.6263
20591SOL     OW63449   5.430   4.419   7.766  0.3833  0.1832  0.1835
20591SOL    HW163450   5.432   4.336   7.719 -0.4697  0.1956  0.1203
20591SOL    HW263451   5.411   4.484   7.698 -1.7709  0.0941  0.6730
20592SOL     OW63452   2.379   2.632   1.344  0.0180  0.2138  0.3846
20592SOL    HW163453   2.354   2.546   1.379  0.6664 -0.1725 -0.0890
20592SOL    HW263454   2.454   2.614   1.288 -0.7149  0.8987 -0.8331
20593SOL     OW63455   1.215   1.701   6.240  0.1956  0.0665 -0.7578
20593SOL    HW163456   1.250   1.772   6.187  2.3156 -0.2717  0.1289
20593SOL    HW263457   1.184   1.743   6.320 -0.1057  0.1858 -0.9358
20594SOL     OW63458   6.463   0.848   9.184  0.1870 -0.3203  0.1648
20594SOL    HW163459   6.517   0.810   9.254  0.3082  0.4216  0.4796
20594SOL    HW263460   6.407   0.911   9.230 -0.4524 -0.5757 -0.2647
20595SOL     OW63461   5.842   3.521   2.579  0.1467 -0.1845 -0.2812
20595SOL    HW163462   5.837   3.487   2.489 -1.9722 -1.6866  0.3570
20595SOL    HW263463   5.852   3.443   2.633  0.8910  0.6729  0.8380
20596SOL     OW63464   3.370   2.000   2.575 -0.3733 -0.7862 -0.5511
20596SOL    HW163465   3.328   2.083   2.597 -1.5361 -1.5879  0.2982
20596SOL    HW263466   3.460   2.024   2.551 -1.0820  0.8614 -1.6467
20597SOL     OW63467   1.517   6.654   8.199  0.4067 -0.0360 -0.2545
20597SOL    HW163468   1.426   6.683   8.184  0.5721  0.4526 -0.3349
20597SOL    HW263469   1.570   6.726   8.164  0.8299 -0.4928 -0.5515
20598SOL     OW63470   3.739   4.373   4.555  0.2547 -0.1471 -0.4516
20598SOL    HW163471   3.687   4.389   4.633  0.9964  0.1242 -0.0189
20598SOL    HW263472   3.827   4.401   4.577  1.3211 -3.4751 -0.1036
20599SOL     OW63473   8.644   5.999   0.228  0.1943 -0.4370 -0.0187
20599SOL    HW163474   8.730   5.976   0.264  0.4149 -0.0916 -0.3042
20599SOL    HW263475   8.612   6.068   0.285 -0.6831 -1.7792  1.1180
20600SOL     OW63476   3.924   7.857   4.992  0.4717  0.3552  0.1689
20600SOL    HW163477   3.979   7.813   4.928  0.8430 -1.6629  1.8103
20600SOL    HW263478   3.889   7.786   5.046 -0.9510  1.8918  1.3252
20601SOL     OW63479   4.054   3.590   0.981  0.0284  0.1028 -0.1112
20601SOL    HW163480   4.057   3.542   1.064  0.8053 -1.0273 -0.7959
20601SOL    HW263481   4.059   3.523   0.914 -0.9652  0.9952 -1.0939
20602SOL     OW63482   7.184   1.731   8.296  0.0309  0.6422  0.1757
20602SOL    HW163483   7.207   1.760   8.207  1.5048  0.8350  0.6142
20602SOL    HW263484   7.260   1.753   8.349 -0.1278 -1.1122  1.1575
20603SOL     OW63485   3.997   7.847   7.561  0.1542 -0.1390 -0.2112
20603SOL    HW163486   4.020   7.854   7.654 -2.2212 -1.3656  0.4893
20603SOL    HW263487   4.072   7.802   7.521  1.9203  1.8577  0.7803
20604SOL     OW63488   8.521   4.859   7.971  0.3163 -0.0214  0.1883
20604SOL    HW163489   8.571   4.912   8.032  1.3690  1.3390 -1.7989
20604SOL    HW263490   8.452   4.916   7.939 -0.4585 -0.8387  0.3675
20605SOL     OW63491   7.014   6.865   1.580 -0.1328  0.2684 -0.2608
20605SOL    HW163492   6.937   6.886   1.529 -1.7810 -0.1014  1.9919
20605SOL    HW263493   6.991   6.889   1.670  1.9522 -0.8749  0.6231
20606SOL     OW63494   8.635   3.871   4.417  0.1528 -0.1407  0.4856
20606SOL    HW163495   8.652   3.957   4.455 -0.0439 -1.0023  2.5989
20606SOL    HW263496   8.716   3.848   4.372  0.8106  0.4123  1.3815
20607SOL     OW63497   4.231   3.813   9.126 -0.3811 -0.0219 -0.5918
20607SOL    HW163498   4.247   3.745   9.061 -0.7419 -0.7698  0.0918
20607SOL    HW263499   4.136   3.814   9.138 -0.3951  0.7585 -0.7670
20608SOL     OW63500   8.119   2.252   8.565  0.1090 -0.0792  0.1661
20608SOL    HW163501   8.158   2.250   8.477 -0.6975 -0.8047 -0.1850
20608SOL    HW263502   8.025   2.247   8.549 -0.0789  0.5049  1.0527
20609SOL     OW63503   9.156   7.959   3.851  0.0940 -0.1597  0.5638
20609SOL    HW163504   9.236   7.916   3.880  0.3066  1.6795  2.7906
20609SOL    HW263505   9.088   7.925   3.910 -0.0965  1.0243  1.0326
20610SOL     OW63506   2.405   3.370   2.200 -0.4968  0.1401  0.4133
20610SOL    HW163507   2.349   3.386   2.124 -1.5823 -1.1126  0.9440
20610SOL    HW263508   2.459   3.449   2.206  1.0864 -0.6130 -2.9073
20611SOL     OW63509   4.908   8.760   9.266 -0.6082 -0.5307  0.6357
20611SOL    HW163510   4.931   8.734   9.177  0.7412  0.3951  0.7048
20611SOL    HW263511   4.871   8.848   9.256 -0.1572 -0.2986  1.0311
20612SOL     OW63512   5.077   4.604   1.218 -0.6670  0.1283 -0.2905
20612SOL    HW163513   5.024   4.545   1.272 -1.5381 -0.8858 -2.2137
20612SOL    HW263514   5.091   4.681   1.274 -2.6453 -0.3403  0.9252
20613SOL     OW63515   5.741   5.780   7.667 -0.0162  0.0437 -0.6952
20613SOL    HW163516   5.771   5.837   7.597 -0.2372  1.3093  0.2182
20613SOL    HW263517   5.814   5.720   7.683  0.5418  0.6206 -1.0910
20614SOL     OW63518   1.063   0.582   6.800 -0.8659  0.3733  0.4939
20614SOL    HW163519   1.088   0.514   6.737  0.2636  2.1095 -0.9796
20614SOL    HW263520   0.972   0.604   6.778 -0.7134  0.4545 -0.0434
20615SOL     OW63521   8.237   4.060   7.625 -0.0399 -0.1615 -0.6379
20615SOL    HW163522   8.291   3.989   7.657  2.7374  2.1823  0.0536
20615SOL    HW263523   8.203   4.102   7.705  1.4752  1.6017 -0.8914
20616SOL     OW63524   0.075   7.242   7.612  0.1668  0.6753 -0.0614
20616SOL    HW163525   0.048   7.245   7.704 -0.9253  0.8973 -0.3775
20616SOL    HW263526   0.036   7.321   7.574  0.1152  0.2744 -0.8408
20617SOL     OW63527   3.649   5.370   2.951 -0.0910 -0.8026  0.4522
20617SOL    HW163528   3.629   5.348   3.042  0.2263 -1.3932  0.3843
20617SOL    HW263529   3.743   5.389   2.952  0.0218 -1.3444  0.1455
20618SOL     OW63530   8.314   8.754   8.436 -0.0157 -0.2985 -0.5268
20618SOL    HW163531   8.290   8.663   8.453  0.5417 -0.5772 -1.2270
20618SOL    HW263532   8.283   8.801   8.513 -2.9701 -0.6219 -1.4224
20619SOL     OW63533   2.767   4.226   0.805  0.1785 -0.4705 -0.2501
20619SOL    HW163534   2.699   4.264   0.860  0.5868 -0.9142  0.5710
20619SOL    HW263535   2.720   4.180   0.736 -0.3302  0.4083 -0.5037
20620SOL     OW63536   4.534   4.538   3.341  0.0691 -0.1202 -0.1494
20620SOL    HW163537   4.576   4.623   3.356 -0.6525 -0.0807  1.8710
20620SOL    HW263538   4.597   4.475   3.376  0.6672 -0.4319 -1.7833
20621SOL     OW63539   6.885   2.127   4.530 -0.2779  0.2154 -0.0702
20621SOL    HW163540   6.878   2.153   4.621  1.2906  0.7222 -0.0806
20621SOL    HW263541   6.872   2.208   4.481  0.5781  0.2492 -0.2405
20622SOL     OW63542   4.269   4.864   7.869 -0.1219 -0.2603  0.1804
20622SOL    HW163543   4.345   4.852   7.812 -0.4602 -0.4367 -0.2428
20622SOL    HW263544   4.281   4.949   7.909  0.8738 -0.7758  0.9870
20623SOL     OW63545   2.504   9.065   6.370 -0.0046 -0.0817  0.4106
20623SOL    HW163546   2.500   9.148   6.416 -0.4219  0.6352 -0.8896
20623SOL    HW263547   2.519   9.089   6.279 -2.0446 -1.3371 -0.2841
20624SOL     OW63548   4.781   1.824   0.691 -0.4768 -0.1604 -0.1805
20624SOL    HW163549   4.835   1.747   0.673  0.5762  0.8781 -1.6148
20624SOL    HW263550   4.829   1.873   0.757 -0.7927 -0.3505  0.1970
20625SOL     OW63551   7.156   8.310   5.567  0.6221 -0.0886 -0.2119
20625SOL    HW163552   7.232   8.355   5.603  0.4798  1.0210 -1.2456
20625SOL    HW263553   7.107   8.278   5.643  0.4105  2.0570  0.5698
20626SOL     OW63554   3.371   2.058   6.501 -0.2391 -0.7938  0.4758
20626SOL    HW163555   3.329   1.973   6.487 -2.4412 -0.0262  2.1993
20626SOL    HW263556   3.301   2.122   6.488  0.8191  0.6192  1.5725
20627SOL     OW63557   5.969   5.696   7.812 -0.1134 -0.2070 -0.2821
20627SOL    HW163558   6.059   5.730   7.809 -0.6492  1.2364 -0.7063
20627SOL    HW263559   5.923   5.758   7.869 -0.8371 -0.9634 -0.0462
20628SOL     OW63560   6.343   3.891   0.799  0.2565 -0.6290  0.3625
20628SOL    HW163561   6.370   3.803   0.773  1.9662 -0.3950  1.1969
20628SOL    HW263562   6.264   3.878   0.851  1.2023 -1.8342  1.5610
20629SOL     OW63563   3.392   8.722   3.148  0.5245  0.4017  0.0776
20629SOL    HW163564   3.349   8.676   3.220  0.2263  2.9991  1.6536
20629SOL    HW263565   3.485   8.725   3.173  0.7966 -0.6956 -0.7835
20630SOL     OW63566   7.399   1.713   3.153 -0.2239  0.2860 -0.0939
20630SOL    HW163567   7.476   1.662   3.177 -0.0024  1.0707  0.8793
20630SOL    HW263568   7.330   1.680   3.210 -0.1954  0.7459  0.2055
20631SOL     OW63569   6.949   6.017   2.395 -0.4696 -0.0989  0.8314
20631SOL    HW163570   7.036   5.997   2.430 -0.2681 -0.3004  0.2166
20631SOL    HW263571   6.900   5.935   2.405  0.1527 -0.7271 -1.0708
20632SOL     OW63572   4.841   7.514   8.556  0.2698  0.0995  0.5503
20632SOL    HW163573   4.820   7.579   8.488  3.7809  0.4509 -0.3153
20632SOL    HW263574   4.776   7.528   8.624 -0.7350  2.6712 -0.8790
20633SOL     OW63575   1.394   5.186   2.783 -0.1142  0.3724  0.9232
20633SOL    HW163576   1.443   5.103   2.785  1.1819  1.1475  1.7877
20633SOL    HW263577   1.324   5.173   2.847  1.6327  0.8593  2.9847
20634SOL     OW63578   0.240   3.793   0.470  0.0138 -0.5235  0.1597
20634SOL    HW163579   0.328   3.803   0.434 -0.0712 -1.1663 -0.2456
20634SOL    HW263580   0.189   3.754   0.399 -0.6050 -0.1276  0.3848
20635SOL     OW63581   6.784   5.686   6.360 -0.0911 -0.5823 -0.1493
20635SOL    HW163582   6.872   5.720   6.345 -0.0211 -0.5477  0.3431
20635SOL    HW263583   6.727   5.763   6.355 -0.1690 -0.6985 -1.1102
20636SOL     OW63584   3.682   0.623   5.371 -0.1253 -0.5023 -0.4305
20636SOL    HW163585   3.639   0.640   5.287  0.3971 -1.5112 -0.9090
20636SOL    HW263586   3.637   0.681   5.433  0.5614  1.4521 -1.6974
20637SOL     OW63587   6.662   2.568   3.232 -0.1033  0.0725  0.1901
20637SOL    HW163588   6.678   2.568   3.138  0.2095  2.3606  0.2275
20637SOL    HW263589   6.637   2.478   3.252  1.3315 -0.8024 -1.8199
20638SOL     OW63590   5.241   5.604   0.679  0.5488  0.0359  0.3885
20638SOL    HW163591   5.327   5.576   0.647  0.0117  0.9094 -1.8954
20638SOL    HW263592   5.182   5.533   0.654  0.2003  0.5195 -0.1768
20639SOL     OW63593   3.909   2.639   2.806 -0.1484  0.1414  0.5965
20639SOL    HW163594   3.952   2.660   2.889  1.0848 -0.2891  0.0664
20639SOL    HW263595   3.974   2.657   2.739 -0.9907  0.0592 -0.2637
20640SOL     OW63596   4.853   5.530   2.072 -0.0247 -0.5151 -0.3049
20640SOL    HW163597   4.769   5.494   2.102 -0.5930 -0.4265 -1.7350
20640SOL    HW263598   4.871   5.602   2.133  0.2258 -2.0544  1.4755
20641SOL     OW63599   3.161   7.184   3.107 -0.0404  0.0479 -0.4053
20641SOL    HW163600   3.081   7.237   3.102 -0.0414 -0.0398 -1.3951
20641SOL    HW263601   3.231   7.246   3.127 -0.2620  0.2074 -0.1196
20642SOL     OW63602   0.182   1.713   3.285 -0.7287 -0.0701 -0.4587
20642SOL    HW163603   0.088   1.706   3.306 -0.9721 -1.2800 -1.9231
20642SOL    HW263604   0.203   1.632   3.240  0.6478  0.9253 -1.6499
20643SOL     OW63605   1.173   7.075   7.227  0.2507 -0.0827 -0.2406
20643SOL    HW163606   1.143   7.163   7.249  3.5320  0.5575  2.0399
20643SOL    HW263607   1.102   7.017   7.254 -0.4591  1.5904  1.5427
20644SOL     OW63608   2.181   4.666   1.362 -0.1551 -0.1554  0.6873
20644SOL    HW163609   2.198   4.738   1.422 -1.4937  1.2874 -0.6295
20644SOL    HW263610   2.104   4.622   1.399 -0.5243  0.2781  0.4364
20645SOL     OW63611   8.569   1.151   1.209  0.3589 -0.6053 -0.2831
20645SOL    HW163612   8.497   1.102   1.249 -0.4074 -0.0282 -0.9307
20645SOL    HW263613   8.549   1.151   1.116  1.0577 -0.2080 -0.4342
20646SOL     OW63614   3.932   3.856   9.173  0.1687 -0.0268 -0.0760
20646SOL    HW163615   3.946   3.948   9.194  0.5403 -0.1525  0.2229
20646SOL    HW263616   3.866   3.857   9.103  0.0582  0.4549  0.0367
20647SOL     OW63617   4.012   8.817   1.591  0.0733 -0.3247 -0.4516
20647SOL    HW163618   3.959   8.895   1.609  0.9248  0.1217  0.2125
20647SOL    HW263619   4.049   8.832   1.504 -1.5982 -1.0614 -1.3177
20648SOL     OW63620   1.380   2.006   8.515  0.5325 -0.2052  0.0242
20648SOL    HW163621   1.290   2.008   8.484  0.3019  0.4297  0.7239
20648SOL    HW263622   1.416   2.091   8.490  0.4964  0.1137  1.0354
20649SOL     OW63623   2.453   8.086   2.262  0.1435  0.1735  0.3396
20649SOL    HW163624   2.510   8.119   2.192  0.9733 -0.1836  0.8559
20649SOL    HW263625   2.413   8.007   2.225  1.7747 -0.8962  0.8266
20650SOL     OW63626   5.197   2.773   4.911 -0.3750 -0.1768  0.1467
20650SOL    HW163627   5.190   2.684   4.878 -1.8841 -0.6621  1.6641
20650SOL    HW263628   5.248   2.820   4.846  1.9424 -2.5786  0.1674
20651SOL     OW63629   5.880   8.530   1.965  0.0985  0.2515 -0.0575
20651SOL    HW163630   5.886   8.451   1.912  0.8417  1.2620 -1.5298
20651SOL    HW263631   5.795   8.525   2.007 -0.2746 -0.8422 -0.9192
20652SOL     OW63632   0.883   9.064   2.518 -0.2230  0.0368 -0.2789
20652SOL    HW163633   0.894   8.969   2.521 -1.1288 -0.0811 -0.5660
20652SOL    HW263634   0.966   9.098   2.550 -0.2068 -0.8612  0.6866
20653SOL     OW63635   1.866   7.253   8.319  0.0966  0.2130  0.2734
20653SOL    HW163636   1.834   7.208   8.396  1.4859 -1.3515 -0.0516
20653SOL    HW263637   1.845   7.195   8.246 -0.2433  1.1864 -0.4256
20654SOL     OW63638   8.502   0.336   6.979 -0.4963  0.5243  0.1208
20654SOL    HW163639   8.529   0.428   6.985 -1.1660  0.8547 -1.4606
20654SOL    HW263640   8.426   0.338   6.920  0.4336 -1.2331 -1.1837
20655SOL     OW63641   4.667   4.662   6.629  0.0712 -0.3358  0.1251
20655SOL    HW163642   4.739   4.721   6.650  0.6098 -0.8685 -0.1899
20655SOL    HW263643   4.623   4.702   6.554  0.3385 -0.2572  0.0124
20656SOL     OW63644   3.617   7.832   5.025 -0.6558  0.1122 -0.4454
20656SOL    HW163645   3.598   7.870   5.110 -0.5199  0.7024 -0.6744
20656SOL    HW263646   3.704   7.865   5.003 -0.7746  0.1263 -0.8992
20657SOL     OW63647   0.966   5.901   0.457 -0.7599  0.5233 -0.2145
20657SOL    HW163648   0.937   5.949   0.535 -1.3716 -1.2507  0.7015
20657SOL    HW263649   0.958   5.963   0.385 -1.2550  1.8605  0.9752
20658SOL     OW63650   6.142   6.167   4.185 -0.8530  0.8262  0.2081
20658SOL    HW163651   6.074   6.222   4.224 -0.2879  0.8389  1.1840
20658SOL    HW263652   6.222   6.219   4.189 -0.6108  0.4929 -0.1784
20659SOL     OW63653   3.427   4.392   4.112  0.0394  0.0350  0.2519
20659SOL    HW163654   3.467   4.305   4.104  1.5663  0.8150 -0.8694
20659SOL    HW263655   3.357   4.393   4.047 -1.3927 -1.0861  1.7283
20660SOL     OW63656   6.501   8.989   4.187 -0.0641 -0.3240 -0.1775
20660SOL    HW163657   6.466   8.983   4.276 -2.8491 -0.6269 -1.2511
20660SOL    HW263658   6.517   9.082   4.174  0.2881 -0.2661  0.6015
20661SOL     OW63659   7.717   9.053   4.016  0.4347  0.2503  0.0330
20661SOL    HW163660   7.791   9.008   3.975  0.6942 -0.1508  0.9331
20661SOL    HW263661   7.750   9.140   4.036  0.9650 -0.2101  1.2496
20662SOL     OW63662   3.922   6.257   1.105 -0.4637  0.3314 -0.2645
20662SOL    HW163663   3.979   6.252   1.182  0.8863 -0.0483 -1.2563
20662SOL    HW263664   3.834   6.240   1.139  0.2377 -0.8197  1.0422
20663SOL     OW63665   6.394   9.141   1.219 -0.0688  0.1552  0.5311
20663SOL    HW163666   6.457   9.170   1.154 -0.3409  0.8309  0.5629
20663SOL    HW263667   6.394   9.210   1.285 -1.2728  0.4484  0.2354
20664SOL     OW63668   0.647   7.155   8.277  0.0118 -0.2755 -0.4213
20664SOL    HW163669   0.643   7.062   8.298 -0.7014 -0.5104 -1.5235
20664SOL    HW263670   0.584   7.166   8.206 -2.1084  1.6094  1.6734
20665SOL     OW63671   1.324   6.363   2.986  0.1206 -0.3884 -0.0636
20665SOL    HW163672   1.339   6.327   3.074  0.6883 -1.4946 -0.5988
20665SOL    HW263673   1.237   6.331   2.962  0.0292 -0.2149  0.0423
20666SOL     OW63674   1.929   8.140   8.429 -0.2564  0.7396  0.4527
20666SOL    HW163675   1.887   8.055   8.419  2.6765 -0.5350 -1.8004
20666SOL    HW263676   1.860   8.204   8.409 -1.5490 -1.2084 -1.4374
20667SOL     OW63677   1.412   8.972   6.919 -0.2307 -0.4876 -0.3329
20667SOL    HW163678   1.390   8.884   6.888 -1.2399 -0.3411 -0.0465
20667SOL    HW263679   1.480   8.958   6.986 -1.4989 -1.1770  0.8281
20668SOL     OW63680   1.698   0.579   2.521  0.0478  0.0588 -0.0157
20668SOL    HW163681   1.712   0.671   2.499  1.7889 -0.2283 -0.2434
20668SOL    HW263682   1.643   0.580   2.599 -2.2403  1.2168 -1.5725
20669SOL     OW63683   3.905   3.909   0.871  0.1003  0.0530  0.6049
20669SOL    HW163684   3.862   3.912   0.956 -1.2553  0.4000 -0.0752
20669SOL    HW263685   3.873   3.987   0.825  1.3914  0.2721  0.0362
20670SOL     OW63686   4.407   6.402   0.387  0.2802 -0.1656  0.3876
20670SOL    HW163687   4.408   6.428   0.295 -0.5971  0.0538  0.4377
20670SOL    HW263688   4.484   6.346   0.396  0.1076 -0.5807 -0.5936
20671SOL     OW63689   7.175   2.736   8.448  0.0409  0.1967 -0.6643
20671SOL    HW163690   7.266   2.710   8.437  0.0977 -0.0498  0.3032
20671SOL    HW263691   7.130   2.655   8.474 -0.5551  0.1996 -1.6623
20672SOL     OW63692   0.927   3.473   8.546  0.4932  0.0293  0.0597
20672SOL    HW163693   0.962   3.384   8.544  0.6223  0.0009  2.2453
20672SOL    HW263694   0.922   3.495   8.639 -0.3011  2.0115 -0.4170
20673SOL     OW63695   9.013   3.154   8.787  0.2526  1.5050  0.3902
20673SOL    HW163696   9.025   3.132   8.879 -2.7045 -1.1089  0.2384
20673SOL    HW263697   8.933   3.206   8.785 -0.2648  0.6825 -0.8068
20674SOL     OW63698   0.674   6.563   0.008  0.9118 -0.6054  0.4470
20674SOL    HW163699   0.600   6.611   0.046 -0.6744  0.3102 -3.5879
20674SOL    HW263700   0.695   6.496   0.073 -4.4296 -1.8688  1.0969
20675SOL     OW63701   6.380   6.296   8.191 -0.7345  0.2396 -0.3708
20675SOL    HW163702   6.411   6.386   8.193 -1.2723  0.5143 -2.6390
20675SOL    HW263703   6.422   6.258   8.113 -2.2323 -0.8192 -0.6772
20676SOL     OW63704   2.108   7.373   9.119  0.6942 -0.9472  0.1725
20676SOL    HW163705   2.199   7.405   9.118  0.7331 -1.0759 -1.5218
20676SOL    HW263706   2.055   7.452   9.129  0.9506 -0.7477 -0.0389
20677SOL     OW63707   0.961   0.524   3.684 -0.9603 -0.3066  0.2307
20677SOL    HW163708   1.028   0.504   3.750 -0.2152  1.5542  0.0679
20677SOL    HW263709   0.903   0.448   3.685  0.1315 -1.1503  1.6643
20678SOL     OW63710   6.313   4.314   7.288  0.3866 -0.2861 -0.5134
20678SOL    HW163711   6.232   4.340   7.244 -0.3871 -0.2342  0.9070
20678SOL    HW263712   6.372   4.290   7.217 -0.3487  1.1560 -1.6426
20679SOL     OW63713   8.733   7.770   3.659 -0.1437 -0.5349 -0.2840
20679SOL    HW163714   8.817   7.815   3.654 -0.0056 -0.7644 -0.0210
20679SOL    HW263715   8.668   7.841   3.663  0.1439 -0.3563  1.4592
20680SOL     OW63716   1.216   1.967   3.934 -0.2018  0.0969  0.1544
20680SOL    HW163717   1.296   1.965   3.881  0.4557  1.1217  1.0635
20680SOL    HW263718   1.238   1.913   4.011  0.8500  3.0176  2.0143
20681SOL     OW63719   5.642   5.371   0.850  0.2787 -0.2638 -0.5038
20681SOL    HW163720   5.613   5.422   0.775  3.7997  2.5764 -0.0556
20681SOL    HW263721   5.716   5.319   0.817 -0.3279 -1.6086  0.1969
20682SOL     OW63722   8.025   5.384   0.938  0.0630 -0.0185  0.7325
20682SOL    HW163723   7.989   5.323   1.003 -0.2078 -1.9177 -1.1242
20682SOL    HW263724   7.967   5.460   0.941 -0.6387 -0.5855  1.8838
20683SOL     OW63725   7.264   3.649   7.743  0.0103  0.0399  0.3105
20683SOL    HW163726   7.243   3.630   7.835  1.0278 -1.1440  0.3117
20683SOL    HW263727   7.277   3.744   7.741  0.6972 -0.0159  1.5514
20684SOL     OW63728   4.149   0.038   0.337  0.0083 -0.1225  0.0582
20684SOL    HW163729   4.163   0.112   0.279 -1.0614  0.0477  0.0086
20684SOL    HW263730   4.132   0.077   0.423  0.7611 -0.3529  0.3247
20685SOL     OW63731   6.952   4.879   1.468 -0.1855  0.1582 -0.7230
20685SOL    HW163732   6.967   4.813   1.536 -0.7239  1.3133  0.5519
20685SOL    HW263733   6.956   4.830   1.386  1.5883 -1.0678  0.0715
20686SOL     OW63734   1.769   1.253   3.997  0.0417  0.0413  0.3951
20686SOL    HW163735   1.856   1.279   3.965  0.3076 -0.5059  0.6776
20686SOL    HW263736   1.771   1.158   3.998 -1.2128 -0.0396 -1.3834
20687SOL     OW63737   0.781   8.131   4.540  0.2385  0.1720 -0.4560
20687SOL    HW163738   0.729   8.085   4.606  0.8453 -0.1223 -0.1726
20687SOL    HW263739   0.832   8.062   4.497 -0.3945  0.3241 -1.4598
20688SOL     OW63740   4.935   6.299   6.528 -0.1043  0.4649 -0.9025
20688SOL    HW163741   4.959   6.206   6.537  1.6529  1.1216  1.8253
20688SOL    HW263742   4.964   6.323   6.440  0.4152 -1.2744 -1.2341
20689SOL     OW63743   1.936   0.481   2.562 -0.0068  0.4036  0.2747
20689SOL    HW163744   1.844   0.506   2.549  0.3442  1.7285  0.2730
20689SOL    HW263745   1.965   0.451   2.477  0.4095  2.8417 -0.4852
20690SOL     OW63746   4.311   8.823   6.233  0.0173  0.3528 -0.0436
20690SOL    HW163747   4.356   8.862   6.158  0.5646 -0.2773 -0.0533
20690SOL    HW263748   4.382   8.791   6.289 -0.4149 -0.1467  0.2158
20691SOL     OW63749   1.353   1.225   2.883 -0.0795 -0.2236  0.0967
20691SOL    HW163750   1.375   1.297   2.823 -2.9270  1.4879  1.0044
20691SOL    HW263751   1.353   1.147   2.828  0.3753  0.8567 -1.4745
20692SOL     OW63752   4.931   7.218   5.295 -0.1522 -0.4003  0.0745
20692SOL    HW163753   4.959   7.151   5.233 -0.1457  2.2623 -2.9365
20692SOL    HW263754   5.012   7.259   5.324 -0.1450 -1.7072  2.0475
20693SOL     OW63755   3.609   5.636   4.837  0.0424  0.0338 -0.4736
20693SOL    HW163756   3.655   5.665   4.758  0.1134  1.3613  0.0424
20693SOL    HW263757   3.544   5.573   4.805 -1.9366  2.7224 -2.0201
20694SOL     OW63758   8.016   6.337   5.381 -0.2806  0.9547  0.5800
20694SOL    HW163759   7.928   6.306   5.360  0.1219 -1.0824  1.8245
20694SOL    HW263760   8.020   6.425   5.343 -1.8804  0.0084 -1.8670
20695SOL     OW63761   2.255   5.160   6.117  0.0770 -0.4475  0.4011
20695SOL    HW163762   2.331   5.103   6.128  0.4055  0.0045  0.4860
20695SOL    HW263763   2.248   5.208   6.200  0.1988  0.1095  0.0932
20696SOL     OW63764   1.387   8.371   7.095 -0.4295  0.4681 -0.3787
20696SOL    HW163765   1.469   8.370   7.144  0.1507  1.1828 -1.3152
20696SOL    HW263766   1.337   8.443   7.133 -0.2344  0.6300 -0.4271
20697SOL     OW63767   4.120   8.079   5.586  0.1594 -0.0183  0.4121
20697SOL    HW163768   4.118   8.107   5.494  2.1971 -0.3498  0.2201
20697SOL    HW263769   4.096   8.156   5.636 -2.4003 -0.2205 -0.4582
20698SOL     OW63770   0.005   8.563   8.184  0.0362 -0.0180  0.5066
20698SOL    HW163771   0.033   8.519   8.104  2.6682 -1.0560  1.9329
20698SOL    HW263772   0.064   8.639   8.191 -0.5544  0.3839  1.1523
20699SOL     OW63773   0.036   7.484   9.224  0.1766  0.1042  0.0887
20699SOL    HW163774  -0.010   7.523   9.299  1.3877 -1.2988  1.6224
20699SOL    HW263775   0.126   7.516   9.232  0.8456 -1.8070  0.5525
20700SOL     OW63776   0.195   9.202   1.699 -0.8669  0.7250  0.3409
20700SOL    HW163777   0.184   9.130   1.761 -0.6389  1.0081  0.7150
20700SOL    HW263778   0.106   9.228   1.677 -0.9511  0.6668  0.6065
20701SOL     OW63779   9.038   0.879   4.928  0.1283 -0.0618  0.4405
20701SOL    HW163780   9.064   0.790   4.906 -0.3002 -0.0188 -0.2593
20701SOL    HW263781   9.051   0.885   5.023 -0.9380 -1.2354  0.6773
20702SOL     OW63782   7.239   8.629   5.476  0.2922  0.2949  0.2799
20702SOL    HW163783   7.225   8.548   5.428 -1.3657 -0.1048  1.3971
20702SOL    HW263784   7.222   8.698   5.412 -0.4136 -0.2395 -0.1245
20703SOL     OW63785   0.202   4.183   3.697 -0.2467  0.3580  0.0970
20703SOL    HW163786   0.194   4.089   3.709 -0.0465  0.2039 -0.9058
20703SOL    HW263787   0.131   4.206   3.636  0.2713  0.7077 -0.3781
20704SOL     OW63788   4.388   1.295   4.646 -0.2072 -0.3654  0.3541
20704SOL    HW163789   4.374   1.348   4.724 -0.6627 -2.3628  1.6669
20704SOL    HW263790   4.301   1.264   4.621  0.0124 -0.2563 -0.5976
20705SOL     OW63791   3.043   0.472   0.099 -0.0287  0.1374 -0.2252
20705SOL    HW163792   2.988   0.413   0.048  0.1741 -0.1639 -0.0987
20705SOL    HW263793   3.018   0.455   0.190 -0.7698  1.0555 -0.2522
20706SOL     OW63794   3.489   4.163   7.711 -0.1955 -0.0579  0.1030
20706SOL    HW163795   3.423   4.187   7.777 -0.3294  0.9049 -0.3750
20706SOL    HW263796   3.512   4.246   7.669  0.6888 -0.5159 -0.3246
20707SOL     OW63797   6.265   5.656   1.996 -0.3419  0.4890  0.0718
20707SOL    HW163798   6.289   5.748   2.002 -2.3146  0.9705  0.9053
20707SOL    HW263799   6.295   5.618   2.078  1.1983  0.1738 -0.6035
20708SOL     OW63800   4.617   5.814   0.246 -0.0917  0.0801  0.0601
20708SOL    HW163801   4.554   5.746   0.268 -0.0395  0.1822  0.5363
20708SOL    HW263802   4.650   5.845   0.331  0.9760 -0.3241 -0.1948
20709SOL     OW63803   2.539   4.485   8.470 -0.2680  0.0916  0.1423
20709SOL    HW163804   2.498   4.491   8.384  2.7619  0.9255 -1.3172
20709SOL    HW263805   2.559   4.575   8.494  1.1697 -0.3135  0.5524
20710SOL     OW63806   7.699   2.386   8.509  0.4152 -0.2750  0.1693
20710SOL    HW163807   7.725   2.475   8.485 -1.1542  0.1885  0.1470
20710SOL    HW263808   7.668   2.393   8.599 -1.2361 -0.4627 -0.3638
20711SOL     OW63809   6.466   5.953   5.112 -0.1290  0.1097 -0.0463
20711SOL    HW163810   6.548   5.924   5.072  0.0007  0.5279 -0.0802
20711SOL    HW263811   6.410   5.875   5.110  0.1555 -0.0891 -0.3119
20712SOL     OW63812   1.094   5.614   9.085 -0.7823 -0.1757 -0.0635
20712SOL    HW163813   1.142   5.635   9.165  0.4815 -0.8834 -0.6172
20712SOL    HW263814   1.054   5.696   9.058  0.3228  0.4841  0.2923
20713SOL     OW63815   8.218   0.356   8.549  0.1808  0.5581 -0.2456
20713SOL    HW163816   8.166   0.278   8.569 -1.9671  1.7863 -0.8727
20713SOL    HW263817   8.250   0.342   8.460 -2.0621  1.3246 -1.2150
20714SOL     OW63818   2.286   8.275   2.409  0.6860  0.7290 -1.0272
20714SOL    HW163819   2.372   8.250   2.374  1.7136  2.3092  0.3115
20714SOL    HW263820   2.255   8.344   2.350  0.4732  0.3831 -1.3234
20715SOL     OW63821   1.033   0.840   0.202 -0.3241  0.4658 -0.6225
20715SOL    HW163822   0.979   0.905   0.247 -1.8041 -0.2939 -1.2729
20715SOL    HW263823   0.983   0.816   0.124  0.3533 -1.1730 -0.5896
20716SOL     OW63824   8.129   9.135   5.471 -0.2481  0.5994 -0.0883
20716SOL    HW163825   8.063   9.186   5.518 -0.8540 -0.3773  0.1313
20716SOL    HW263826   8.202   9.128   5.532 -0.4768  0.5392  0.1792
20717SOL     OW63827   2.193   7.154   1.358 -0.0197 -0.2000 -0.4705
20717SOL    HW163828   2.143   7.091   1.306 -0.2690 -0.9369  0.6270
20717SOL    HW263829   2.270   7.104   1.388  0.3644  0.3525 -0.5323
20718SOL     OW63830   0.720   5.033   3.806 -0.8717 -0.5073  0.3530
20718SOL    HW163831   0.775   5.106   3.780 -1.6114 -0.1509 -0.2430
20718SOL    HW263832   0.778   4.957   3.806  0.0095  0.1545  1.4452
20719SOL     OW63833   2.426   8.939   2.210 -0.0469  0.0825 -0.3275
20719SOL    HW163834   2.458   8.989   2.134  1.0807  1.6963  1.1451
20719SOL    HW263835   2.479   8.859   2.210  2.1548  1.4721  0.4738
20720SOL     OW63836   0.681   1.418   8.030 -0.5803  0.0876  0.1600
20720SOL    HW163837   0.686   1.476   7.954 -2.1302  2.1007  1.5260
20720SOL    HW263838   0.630   1.468   8.095  2.9597 -0.4328  3.5121
20721SOL     OW63839   8.306   7.755   3.087  0.5692 -0.4417  0.3231
20721SOL    HW163840   8.314   7.745   2.992 -0.2577 -0.0411  0.2081
20721SOL    HW263841   8.332   7.846   3.104  2.8427 -1.1461  0.7409
20722SOL     OW63842   5.393   3.336   3.995 -0.1111 -0.2265 -0.1948
20722SOL    HW163843   5.485   3.331   3.969  0.0398 -0.8103  0.4450
20722SOL    HW263844   5.344   3.323   3.913  0.3629  1.0839 -0.7081
20723SOL     OW63845   7.065   7.352   0.361  0.1221  0.0586  0.1309
20723SOL    HW163846   7.101   7.358   0.273  0.9760  0.5240  0.4940
20723SOL    HW263847   7.139   7.325   0.415 -0.0794  0.9974  0.8922
20724SOL     OW63848   1.579   3.828   3.608  0.1611 -0.3591 -0.1592
20724SOL    HW163849   1.546   3.901   3.556 -0.5143 -0.8573 -0.4384
20724SOL    HW263850   1.619   3.769   3.544 -2.3309 -1.8894 -0.3860
20725SOL     OW63851   2.481   3.079   6.275 -0.3215  0.1010 -0.1724
20725SOL    HW163852   2.572   3.050   6.282 -0.3196 -0.2625 -1.5639
20725SOL    HW263853   2.451   3.085   6.365  0.5223 -1.5664  0.2323
20726SOL     OW63854   4.353   8.696   0.258  0.1231  0.0105 -0.3632
20726SOL    HW163855   4.448   8.686   0.250  0.0840  0.1450 -1.0279
20726SOL    HW263856   4.319   8.607   0.256  0.1848 -0.0047 -0.8606
20727SOL     OW63857   4.544   4.418   2.159 -0.2492 -0.3142  0.4737
20727SOL    HW163858   4.462   4.412   2.207  0.1920 -0.9508  1.1544
20727SOL    HW263859   4.555   4.331   2.119 -0.4619  0.1125 -0.5478
20728SOL     OW63860   0.034   4.939   6.288  0.5647 -0.1663 -0.2147
20728SOL    HW163861   0.028   5.032   6.269 -1.2605 -0.4407 -1.1117
20728SOL    HW263862  -0.058   4.910   6.296  1.0821 -1.9914 -0.5411
20729SOL     OW63863   0.949   4.043   7.592  0.1827 -0.5230 -0.0663
20729SOL    HW163864   1.011   4.105   7.629  0.9171 -2.1521  1.5098
20729SOL    HW263865   0.973   4.036   7.500  1.6058 -0.2487  0.2766
20730SOL     OW63866   1.084   2.650   4.564 -0.4470 -0.3785 -0.6947
20730SOL    HW163867   1.144   2.723   4.581 -0.6244 -0.7124  1.4543
20730SOL    HW263868   1.037   2.638   4.646 -1.3778 -2.0504 -1.4536
20731SOL     OW63869   5.986   6.105   6.440  0.4738  0.0893 -0.6209
20731SOL    HW163870   6.071   6.143   6.464  0.4000  0.7819 -1.4325
20731SOL    HW263871   6.008   6.030   6.385  0.5556  0.5078 -1.1639
20732SOL     OW63872   5.406   6.880   0.450  0.1219  1.1547 -0.4087
20732SOL    HW163873   5.324   6.846   0.485  0.9684  1.7708  2.2532
20732SOL    HW263874   5.461   6.802   0.437 -0.1474  0.9386 -0.2433
20733SOL     OW63875   4.309   7.911   2.816  0.0333  0.6157  0.3362
20733SOL    HW163876   4.387   7.951   2.855  0.8378  0.6745 -1.2519
20733SOL    HW263877   4.340   7.827   2.782 -0.7013  0.4396  0.0887
20734SOL     OW63878   4.782   8.105   7.926  0.2266 -0.0152  0.2301
20734SOL    HW163879   4.805   8.019   7.891  0.8371 -0.1670  0.9941
20734SOL    HW263880   4.817   8.167   7.862 -0.9788 -0.3506 -0.7705
20735SOL     OW63881   1.249   4.476   7.584  0.0629  0.1149  0.6311
20735SOL    HW163882   1.266   4.447   7.674  0.1378  2.3634  1.3984
20735SOL    HW263883   1.246   4.572   7.591  0.6397  0.3459 -1.8670
20736SOL     OW63884   0.264   5.549   2.828  0.4044  0.5963 -0.4325
20736SOL    HW163885   0.243   5.536   2.736  0.9690 -0.9646 -0.3615
20736SOL    HW263886   0.217   5.628   2.853 -0.0867  0.7936 -1.9497
20737SOL     OW63887   4.446   0.369   7.822  0.0450 -0.1861  0.3139
20737SOL    HW163888   4.435   0.287   7.774 -0.3220 -0.9818  1.7149
20737SOL    HW263889   4.437   0.344   7.914  1.4914  1.1767  0.8519
20738SOL     OW63890   7.042   0.059   0.091  0.1119 -0.2469  0.0089
20738SOL    HW163891   6.997   0.083   0.010  0.0911 -2.0917 -0.5544
20738SOL    HW263892   7.084   0.140   0.120  0.4783  0.3524 -2.0916
20739SOL     OW63893   9.047   3.622   2.522  0.1980  0.0741  0.0996
20739SOL    HW163894   9.084   3.700   2.479 -2.2106  1.2605  0.0784
20739SOL    HW263895   9.106   3.605   2.595  1.1562  1.5075 -0.3067
20740SOL     OW63896   5.735   6.223   2.633 -0.9320 -0.5866 -0.0234
20740SOL    HW163897   5.654   6.197   2.677 -2.1788  0.8197 -1.4202
20740SOL    HW263898   5.733   6.175   2.550 -0.8340  0.2127 -0.4913
20741SOL     OW63899   5.078   8.564   1.658  0.0398  0.4543 -0.4597
20741SOL    HW163900   5.148   8.524   1.607 -0.2082 -0.8801  0.2244
20741SOL    HW263901   5.123   8.618   1.723  0.4705 -1.0766  0.5289
20742SOL     OW63902   4.143   5.052   1.992  0.6414  0.3899  0.0930
20742SOL    HW163903   4.060   5.027   2.033  0.8798  1.5745  1.3316
20742SOL    HW263904   4.200   4.976   2.003 -0.1184 -0.2527 -0.3396
20743SOL     OW63905   3.535   1.372   2.316 -0.2633  0.2522 -0.1376
20743SOL    HW163906   3.610   1.345   2.369 -0.7321  1.0743  0.9854
20743SOL    HW263907   3.567   1.371   2.226  0.7123 -0.6570  0.2132
20744SOL     OW63908   8.400   2.849   5.787 -0.0459 -0.2783 -0.3758
20744SOL    HW163909   8.488   2.835   5.822 -0.6421 -1.0455  0.8757
20744SOL    HW263910   8.370   2.930   5.830  0.1401  0.1376 -1.0138
20745SOL     OW63911   7.146   7.737   1.625  0.3329  0.1797 -0.0710
20745SOL    HW163912   7.111   7.648   1.624 -0.6133  0.4413  3.5699
20745SOL    HW263913   7.239   7.727   1.641  0.4648 -0.1766 -1.0144
20746SOL     OW63914   8.776   7.674   7.757  0.0368 -0.0962  0.6129
20746SOL    HW163915   8.800   7.588   7.723  1.8179  0.8199 -0.5183
20746SOL    HW263916   8.694   7.695   7.711  1.9194  0.7168 -2.5075
20747SOL     OW63917   3.468   6.285   1.955 -0.3012 -0.1657  0.0036
20747SOL    HW163918   3.500   6.202   1.921  0.1336  0.1174 -0.2871
20747SOL    HW263919   3.373   6.276   1.955 -0.2336 -0.9374  0.6850
20748SOL     OW63920   7.063   0.754   8.921  0.3514 -0.1094 -1.0353
20748SOL    HW163921   7.040   0.662   8.928  0.1210  0.0366  0.1552
20748SOL    HW263922   7.005   0.799   8.983  1.7420  0.6142 -0.2323
20749SOL     OW63923   3.696   7.726   6.632  0.4107 -0.5956 -0.0038
20749SOL    HW163924   3.701   7.657   6.566  1.1089 -0.3676 -0.1929
20749SOL    HW263925   3.759   7.791   6.603 -0.9756  0.6088 -0.3810
20750SOL     OW63926   9.017   2.417   5.952 -0.1287 -0.0608 -0.0039
20750SOL    HW163927   9.054   2.499   5.920  0.0167 -1.1579 -2.8699
20750SOL    HW263928   9.042   2.413   6.044  1.0886  2.4051 -0.1866
20751SOL     OW63929   7.282   6.339   4.765 -0.6153  0.2905 -0.0381
20751SOL    HW163930   7.267   6.391   4.844 -0.5442 -0.9535  0.8056
20751SOL    HW263931   7.359   6.378   4.725 -0.9548  1.2487  0.2314
20752SOL     OW63932   6.080   7.267   2.927 -0.6817  0.1085  0.0696
20752SOL    HW163933   5.985   7.262   2.912 -1.0389 -0.6956  2.2712
20752SOL    HW263934   6.114   7.186   2.889 -1.3233 -1.0638  1.8906
20753SOL     OW63935   3.002   8.807   0.153  0.0531  0.4873  0.4770
20753SOL    HW163936   2.991   8.883   0.096  1.0188 -0.3538 -0.8663
20753SOL    HW263937   2.934   8.745   0.125 -0.8289  0.8967  1.6676
20754SOL     OW63938   4.693   5.451   3.843 -0.0282 -0.2450 -0.3433
20754SOL    HW163939   4.767   5.503   3.814 -0.5376 -0.6201 -2.4148
20754SOL    HW263940   4.731   5.370   3.875  0.6513  0.7381  1.3625
20755SOL     OW63941   2.270   4.853   2.162 -0.1982  0.2380  0.7106
20755SOL    HW163942   2.302   4.917   2.099  0.8746  0.1863  1.1879
20755SOL    HW263943   2.300   4.769   2.129  2.0908  0.3916  2.3026
20756SOL     OW63944   5.586   5.150   7.971  0.7553 -0.0622  0.0322
20756SOL    HW163945   5.639   5.074   7.947 -0.0575 -0.7542  0.3716
20756SOL    HW263946   5.598   5.159   8.066  0.0952 -0.3796  0.1560
20757SOL     OW63947   1.243   4.766   7.659  0.2887 -0.0208  0.1180
20757SOL    HW163948   1.297   4.834   7.700 -0.9126  0.2129  1.3378
20757SOL    HW263949   1.186   4.813   7.599  0.0918 -0.0517  0.2809
20758SOL     OW63950   0.364   8.211   4.392 -0.5398 -0.3898  0.1279
20758SOL    HW163951   0.424   8.282   4.372 -1.9608  0.3242 -1.7636
20758SOL    HW263952   0.405   8.133   4.356 -1.0109  0.2000 -1.7639
20759SOL     OW63953   1.248   6.055   8.872  0.0410  0.3800  0.7419
20759SOL    HW163954   1.214   6.143   8.854  1.2872  0.6515 -0.3944
20759SOL    HW263955   1.306   6.066   8.947  2.4627  1.1089 -1.1724
20760SOL     OW63956   6.881   7.577   5.555  0.1800 -0.1625  0.1577
20760SOL    HW163957   6.915   7.488   5.556  1.5502  0.3493  0.9679
20760SOL    HW263958   6.937   7.625   5.615  0.6354  1.6765 -1.6586
20761SOL     OW63959   7.328   3.805   6.062 -0.0996  0.0128  0.0965
20761SOL    HW163960   7.346   3.721   6.020 -1.3075 -0.2409  0.0919
20761SOL    HW263961   7.367   3.797   6.149  3.0460  0.7890 -1.1311
20762SOL     OW63962   3.620   7.881   7.216 -0.4667 -0.1976  0.7447
20762SOL    HW163963   3.664   7.959   7.182 -0.0710 -1.0836 -0.8342
20762SOL    HW263964   3.596   7.832   7.137 -1.8867 -1.0261  1.6842
20763SOL     OW63965   1.384   5.130   0.845  0.1745 -0.3989 -0.5338
20763SOL    HW163966   1.399   5.223   0.860  0.3579 -1.0299  3.8287
20763SOL    HW263967   1.288   5.122   0.838  0.0823 -0.0449  0.3013
20764SOL     OW63968   2.156   8.672   3.460 -0.0833  0.2822 -0.7686
20764SOL    HW163969   2.238   8.665   3.509 -1.2035  0.4334  1.1758
20764SOL    HW263970   2.171   8.621   3.381  1.5821 -0.4290 -0.0172
20765SOL     OW63971   8.684   4.883   2.451 -0.2022 -0.5125  0.1419
20765SOL    HW163972   8.745   4.885   2.526  0.4633  1.2164 -0.4258
20765SOL    HW263973   8.622   4.954   2.469  0.2511  0.2387 -1.1660
20766SOL     OW63974   9.135   8.754   5.951 -0.5366  0.4242 -0.7452
20766SOL    HW163975   9.194   8.818   5.911 -1.0081  1.4660  0.1745
20766SOL    HW263976   9.146   8.768   6.046  0.4524 -1.8778 -0.4887
20767SOL     OW63977   5.901   0.177   6.990 -0.5333  0.6875  0.1385
20767SOL    HW163978   5.868   0.134   7.069 -0.0073  0.5373  0.2737
20767SOL    HW263979   5.957   0.248   7.023  1.1995 -0.5521 -0.1166
20768SOL     OW63980   9.245   6.509   0.220  0.3317  0.3286 -0.0679
20768SOL    HW163981   9.290   6.426   0.205 -0.8022 -0.2993 -0.0787
20768SOL    HW263982   9.183   6.490   0.290  0.1570  1.2104  0.0229
20769SOL     OW63983   0.964   2.373   5.847  0.2317 -0.1475 -0.0531
20769SOL    HW163984   0.884   2.330   5.816 -0.5116  2.0075 -1.1871
20769SOL    HW263985   0.987   2.434   5.777  0.3359  2.5020  2.2458
20770SOL     OW63986   1.112   4.451   2.114  0.2724  0.7408 -0.0925
20770SOL    HW163987   1.111   4.356   2.120  1.3770  0.5922 -2.0833
20770SOL    HW263988   1.022   4.474   2.090 -0.2150  0.2971  1.2106
20771SOL     OW63989   2.226   6.197   0.703  0.2435  0.3115  0.0393
20771SOL    HW163990   2.255   6.280   0.664  0.3442 -0.5795 -1.8473
20771SOL    HW263991   2.132   6.194   0.685  0.0186  0.5661  1.1602
20772SOL     OW63992   4.313   0.956   0.135 -0.4536 -0.1306  0.0612
20772SOL    HW163993   4.268   0.899   0.197 -0.7800  0.1912  0.1169
20772SOL    HW263994   4.244   0.992   0.079 -0.4146  1.3671  0.9600
20773SOL     OW63995   7.564   8.146   1.134  0.0929  0.0722 -0.1752
20773SOL    HW163996   7.590   8.127   1.224 -0.1878 -0.6449 -0.2396
20773SOL    HW263997   7.524   8.233   1.138 -1.0826 -0.4923  0.6188
20774SOL     OW63998   6.291   0.367   2.216  0.2464 -0.2587 -0.2390
20774SOL    HW163999   6.332   0.452   2.200 -0.3639 -0.1992 -1.5505
20774SOL    HW264000   6.267   0.369   2.308  0.4640  0.8985 -0.1981
20775SOL     OW64001   5.017   4.036   5.521  0.3665  0.4292  0.1461
20775SOL    HW164002   4.998   3.981   5.597  1.4428 -1.4509 -0.9061
20775SOL    HW264003   4.949   4.014   5.457  0.7907  0.3166 -0.2719
20776SOL     OW64004   8.506   5.633   7.405  0.0781  0.1190 -0.0651
20776SOL    HW164005   8.551   5.636   7.489  0.1445  0.0430 -0.0978
20776SOL    HW264006   8.416   5.609   7.427  0.2967 -0.7261 -0.0964
20777SOL     OW64007   5.812   2.643   8.540  0.8057  0.5722 -0.4705
20777SOL    HW164008   5.899   2.671   8.569  1.3667 -1.2866 -0.3447
20777SOL    HW264009   5.787   2.573   8.601 -0.3967  0.4645 -1.0698
20778SOL     OW64010   3.519   4.773   2.812 -0.0477  0.0504 -0.3508
20778SOL    HW164011   3.580   4.711   2.773  0.3253  0.7697 -0.9319
20778SOL    HW264012   3.460   4.797   2.741  0.4427  1.1361 -0.4029
20779SOL     OW64013   2.452   5.455   4.447 -0.5322 -0.3422 -0.1876
20779SOL    HW164014   2.526   5.402   4.476  0.0909  0.6725  0.0873
20779SOL    HW264015   2.487   5.544   4.440 -1.3531 -0.1154 -1.4902
20780SOL     OW64016   9.116   2.769   1.259 -0.3036  0.0512  0.3238
20780SOL    HW164017   9.160   2.784   1.175 -1.6454  1.2773 -0.1795
20780SOL    HW264018   9.187   2.749   1.320  0.9505  1.8234 -0.5132
20781SOL     OW64019   1.246   7.013   4.528 -0.0409 -0.2505 -0.1381
20781SOL    HW164020   1.213   7.027   4.439  2.3360  0.9932 -0.8582
20781SOL    HW264021   1.340   7.030   4.523  0.1582 -0.1672  2.6140
20782SOL     OW64022   4.373   2.781   2.524 -0.4290 -0.2654  0.1646
20782SOL    HW164023   4.422   2.721   2.581  1.1129 -0.9996 -1.8889
20782SOL    HW264024   4.292   2.735   2.505 -0.5147 -0.4515  0.9563
20783SOL     OW64025   0.851   1.789   3.543  0.2651 -0.3250 -0.1011
20783SOL    HW164026   0.896   1.715   3.582  1.2742  0.7167  0.7353
20783SOL    HW264027   0.772   1.799   3.596 -0.2564 -1.2650 -0.6889
20784SOL     OW64028   1.794   6.879   5.924 -0.3398  0.6445 -0.0421
20784SOL    HW164029   1.806   6.850   5.834 -0.1087 -1.1595  0.5424
20784SOL    HW264030   1.852   6.822   5.976 -0.0511  2.0224  1.1854
20785SOL     OW64031   1.988   6.156   6.629 -0.0136 -0.0740 -0.0434
20785SOL    HW164032   2.007   6.077   6.679  0.7124  0.3976  0.4346
20785SOL    HW264033   1.935   6.210   6.689  1.0365  0.5817  0.3163
20786SOL     OW64034   5.927   2.965   3.754 -0.3107  0.2232 -0.5685
20786SOL    HW164035   5.878   3.045   3.732 -0.2063  0.1774 -0.9744
20786SOL    HW264036   5.982   2.949   3.677  0.4619  0.3640 -0.0502
20787SOL     OW64037   3.616   2.278   5.380  0.4461  0.1383  0.0724
20787SOL    HW164038   3.598   2.367   5.350  2.1282  0.5392  0.1959
20787SOL    HW264039   3.607   2.283   5.476 -2.8270 -0.6506 -0.1285
20788SOL     OW64040   0.766   0.654   5.460  0.0237 -0.5380  0.5777
20788SOL    HW164041   0.721   0.647   5.376 -0.4955  0.0308  0.7994
20788SOL    HW264042   0.837   0.716   5.443 -1.2603  1.1053  1.0265
20789SOL     OW64043   7.376   6.137   4.278 -0.3650 -0.6875  0.7539
20789SOL    HW164044   7.372   6.213   4.220 -0.8552 -1.9087 -0.8336
20789SOL    HW264045   7.441   6.162   4.344 -0.8806  1.2994  0.5510
20790SOL     OW64046   0.264   7.744   8.561 -0.1730  0.6602  0.2603
20790SOL    HW164047   0.290   7.685   8.490 -1.6969  1.4534 -0.9750
20790SOL    HW264048   0.301   7.704   8.640 -0.3994 -1.4635 -0.6778
20791SOL     OW64049   3.087   8.992   9.218 -0.6257  0.4237  0.3476
20791SOL    HW164050   3.154   9.060   9.210 -0.4299  0.1870 -0.0465
20791SOL    HW264051   3.018   9.033   9.269 -0.7533  1.1195 -0.3600
20792SOL     OW64052   8.071   6.140   8.922  0.5604 -0.3911  0.2919
20792SOL    HW164053   8.025   6.160   8.840  1.8167  0.0992 -0.2986
20792SOL    HW264054   8.163   6.133   8.897  0.4870 -4.6014  0.8767
20793SOL     OW64055   5.287   0.129   1.015  0.4768 -0.0171 -0.1454
20793SOL    HW164056   5.214   0.151   1.071  0.4994 -0.6896  0.1523
20793SOL    HW264057   5.254   0.060   0.958  1.4095 -1.5828  1.1902
20794SOL     OW64058   5.203   6.954   6.366  0.2440  0.0438  0.7084
20794SOL    HW164059   5.162   6.941   6.280  1.0059 -1.0120  0.5004
20794SOL    HW264060   5.132   6.985   6.421 -0.4886 -0.2486 -0.0548
20795SOL     OW64061   5.928   3.308   6.427  0.1230 -0.5438  0.1381
20795SOL    HW164062   5.873   3.383   6.405 -0.1318 -0.8885 -0.4034
20795SOL    HW264063   5.893   3.236   6.374  1.1193 -0.7550 -0.2462
20796SOL     OW64064   4.662   5.269   2.251 -0.6509 -0.1560  0.2200
20796SOL    HW164065   4.711   5.192   2.221  0.8881  0.4072  1.2054
20796SOL    HW264066   4.721   5.311   2.314 -1.8471  1.3290  0.3639
20797SOL     OW64067   1.313   2.407   3.919 -0.0904 -0.5636 -0.0181
20797SOL    HW164068   1.397   2.393   3.962  0.0009  0.1199  0.0281
20797SOL    HW264069   1.301   2.502   3.919  0.2153 -0.5011 -2.0765
20798SOL     OW64070   0.489   4.882   6.626  0.1072 -0.1767  0.4236
20798SOL    HW164071   0.548   4.872   6.701  0.5463 -1.6517 -0.1017
20798SOL    HW264072   0.545   4.916   6.556 -0.1651  0.5995  0.5825
20799SOL     OW64073   4.986   2.845   8.487  0.1384  0.9330  0.8634
20799SOL    HW164074   4.945   2.874   8.406  0.2886 -0.8881  0.1129
20799SOL    HW264075   4.916   2.802   8.536  0.6851 -0.4558  0.4425
20800SOL     OW64076   2.560   0.438   7.071  0.2856 -0.2433 -0.3013
20800SOL    HW164077   2.528   0.511   7.018 -2.2202 -0.0441  1.4157
20800SOL    HW264078   2.588   0.372   7.008 -0.6378  0.8436 -1.8650
20801SOL     OW64079   2.850   6.853   5.218 -0.3076 -0.1327  0.1538
20801SOL    HW164080   2.769   6.808   5.242 -0.5789  0.6165  0.6314
20801SOL    HW264081   2.906   6.845   5.295 -0.1582 -0.0910  0.0510
20802SOL     OW64082   0.728   4.804   3.050  0.0894 -0.6857  0.2752
20802SOL    HW164083   0.654   4.743   3.052 -0.6091  0.0335 -2.3992
20802SOL    HW264084   0.798   4.758   3.097 -1.0564 -2.7207  0.0446
20803SOL     OW64085   8.965   3.270   3.346  0.2465  0.0627  0.7636
20803SOL    HW164086   8.967   3.192   3.290 -0.3951  0.3861  0.2804
20803SOL    HW264087   8.977   3.343   3.285 -0.8614  0.4404  0.9744
20804SOL     OW64088   8.767   1.148   5.090 -0.7922 -0.7090 -0.4698
20804SOL    HW164089   8.836   1.174   5.150  0.4208 -1.0689 -1.6922
20804SOL    HW264090   8.719   1.079   5.136  1.3436 -2.3808 -0.7071
20805SOL     OW64091   8.018   0.924   6.319 -0.0381  0.2124  0.2404
20805SOL    HW164092   8.046   0.837   6.348 -1.2432 -0.5084 -0.7487
20805SOL    HW264093   7.965   0.958   6.391  1.3048  0.5919  1.0843
20806SOL     OW64094   6.992   0.754   6.121 -0.1106  0.1511  0.3373
20806SOL    HW164095   7.071   0.746   6.068  0.0892  2.4624  0.2155
20806SOL    HW264096   7.024   0.782   6.207 -0.6140 -1.3640  1.0298
20807SOL     OW64097   2.460   5.127   3.914 -0.3825 -0.0033  0.4100
20807SOL    HW164098   2.538   5.108   3.966  0.8736  0.1974 -1.3795
20807SOL    HW264099   2.387   5.111   3.974  1.0252 -0.0862  2.1329
20808SOL     OW64100   3.663   0.595   4.614  0.3119  0.0698 -0.3833
20808SOL    HW164101   3.606   0.540   4.561 -2.3958  1.2831  1.1302
20808SOL    HW264102   3.637   0.577   4.705  1.2800  1.7569  0.2649
20809SOL     OW64103   5.742   3.512   0.309 -0.2715 -0.0142 -0.2140
20809SOL    HW164104   5.724   3.508   0.215  2.9494 -0.9719 -0.8504
20809SOL    HW264105   5.679   3.576   0.342  0.2788  2.3750 -3.4728
20810SOL     OW64106   6.197   4.706   6.364  0.0634  0.1717  0.1190
20810SOL    HW164107   6.273   4.704   6.421  0.1847  0.5760 -0.0226
20810SOL    HW264108   6.225   4.759   6.289  0.1892 -1.0442 -0.7215
20811SOL     OW64109   2.884   2.114   7.683 -0.5493  0.8486 -0.0827
20811SOL    HW164110   2.831   2.084   7.757  1.0924  0.9821  1.1814
20811SOL    HW264111   2.919   2.033   7.645 -1.5141  0.7698 -0.8309
20812SOL     OW64112   9.183   0.687   7.491  0.2402 -0.0017  0.1463
20812SOL    HW164113   9.097   0.705   7.452  0.2793 -0.1817 -0.0268
20812SOL    HW264114   9.200   0.595   7.469 -0.0925 -0.3308  1.2697
20813SOL     OW64115   0.766   3.029   9.228  0.0502  0.0063  0.1453
20813SOL    HW164116   0.846   3.080   9.214 -0.1885  0.1857 -0.6259
20813SOL    HW264117   0.733   3.058   9.313  0.1661  0.7989 -0.0751
20814SOL     OW64118   6.328   2.955   5.228  0.7683  0.1171  0.4385
20814SOL    HW164119   6.321   3.049   5.211  1.2023  0.1419  0.3902
20814SOL    HW264120   6.307   2.946   5.321 -0.1372  0.1568  0.2417
20815SOL     OW64121   1.163   0.073   1.073 -0.3616  0.2213  0.0930
20815SOL    HW164122   1.069   0.072   1.056 -0.3423  1.8446 -0.1393
20815SOL    HW264123   1.201   0.114   0.996  0.4661  0.3447  0.5620
20816SOL     OW64124   5.537   8.374   2.689  0.4931 -0.0666 -0.7430
20816SOL    HW164125   5.445   8.350   2.688  0.5970 -0.4414 -1.3947
20816SOL    HW264126   5.560   8.378   2.782  0.6341 -3.0902 -0.6073
20817SOL     OW64127   5.204   3.828   4.526 -0.3323 -0.1648  0.7255
20817SOL    HW164128   5.214   3.923   4.519  1.3203 -0.4554 -1.0481
20817SOL    HW264129   5.282   3.792   4.485 -1.3793 -2.3229  0.5641
20818SOL     OW64130   1.666   5.049   4.204  0.0563  0.6601 -0.8267
20818SOL    HW164131   1.572   5.059   4.221  0.6149  1.4152  2.2143
20818SOL    HW264132   1.684   5.106   4.130 -2.1312 -0.6055 -2.3987
20819SOL     OW64133   0.956   1.667   6.448 -0.3592 -0.3223  0.3275
20819SOL    HW164134   1.011   1.722   6.505 -1.6835  0.3662  0.9553
20819SOL    HW264135   0.870   1.710   6.449 -0.7426 -1.0330 -1.1652
20820SOL     OW64136   9.158   1.749   0.941  0.7827  0.1915  0.2194
20820SOL    HW164137   9.239   1.714   0.979  0.5130 -1.7452 -0.9401
20820SOL    HW264138   9.188   1.812   0.876  1.4593 -1.7199 -1.3879
20821SOL     OW64139   7.024   3.991   5.269 -0.3600 -0.0934  0.1357
20821SOL    HW164140   6.934   3.959   5.263 -0.5013 -0.1358  2.2179
20821SOL    HW264141   7.077   3.917   5.239 -0.9853 -0.2540 -0.5879
20822SOL     OW64142   2.928   8.942   5.850 -0.0608 -0.0082  0.1049
20822SOL    HW164143   2.920   8.868   5.911  1.5300 -1.0608 -0.9130
20822SOL    HW264144   2.974   9.009   5.900 -0.7402 -0.0331  0.7675
20823SOL     OW64145   2.846   5.221   2.681 -0.3923 -0.0294  0.3213
20823SOL    HW164146   2.822   5.243   2.771  0.3140 -1.0948  0.7760
20823SOL    HW264147   2.869   5.128   2.683  2.0399  0.5161 -0.4403
20824SOL     OW64148   4.365   3.204   7.839  0.3003  0.3839  0.0651
20824SOL    HW164149   4.375   3.237   7.750  1.1841 -0.2165 -0.0557
20824SOL    HW264150   4.378   3.281   7.895 -0.4612  0.7987 -0.3288
20825SOL     OW64151   6.789   4.638   5.188 -0.0866 -0.7377  0.0882
20825SOL    HW164152   6.725   4.681   5.244 -0.7464 -2.0690  0.3892
20825SOL    HW264153   6.867   4.629   5.243  0.9467  2.3448 -0.7978
20826SOL     OW64154   7.625   0.859   2.333 -0.0281  0.1464 -0.6158
20826SOL    HW164155   7.663   0.944   2.310 -0.1286  0.6301  0.9720
20826SOL    HW264156   7.566   0.838   2.260 -0.3567  1.6692 -0.7964
20827SOL     OW64157   4.328   1.999   3.710 -0.2213 -0.2754 -0.0432
20827SOL    HW164158   4.383   2.009   3.788  0.5380  0.9517 -0.6984
20827SOL    HW264159   4.295   1.910   3.714  1.8298 -1.0487  0.3998
20828SOL     OW64160   3.615   8.107   0.072 -0.0218 -0.4093  0.0799
20828SOL    HW164161   3.544   8.072   0.125  0.5828 -0.4294  0.8840
20828SOL    HW264162   3.680   8.037   0.069  0.2549 -0.1465 -0.1003
20829SOL     OW64163   3.522   5.028   6.303 -0.4601  0.0800  0.1921
20829SOL    HW164164   3.575   5.071   6.370  0.9892 -3.2973  1.3335
20829SOL    HW264165   3.441   5.004   6.347 -0.3938 -0.2362  0.1438
20830SOL     OW64166   4.549   0.620   4.713 -0.3891  0.2618  0.2342
20830SOL    HW164167   4.526   0.706   4.680  1.0860  0.1522 -1.0717
20830SOL    HW264168   4.520   0.559   4.645 -0.2280 -0.1843  0.5581
20831SOL     OW64169   9.142   5.435   6.117  0.0871  0.1106  0.1689
20831SOL    HW164170   9.238   5.430   6.110  0.1558  1.3908  0.0893
20831SOL    HW264171   9.124   5.527   6.137 -1.0569 -0.3582  1.4009
20832SOL     OW64172   5.906   7.385   1.181  0.1846  0.2380 -0.0208
20832SOL    HW164173   5.920   7.469   1.224  0.8765  0.5315 -0.8183
20832SOL    HW264174   5.811   7.379   1.170  0.1953  1.3081 -0.7536
20833SOL     OW64175   3.882   6.433   0.085 -0.2718  0.0041 -0.0727
20833SOL    HW164176   3.954   6.494   0.101  0.4391 -0.5801 -1.0354
20833SOL    HW264177   3.803   6.483   0.105  0.4213  0.5127  1.3956
20834SOL     OW64178   1.130   2.396   1.149  0.2911 -0.8794 -0.0537
20834SOL    HW164179   1.083   2.353   1.221 -0.9470 -1.8518 -1.4060
20834SOL    HW264180   1.110   2.342   1.072 -0.3331  1.4283 -1.5694
20835SOL     OW64181   1.372   6.864   0.073  0.1355 -0.5786 -0.2321
20835SOL    HW164182   1.309   6.882   0.143 -3.0969 -1.1106 -2.8797
20835SOL    HW264183   1.389   6.949   0.034 -0.0387 -0.6319 -0.4230
20836SOL     OW64184   4.442   2.889   2.987  0.7878 -0.3396  0.0254
20836SOL    HW164185   4.420   2.920   3.075 -1.3569 -2.2833  0.1995
20836SOL    HW264186   4.376   2.929   2.930  2.2951  1.0821 -0.7505
20837SOL     OW64187   2.899   5.113   6.984  0.0947  0.0456  0.9048
20837SOL    HW164188   2.949   5.160   6.918  0.6941 -0.2825  1.1201
20837SOL    HW264189   2.897   5.022   6.952 -0.7422  0.1387  0.6738
20838SOL     OW64190   7.120   0.285   3.323  0.9001  0.5815  0.2648
20838SOL    HW164191   7.030   0.255   3.331  0.5999  1.8309  2.0254
20838SOL    HW264192   7.152   0.246   3.242 -1.3729  0.5324 -0.6262
20839SOL     OW64193   8.978   4.306   1.184 -0.4580  0.3596  0.2297
20839SOL    HW164194   9.067   4.341   1.177 -0.9484  1.4859 -0.6490
20839SOL    HW264195   8.983   4.219   1.145  0.6043 -0.2371  1.6476
20840SOL     OW64196   2.111   2.869   3.097  0.3043 -0.4117  0.3676
20840SOL    HW164197   2.050   2.794   3.101 -1.1867  0.8153  1.3051
20840SOL    HW264198   2.054   2.945   3.089  1.8429  0.5977 -1.1667
20841SOL     OW64199   8.903   7.523   8.653 -0.4346 -0.5542  0.1442
20841SOL    HW164200   8.935   7.505   8.742  0.7894  0.3224 -0.0945
20841SOL    HW264201   8.979   7.562   8.608 -1.9472  1.9653 -0.3356
20842SOL     OW64202   7.220   3.223   7.834 -0.0116  0.2667 -0.0183
20842SOL    HW164203   7.155   3.154   7.823 -1.0906  1.0845  1.0457
20842SOL    HW264204   7.278   3.190   7.902 -0.1673  0.1498  0.0593
20843SOL     OW64205   8.702   1.646   1.088 -0.2325  0.5242  0.5321
20843SOL    HW164206   8.744   1.561   1.100  1.9773  1.5087  0.0433
20843SOL    HW264207   8.707   1.662   0.994 -0.0036  1.5284  0.7165
20844SOL     OW64208   3.734   3.657   0.135  0.5198 -0.3599  0.9486
20844SOL    HW164209   3.808   3.598   0.125  2.0745  2.0247 -3.4555
20844SOL    HW264210   3.672   3.629   0.068 -0.7846  0.1330  1.9305
20845SOL     OW64211   8.257   7.279   1.656  0.3452  0.3551  0.0705
20845SOL    HW164212   8.235   7.268   1.748  1.1007  0.5870  0.2804
20845SOL    HW264213   8.343   7.321   1.656  1.4344 -1.7816 -0.7368
20846SOL     OW64214   7.348   4.285   2.127  0.5529 -0.4336  0.1206
20846SOL    HW164215   7.420   4.302   2.065 -0.0291  1.5887 -0.0308
20846SOL    HW264216   7.289   4.227   2.079  1.1473 -0.5913 -0.4330
20847SOL     OW64217   7.298   5.868   5.903  0.1122 -0.3058  0.3257
20847SOL    HW164218   7.279   5.893   5.812 -0.1213  0.8567  0.6839
20847SOL    HW264219   7.360   5.934   5.934  0.4321 -0.8731  0.9266
20848SOL     OW64220   1.905   9.083   8.140  0.2022  0.6975  0.1665
20848SOL    HW164221   1.980   9.084   8.199  0.5082  0.8444 -0.2187
20848SOL    HW264222   1.943   9.084   8.052 -0.2487  3.4742 -0.0480
20849SOL     OW64223   4.279   0.608   0.385 -0.1820 -0.4090  0.5176
20849SOL    HW164224   4.327   0.615   0.468  0.4526  0.9992  0.0560
20849SOL    HW264225   4.347   0.607   0.318 -0.7492  0.9229 -0.1072
20850SOL     OW64226   8.041   0.291   4.712  0.2693  0.4288 -0.7180
20850SOL    HW164227   7.967   0.235   4.736 -0.5282  1.2025 -1.3490
20850SOL    HW264228   8.016   0.378   4.742  2.2242  0.1945  1.7775
20851SOL     OW64229   2.662   6.013   4.374  0.3972  0.0023 -0.5939
20851SOL    HW164230   2.663   6.071   4.450 -0.6809  0.5850 -1.0220
20851SOL    HW264231   2.616   6.063   4.306  2.0916 -0.1706 -1.9068
20852SOL     OW64232   5.184   7.886   3.548  0.6733 -0.8007 -0.2505
20852SOL    HW164233   5.108   7.882   3.606  0.0220  3.9237 -0.6014
20852SOL    HW264234   5.160   7.831   3.473 -1.3689 -1.2797  0.7361
20853SOL     OW64235   8.774   5.362   9.095 -0.2685  0.6277  0.0386
20853SOL    HW164236   8.760   5.407   9.179  1.4885  0.2280  0.5749
20853SOL    HW264237   8.731   5.277   9.106  0.2996  0.4184  0.6915
20854SOL     OW64238   0.078   1.287   8.016  0.3450 -0.2937  0.0023
20854SOL    HW164239   0.150   1.251   8.068  0.7747  0.7764  0.1452
20854SOL    HW264240   0.031   1.209   7.984  0.7036 -0.9741  1.0951
20855SOL     OW64241   2.998   3.842   0.474  0.1725  0.4184  0.1617
20855SOL    HW164242   2.981   3.792   0.394  2.9822 -0.9557  0.3586
20855SOL    HW264243   2.920   3.828   0.528 -1.1478  0.2027 -1.7291
20856SOL     OW64244   9.283   4.331   6.198 -0.0974 -0.3630  0.1189
20856SOL    HW164245   9.346   4.320   6.126 -0.9840  2.7961 -1.2372
20856SOL    HW264246   9.201   4.295   6.164 -0.7453  1.9364 -0.8821
20857SOL     OW64247   4.950   4.945   2.434 -0.5040  0.0311 -0.7679
20857SOL    HW164248   5.038   4.983   2.442 -0.4774  0.5006 -3.1117
20857SOL    HW264249   4.900   5.010   2.386 -2.0667 -0.4047  0.2269
20858SOL     OW64250   2.392   3.568   6.837  0.2725  0.2631 -0.3371
20858SOL    HW164251   2.345   3.613   6.908  0.3639 -0.5315  0.2355
20858SOL    HW264252   2.324   3.522   6.788  0.2507  0.5228 -0.5498
20859SOL     OW64253   7.580   8.711   8.430  0.8649  0.3287 -0.6139
20859SOL    HW164254   7.572   8.778   8.363 -0.0937  0.9657  0.1208
20859SOL    HW264255   7.658   8.736   8.480  0.9575  0.4498 -0.8176
20860SOL     OW64256   2.077   7.023   4.110  0.2899 -0.5666  0.5429
20860SOL    HW164257   2.125   7.106   4.102 -0.2993 -0.3600 -1.1198
20860SOL    HW264258   2.142   6.960   4.141  0.7296  0.5237  1.8825
20861SOL     OW64259   3.808   5.942   2.831 -0.6376 -0.0939 -0.1582
20861SOL    HW164260   3.832   6.014   2.889 -0.6316  1.4634 -2.0542
20861SOL    HW264261   3.771   5.876   2.889  0.4055  0.9600  1.7516
20862SOL     OW64262   6.427   3.273   3.443  0.4744  0.0102  0.0895
20862SOL    HW164263   6.356   3.229   3.489 -0.3507  2.2223  1.0024
20862SOL    HW264264   6.495   3.284   3.509  0.7507 -0.0364 -0.1856
20863SOL     OW64265   6.580   7.552   5.674  0.9543 -0.5637 -0.8550
20863SOL    HW164266   6.568   7.461   5.704  1.1854 -0.2609  0.1881
20863SOL    HW264267   6.666   7.553   5.634  1.7146 -0.4161  0.7218
20864SOL     OW64268   4.488   0.601   0.196  0.4159  0.1024  0.7114
20864SOL    HW164269   4.505   0.691   0.168 -1.3251  0.4414  0.6976
20864SOL    HW264270   4.469   0.553   0.116  0.4203 -0.0729  0.8143
20865SOL     OW64271   8.823   6.622   6.662 -0.3930  0.1316 -0.0578
20865SOL    HW164272   8.741   6.667   6.642  1.1230  2.7486 -0.5556
20865SOL    HW264273   8.862   6.603   6.577 -0.1868 -0.5537  0.1851
20866SOL     OW64274   6.998   7.167   3.318  0.4295  0.5367  0.1885
20866SOL    HW164275   6.933   7.127   3.376 -0.4903 -0.1093 -1.2487
20866SOL    HW264276   7.041   7.233   3.372  0.8109 -1.2431  2.1034
20867SOL     OW64277   3.968   8.033   7.920  0.3901 -0.4462 -0.0909
20867SOL    HW164278   4.006   8.030   7.833  1.1932  1.2369  0.1781
20867SOL    HW264279   3.894   8.094   7.913 -1.0812 -2.2223 -0.1649
20868SOL     OW64280   0.946   3.865   5.055 -0.3689 -0.6006  0.8177
20868SOL    HW164281   0.916   3.782   5.016  0.8552  0.1951 -1.9775
20868SOL    HW264282   0.881   3.929   5.028 -0.0214 -0.2068  0.9124
20869SOL     OW64283   7.609   5.257   8.505  0.7951  0.3604  0.4105
20869SOL    HW164284   7.690   5.303   8.485  0.1207  1.1560 -0.5588
20869SOL    HW264285   7.589   5.280   8.596  0.7044  1.6306  0.0802
20870SOL     OW64286   9.118   2.058   1.506  0.0685  0.1384  0.3321
20870SOL    HW164287   9.191   2.115   1.480  1.5927 -2.4844 -1.3371
20870SOL    HW264288   9.084   2.023   1.424 -0.8906 -1.2966  1.3155
20871SOL     OW64289   5.658   4.264   4.343  0.0765  0.5799  0.0443
20871SOL    HW164290   5.721   4.298   4.406  2.5079  0.3953 -2.2107
20871SOL    HW264291   5.649   4.333   4.277 -2.7288  0.9353  0.7236
20872SOL     OW64292   4.982   3.696   0.828 -0.7642  0.1285 -0.1095
20872SOL    HW164293   5.027   3.662   0.906  2.3561  2.7941 -0.6270
20872SOL    HW264294   4.984   3.791   0.839 -0.6269  0.5198 -3.2369
20873SOL     OW64295   3.619   7.399   7.603 -0.2945  0.2910 -0.6042
20873SOL    HW164296   3.629   7.466   7.669  0.8203 -1.4929  1.0828
20873SOL    HW264297   3.527   7.371   7.611  0.1697 -0.8297  1.1315
20874SOL     OW64298   1.350   4.272   0.291 -0.2487 -0.1769 -0.3054
20874SOL    HW164299   1.357   4.367   0.296  1.2906 -0.3364  0.8354
20874SOL    HW264300   1.269   4.251   0.337 -0.2621  0.5468  0.0032
20875SOL     OW64301   6.097   0.701   7.682 -0.7081  0.0448  0.1739
20875SOL    HW164302   6.188   0.716   7.656 -1.0544  0.6059 -0.7479
20875SOL    HW264303   6.097   0.707   7.777 -0.0588  1.5975  0.0859
20876SOL     OW64304   3.844   0.305   1.647 -0.0238 -0.4060 -0.3538
20876SOL    HW164305   3.880   0.389   1.676 -1.2727  0.1770 -0.4746
20876SOL    HW264306   3.891   0.286   1.565  2.4975 -1.3706  1.2448
20877SOL     OW64307   3.938   3.969   3.076 -0.1038 -0.2427  0.0839
20877SOL    HW164308   4.017   4.011   3.043 -0.4134 -1.2371 -2.0148
20877SOL    HW264309   3.910   3.910   3.005 -2.4846 -0.2203  0.9433
20878SOL     OW64310   7.720   6.006   0.118  0.6072  0.1757 -0.0517
20878SOL    HW164311   7.737   5.922   0.161  1.5055  1.3105  1.8700
20878SOL    HW264312   7.625   6.016   0.121  0.5834 -0.2614  0.7059
20879SOL     OW64313   1.720   0.955   5.053 -0.3034 -0.3762 -0.5670
20879SOL    HW164314   1.745   0.915   5.137 -0.0197  3.4931  1.3024
20879SOL    HW264315   1.625   0.947   5.050 -0.3067 -0.6270  0.0801
20880SOL     OW64316   7.302   7.411   8.835  0.0701 -0.3396 -0.1007
20880SOL    HW164317   7.360   7.487   8.844  0.0923 -0.5350  1.5499
20880SOL    HW264318   7.228   7.444   8.784 -0.1144  0.9152  0.9423
20881SOL     OW64319   0.835   7.001   2.184  0.1123 -0.2714 -0.4204
20881SOL    HW164320   0.874   7.084   2.156 -0.3069 -0.0992 -0.4926
20881SOL    HW264321   0.750   7.025   2.220  1.2773 -0.3067  2.4779
20882SOL     OW64322   2.141   4.278   0.875 -0.2375 -0.5559  0.6412
20882SOL    HW164323   2.123   4.353   0.819  0.1957 -0.7409  0.2498
20882SOL    HW264324   2.058   4.229   0.877  0.8504 -2.7685 -3.2046
20883SOL     OW64325   5.681   8.803   6.610  0.1459  0.2658  0.7864
20883SOL    HW164326   5.738   8.880   6.612  0.4879  0.0087  1.0961
20883SOL    HW264327   5.659   8.787   6.701 -0.0179  0.0631  0.7120
20884SOL     OW64328   3.656   6.310   4.284 -0.2117  0.1091  0.0731
20884SOL    HW164329   3.724   6.302   4.218  0.1618 -1.3459  0.6124
20884SOL    HW264330   3.621   6.398   4.273  1.8645  0.9248 -0.1130
20885SOL     OW64331   6.374   8.856   1.096  0.4806 -0.5468 -0.6924
20885SOL    HW164332   6.401   8.938   1.137  1.9137 -1.1123 -0.4657
20885SOL    HW264333   6.282   8.846   1.118  0.2447  1.1285 -0.9279
20886SOL     OW64334   0.157   8.015   0.436  0.1118  0.1345  0.3995
20886SOL    HW164335   0.107   8.034   0.516 -0.2327 -0.8072  0.4167
20886SOL    HW264336   0.105   8.055   0.366 -1.1854 -1.6596  0.3082
20887SOL     OW64337   2.455   5.043   3.624 -0.0512 -0.1104  0.0276
20887SOL    HW164338   2.544   5.010   3.635 -0.6259 -1.0616  1.8934
20887SOL    HW264339   2.434   5.024   3.533  0.4123 -2.9966  0.4748
20888SOL     OW64340   5.109   0.404   7.832  0.2419  0.1058  0.0120
20888SOL    HW164341   5.135   0.496   7.823 -0.6050  0.2543 -0.9952
20888SOL    HW264342   5.081   0.378   7.745 -0.2657 -0.8935  0.4636
20889SOL     OW64343   9.135   5.215   5.415 -0.3059 -0.3033  0.6967
20889SOL    HW164344   9.046   5.181   5.409 -0.2889 -0.1444 -0.7699
20889SOL    HW264345   9.141   5.253   5.502 -1.5378 -0.6888  0.9583
20890SOL     OW64346   4.765   2.664   2.501 -0.4315 -0.1248 -0.6224
20890SOL    HW164347   4.780   2.748   2.545  1.2421 -1.2318  1.0376
20890SOL    HW264348   4.757   2.601   2.573 -0.9889 -1.4957 -1.8637
20891SOL     OW64349   4.622   8.788   5.734 -0.1290  0.0844 -0.4374
20891SOL    HW164350   4.596   8.764   5.646 -0.4490  0.9704 -0.5878
20891SOL    HW264351   4.577   8.871   5.751 -0.2903 -0.2166  0.6591
20892SOL     OW64352   7.920   1.571   1.640 -0.3023 -0.0176 -0.4088
20892SOL    HW164353   7.845   1.592   1.585  0.1997  1.1018 -0.6942
20892SOL    HW264354   7.889   1.584   1.730 -0.9104 -1.1483 -0.4397
20893SOL     OW64355   8.568   7.960   0.759 -0.3885  0.5316 -0.1621
20893SOL    HW164356   8.487   8.010   0.749 -0.0837  0.8923 -0.8673
20893SOL    HW264357   8.637   8.027   0.767 -0.3761  0.2614  2.5378
20894SOL     OW64358   7.860   7.217   0.849 -0.0885  0.2509  0.1731
20894SOL    HW164359   7.928   7.229   0.915  0.0066 -2.2289  0.5508
20894SOL    HW264360   7.793   7.281   0.872 -1.1701 -2.1457  4.1479
20895SOL     OW64361   6.160   4.410   4.659 -0.1764 -0.4732  0.0300
20895SOL    HW164362   6.191   4.403   4.749 -2.0547  0.9992  0.8035
20895SOL    HW264363   6.071   4.443   4.666 -0.5265 -0.8143 -2.3544
20896SOL     OW64364   7.570   5.428   6.741 -0.4424 -0.5794  0.1780
20896SOL    HW164365   7.505   5.415   6.672 -0.0223 -0.2005 -0.2923
20896SOL    HW264366   7.647   5.463   6.696  0.1111 -1.0788  0.7238
20897SOL     OW64367   3.810   7.730   7.339  0.2107 -0.1031 -0.8235
20897SOL    HW164368   3.743   7.783   7.298 -1.3703 -0.6141  1.0420
20897SOL    HW264369   3.835   7.779   7.418 -0.0572 -1.2944  0.0133
20898SOL     OW64370   7.781   3.434   0.581 -0.1404  0.0712 -0.0516
20898SOL    HW164371   7.815   3.393   0.502  0.3623  0.8339 -0.2378
20898SOL    HW264372   7.842   3.408   0.650 -0.2412 -0.1050 -0.0302
20899SOL     OW64373   2.066   0.072   7.003 -0.0967 -0.2245  0.0715
20899SOL    HW164374   2.110   0.047   7.085  0.7832  0.9608 -0.0323
20899SOL    HW264375   2.078  -0.004   6.946 -1.3336 -1.3528  1.2651
20900SOL     OW64376   5.438   1.901   6.458 -0.0214 -0.1188  0.1270
20900SOL    HW164377   5.483   1.861   6.383  0.7086  3.0871 -1.2167
20900SOL    HW264378   5.361   1.944   6.420  0.3159  1.4913  1.2385
20901SOL     OW64379   9.050   0.351   5.068 -0.4898 -0.6161 -0.0018
20901SOL    HW164380   8.961   0.326   5.046  0.2547 -0.8260 -2.9904
20901SOL    HW264381   9.076   0.288   5.136 -1.9960 -1.7008 -0.4055
20902SOL     OW64382   2.306   5.619   1.452  0.0201  0.9781 -0.2896
20902SOL    HW164383   2.375   5.611   1.387  0.2983 -1.0504  0.2438
20902SOL    HW264384   2.284   5.713   1.452  0.8623  1.1881 -2.3957
20903SOL     OW64385   4.708   1.876   9.252 -0.3425  0.0339 -0.4792
20903SOL    HW164386   4.791   1.828   9.254 -0.0029  0.4393 -3.3297
20903SOL    HW264387   4.642   1.811   9.280  0.3780 -1.5172 -2.3092
20904SOL     OW64388   8.205   5.352   2.339 -0.0620  0.3452  0.2127
20904SOL    HW164389   8.123   5.372   2.293 -0.5094 -1.2770  0.2605
20904SOL    HW264390   8.268   5.333   2.269  0.1593  1.1273  0.1912
20905SOL     OW64391   1.368   8.230   3.664  0.1853  0.2848 -0.6692
20905SOL    HW164392   1.446   8.255   3.616  1.5087 -0.7027  0.9397
20905SOL    HW264393   1.371   8.282   3.744 -0.1357 -0.7276  0.0013
20906SOL     OW64394   7.106   0.247   6.048  0.5720 -0.3763  0.0886
20906SOL    HW164395   7.183   0.301   6.062  0.4874 -0.5612  1.3426
20906SOL    HW264396   7.052   0.297   5.987  1.5432 -0.1211 -0.5708
20907SOL     OW64397   3.062   7.423   3.580  0.2139 -0.2782  0.7912
20907SOL    HW164398   3.028   7.338   3.552  0.1079 -0.0910  0.3381
20907SOL    HW264399   2.986   7.481   3.577  0.7374  0.3644 -1.1401
20908SOL     OW64400   4.846   0.816   5.777 -0.3424  0.0345  0.2632
20908SOL    HW164401   4.915   0.750   5.765 -1.6332 -0.7217 -3.6107
20908SOL    HW264402   4.766   0.765   5.790 -1.1577  0.7720 -1.6247
20909SOL     OW64403   0.348   2.570   3.175 -0.4989 -0.5461 -0.4562
20909SOL    HW164404   0.312   2.647   3.132 -2.5275  0.0829  2.2189
20909SOL    HW264405   0.428   2.601   3.218 -2.3201  0.5848  2.2141
20910SOL     OW64406   0.229   0.328   2.221 -0.8667 -0.0675 -0.2024
20910SOL    HW164407   0.187   0.405   2.183  0.1351  1.0815  0.9540
20910SOL    HW264408   0.198   0.326   2.312  1.2791  0.5931  0.5630
20911SOL     OW64409   7.491   2.650   4.873  0.4139  0.1014  0.3623
20911SOL    HW164410   7.504   2.560   4.842  1.2992  0.4425 -0.2846
20911SOL    HW264411   7.401   2.671   4.848  0.1503 -0.6531  0.6515
20912SOL     OW64412   1.968   2.330   6.394 -1.0433 -0.2615 -0.2004
20912SOL    HW164413   2.036   2.278   6.438 -0.9330  1.4090  1.7216
20912SOL    HW264414   1.901   2.267   6.369 -0.8231 -1.3842  1.8892
20913SOL     OW64415   0.447   1.710   9.202 -0.1299 -0.3250  0.0802
20913SOL    HW164416   0.380   1.682   9.140 -1.4696  2.0767  0.3570
20913SOL    HW264417   0.514   1.752   9.148 -0.3142 -0.0623  0.0502
20914SOL     OW64418   8.894   8.762   2.283 -0.2727  0.4117  0.6849
20914SOL    HW164419   8.982   8.726   2.271 -0.5085 -0.5917  1.9681
20914SOL    HW264420   8.882   8.766   2.377 -0.7716  2.6106  0.5538
20915SOL     OW64421   5.011   1.752   2.788  0.3678 -0.0611  0.5857
20915SOL    HW164422   5.004   1.738   2.694  0.2843 -0.4177  0.6403
20915SOL    HW264423   5.056   1.673   2.820 -1.7145 -1.0538  1.1385
20916SOL     OW64424   9.249   6.119   3.197  0.0322  0.0450 -0.2055
20916SOL    HW164425   9.279   6.101   3.108  1.4240  1.7203 -0.0964
20916SOL    HW264426   9.164   6.161   3.185 -0.7003 -1.5024 -0.6427
20917SOL     OW64427   6.825   4.419   4.798 -0.0777 -0.2749 -0.5790
20917SOL    HW164428   6.794   4.353   4.736  1.0827 -0.1158 -1.3438
20917SOL    HW264429   6.880   4.477   4.746 -0.5205  0.9010  0.2351
20918SOL     OW64430   5.154   6.999   7.850  0.0261  0.0805 -0.3759
20918SOL    HW164431   5.082   6.969   7.794 -0.2410  0.3985 -0.1979
20918SOL    HW264432   5.207   6.920   7.864  0.8745  0.2754 -2.2372
20919SOL     OW64433   7.929   1.973   0.419 -0.2357 -0.0162  0.4067
20919SOL    HW164434   7.858   2.034   0.435  0.6589  1.1322  0.1061
20919SOL    HW264435   8.006   2.016   0.457  0.5285 -0.6300 -0.4204
20920SOL     OW64436   6.405   6.036   0.507  0.1912 -0.7149  0.6009
20920SOL    HW164437   6.413   6.009   0.416  1.1721 -0.3420  0.5702
20920SOL    HW264438   6.316   6.069   0.515  0.4188  0.1896 -0.4690
20921SOL     OW64439   8.877   3.632   5.165  0.5012 -0.7145 -0.2055
20921SOL    HW164440   8.896   3.629   5.072  0.9574  5.4977 -0.4759
20921SOL    HW264441   8.962   3.623   5.208  0.8947  1.0031 -0.5902
20922SOL     OW64442   1.294   0.689   8.192 -0.0168 -0.1159  0.3371
20922SOL    HW164443   1.331   0.722   8.110  1.3457 -0.8210  0.6456
20922SOL    HW264444   1.233   0.757   8.220  0.6231  0.8163 -0.4994
20923SOL     OW64445   4.352   7.641   0.002 -0.3865 -0.0803 -0.4120
20923SOL    HW164446   4.320   7.714  -0.051 -0.7272  0.9345  1.1469
20923SOL    HW264447   4.446   7.655   0.009 -0.2015 -0.7464 -1.5373
20924SOL     OW64448   6.156   6.732   6.623 -0.1348  0.2958  0.8055
20924SOL    HW164449   6.114   6.708   6.540  0.5758  1.3543  0.1223
20924SOL    HW264450   6.091   6.784   6.669 -0.3274  0.1764  0.6683
20925SOL     OW64451   8.162   2.122   7.498  0.2564 -0.3277 -0.0003
20925SOL    HW164452   8.072   2.133   7.526  0.5080 -0.4720  0.8969
20925SOL    HW264453   8.197   2.054   7.556  1.2302  0.4486  0.3359
20926SOL     OW64454   0.740   0.915   7.051 -0.6648 -0.1869  0.0227
20926SOL    HW164455   0.769   0.937   7.140  0.2255  0.7284 -0.4811
20926SOL    HW264456   0.651   0.949   7.046 -0.6473 -0.0615  0.5065
20927SOL     OW64457   0.343   8.667   0.852 -0.0580 -0.3348  0.1327
20927SOL    HW164458   0.399   8.639   0.780 -1.8433  0.4862 -1.5916
20927SOL    HW264459   0.384   8.628   0.930  2.6841 -0.0480 -1.1194
20928SOL     OW64460   1.654   3.024   2.671 -0.0473  0.1285 -0.5690
20928SOL    HW164461   1.572   3.015   2.623  0.0732  0.9291 -0.9426
20928SOL    HW264462   1.721   2.992   2.611 -0.2927 -2.5610  0.5362
20929SOL     OW64463   5.749   2.586   4.204  0.1562  0.2029 -0.1711
20929SOL    HW164464   5.696   2.570   4.126 -0.8544 -0.3000  0.6080
20929SOL    HW264465   5.768   2.498   4.239  1.5817  0.3701 -0.4897
20930SOL     OW64466   8.693   2.543   4.827  0.1879  0.2129  0.0381
20930SOL    HW164467   8.720   2.554   4.736 -0.6160 -1.4628 -0.4216
20930SOL    HW264468   8.745   2.468   4.858 -0.5616 -0.1019  0.5338
20931SOL     OW64469   7.017   8.216   4.097  0.3263  0.4670  0.4270
20931SOL    HW164470   7.109   8.210   4.075  0.7400  1.6213  1.7523
20931SOL    HW264471   7.005   8.306   4.127 -0.9451 -0.0273  1.4765
20932SOL     OW64472   8.691   6.433   2.677 -0.5412  0.0395  0.1009
20932SOL    HW164473   8.744   6.493   2.624 -0.3891 -0.0358  0.1676
20932SOL    HW264474   8.607   6.477   2.686 -0.6175 -0.0221 -0.3362
20933SOL     OW64475   8.314   0.978   0.558  0.8805 -0.1488  0.5123
20933SOL    HW164476   8.345   0.947   0.473 -0.1472  1.2487 -0.3890
20933SOL    HW264477   8.272   0.901   0.597 -1.1008 -0.1351 -1.4524
20934SOL     OW64478   3.311   2.514   8.241  0.1730  0.0595  0.4319
20934SOL    HW164479   3.258   2.552   8.171 -1.3734  2.8602  3.0030
20934SOL    HW264480   3.401   2.517   8.208 -0.7656 -0.8556 -2.3226
20935SOL     OW64481   5.401   7.618   0.220  0.5526  0.2320 -0.2993
20935SOL    HW164482   5.398   7.535   0.266  1.3372 -0.4061 -1.3803
20935SOL    HW264483   5.412   7.684   0.289  2.1640 -0.7386  0.3929
20936SOL     OW64484   1.959   5.074   5.495  0.0811 -0.0705 -0.0067
20936SOL    HW164485   2.045   5.077   5.453 -0.3790 -0.6071 -1.0115
20936SOL    HW264486   1.937   4.981   5.495 -1.3547  0.2512 -1.5368
20937SOL     OW64487   2.622   0.244   3.944  0.0725 -0.1825  0.0675
20937SOL    HW164488   2.654   0.157   3.921  0.5645 -0.7799  2.7789
20937SOL    HW264489   2.651   0.257   4.035 -2.0390  1.8308  0.5017
20938SOL     OW64490   6.220   3.940   1.161 -0.0648  0.2647  0.3722
20938SOL    HW164491   6.182   3.996   1.093  1.7009  0.0474 -0.8134
20938SOL    HW264492   6.184   3.974   1.243 -0.9159  1.5780 -0.5353
20939SOL     OW64493   4.713   0.365   1.140  0.2768 -0.6228 -0.9329
20939SOL    HW164494   4.701   0.444   1.192  1.0678 -1.8217  1.1490
20939SOL    HW264495   4.664   0.381   1.059 -2.5997  0.5155  0.9733
20940SOL     OW64496   5.609   2.313   3.093 -0.1266 -0.3443 -0.3246
20940SOL    HW164497   5.548   2.355   3.032  0.4036  0.7491 -0.1141
20940SOL    HW264498   5.693   2.314   3.046  0.2563  0.3937  0.3754
20941SOL     OW64499   6.304   3.941   5.333  0.0970  0.1711 -0.0078
20941SOL    HW164500   6.362   3.979   5.266 -0.0225  0.8725  0.2849
20941SOL    HW264501   6.343   3.967   5.416  0.7828 -1.5149  0.2218
20942SOL     OW64502   0.729   8.139   9.021  0.2897 -0.2197 -0.5486
20942SOL    HW164503   0.762   8.096   8.943  1.3982  1.3576 -0.9776
20942SOL    HW264504   0.757   8.084   9.094  0.7715 -0.7730 -1.1567
20943SOL     OW64505   8.015   1.192   0.251 -0.3449  0.0049 -0.0706
20943SOL    HW164506   7.982   1.171   0.163  0.2839 -1.0277 -0.0616
20943SOL    HW264507   7.943   1.240   0.292 -0.9709 -0.2510 -0.8499
20944SOL     OW64508   2.531   7.526   4.708 -0.0093  0.4106  0.5251
20944SOL    HW164509   2.601   7.583   4.676 -0.2788  0.7011  0.4549
20944SOL    HW264510   2.562   7.496   4.793  1.7006 -2.0842 -0.8941
20945SOL     OW64511   3.728   3.249   7.820  0.3606 -0.1759 -0.4413
20945SOL    HW164512   3.710   3.264   7.913  0.6012 -0.0956 -0.4065
20945SOL    HW264513   3.644   3.224   7.782  0.3064 -0.4222 -0.1572
20946SOL     OW64514   1.227   0.260   5.231  0.7153  0.5707 -0.1407
20946SOL    HW164515   1.213   0.270   5.137 -0.7936  1.7620  0.1915
20946SOL    HW264516   1.308   0.307   5.249  0.6085  0.9759 -0.7256
20947SOL     OW64517   4.366   1.388   8.164  0.0877  0.0657 -0.7556
20947SOL    HW164518   4.426   1.406   8.091 -1.0159  0.0221 -1.6932
20947SOL    HW264519   4.415   1.412   8.242  1.6498 -0.7956 -1.4396
20948SOL     OW64520   6.147   2.380   7.591 -0.1718 -0.3925  0.1195
20948SOL    HW164521   6.087   2.388   7.665  1.1398 -0.6347  1.2299
20948SOL    HW264522   6.168   2.471   7.568 -0.7464 -0.3128 -0.0873
20949SOL     OW64523   2.956   8.747   4.414  0.0250  0.3465  0.3304
20949SOL    HW164524   2.994   8.689   4.480 -1.7813  0.2248  1.3081
20949SOL    HW264525   2.884   8.695   4.376 -0.5104  1.3146  0.0035
20950SOL     OW64526   8.252   1.205   8.835  0.2248  0.3515  0.3130
20950SOL    HW164527   8.288   1.217   8.747  2.2211 -1.7521  0.7923
20950SOL    HW264528   8.328   1.208   8.893 -1.0528  1.6149  1.9874
20951SOL     OW64529   5.136   3.748   0.293  0.6140 -0.1231 -0.5598
20951SOL    HW164530   5.060   3.701   0.258  0.6799 -0.4690 -0.2402
20951SOL    HW264531   5.153   3.707   0.378  2.4430 -1.4437 -1.5214
20952SOL     OW64532   1.801   5.519   5.693  0.2893  0.2293 -0.4590
20952SOL    HW164533   1.855   5.598   5.695  1.0515 -0.3008  3.6659
20952SOL    HW264534   1.843   5.460   5.755 -2.1515 -2.1817 -1.0166
20953SOL     OW64535   1.943   2.036   0.931  0.1672 -0.0476  0.2513
20953SOL    HW164536   2.031   2.065   0.908 -0.3434  0.9143 -0.5492
20953SOL    HW264537   1.886   2.082   0.870 -1.0186  0.4943  1.7203
20954SOL     OW64538   4.558   5.301   2.943  0.6339 -0.4295 -0.2743
20954SOL    HW164539   4.587   5.307   2.852  1.2803  0.1786 -0.0316
20954SOL    HW264540   4.631   5.258   2.989  1.1332  0.9829  0.3109
20955SOL     OW64541   5.917   2.255   2.732 -0.3525  0.0497  0.5432
20955SOL    HW164542   5.899   2.346   2.705 -1.3359  0.2485  1.8447
20955SOL    HW264543   5.832   2.220   2.757  0.4208 -0.3494  2.7175
20956SOL     OW64544   6.930   2.092   1.712 -0.2853  0.7047 -0.1238
20956SOL    HW164545   6.917   2.081   1.618  0.1374  0.1362 -0.1169
20956SOL    HW264546   6.935   2.003   1.746  1.0448  0.8994  0.2341
20957SOL     OW64547   1.321   5.188   7.101  0.1445 -0.2842 -0.3222
20957SOL    HW164548   1.301   5.178   7.008 -4.2904  0.7846  0.3610
20957SOL    HW264549   1.336   5.282   7.112  0.2985 -0.3528  0.0699
20958SOL     OW64550   7.066   6.902   4.353  0.2828  0.2852 -0.6158
20958SOL    HW164551   6.974   6.899   4.379  0.6912  1.6950  1.0419
20958SOL    HW264552   7.114   6.888   4.434  1.5604 -1.4173 -1.6152
20959SOL     OW64553   7.690   9.187   4.550 -0.5233  0.2746  0.3376
20959SOL    HW164554   7.689   9.133   4.471  1.0761 -0.0780  0.5353
20959SOL    HW264555   7.713   9.126   4.621 -0.5295  0.8588  0.8521
20960SOL     OW64556   8.300   6.589   4.102  0.4697 -0.1901  0.5112
20960SOL    HW164557   8.363   6.592   4.174 -0.3671  0.0605  1.2352
20960SOL    HW264558   8.291   6.679   4.073  0.6434 -0.2621  0.2320
20961SOL     OW64559   3.824   4.826   5.939  0.0839 -0.2461 -0.2112
20961SOL    HW164560   3.747   4.844   5.885 -1.3415  2.4856  2.5985
20961SOL    HW264561   3.814   4.883   6.015  2.9429 -2.6459  2.0787
20962SOL     OW64562   6.367   2.339   7.073  0.2098  0.0832  0.2663
20962SOL    HW164563   6.276   2.338   7.043 -0.0715 -0.1771  1.1130
20962SOL    HW264564   6.361   2.354   7.168  1.0887  1.1235  0.1658
20963SOL     OW64565   0.899   1.973   6.262  0.3383 -0.2193 -0.2467
20963SOL    HW164566   0.895   2.039   6.193  1.6392 -0.6267 -0.7309
20963SOL    HW264567   0.930   2.020   6.339 -0.7571  0.1594 -0.0297
20964SOL     OW64568   5.910   5.735   3.013 -0.4617  0.3778  0.0035
20964SOL    HW164569   5.965   5.795   3.063  0.9884 -0.9261  0.0434
20964SOL    HW264570   5.882   5.669   3.077  1.0243 -1.0388 -0.7589
20965SOL     OW64571   8.267   3.821   0.435 -0.6628  0.3789  0.1650
20965SOL    HW164572   8.177   3.788   0.423 -0.8330  1.0985 -0.5929
20965SOL    HW264573   8.255   3.910   0.468 -0.3244  1.7860 -3.2043
20966SOL     OW64574   2.235   9.268   2.772 -0.1934 -0.6459  0.2965
20966SOL    HW164575   2.190   9.206   2.715  1.8113 -2.3484  0.5134
20966SOL    HW264576   2.308   9.219   2.809  1.0441  1.6454  1.0191
20967SOL     OW64577   5.429   7.274   8.055 -0.9299  0.4342 -0.7533
20967SOL    HW164578   5.354   7.256   8.000 -1.5066 -0.9824  0.4415
20967SOL    HW264579   5.392   7.309   8.136 -0.2570  0.4806 -0.4572
20968SOL     OW64580   7.175   1.442   0.219 -0.4373 -0.1965  0.2981
20968SOL    HW164581   7.101   1.472   0.272 -1.5281 -0.6975 -0.9152
20968SOL    HW264582   7.232   1.518   0.213 -1.2102  0.4175  0.6303
20969SOL     OW64583   9.056   5.694   6.213  0.8875 -0.1737 -0.1736
20969SOL    HW164584   9.032   5.624   6.273 -1.0682 -0.0781 -0.7969
20969SOL    HW264585   9.044   5.774   6.264 -0.9441 -0.0816 -0.6932
20970SOL     OW64586   4.489   1.049   4.652 -0.3112 -0.1059  0.1355
20970SOL    HW164587   4.442   1.125   4.618 -1.7344 -0.8549  0.3445
20970SOL    HW264588   4.469   0.979   4.590 -0.8089 -0.8366  1.0879
20971SOL     OW64589   1.295   2.932   6.801  0.2569  0.0517  0.2461
20971SOL    HW164590   1.210   2.971   6.822 -0.3826 -1.2110  0.0705
20971SOL    HW264591   1.284   2.839   6.820  1.1050 -0.3740 -1.2960
20972SOL     OW64592   4.074   7.170   2.877 -0.2695 -0.3684 -0.1016
20972SOL    HW164593   4.019   7.094   2.856 -1.9209  0.6526  0.4698
20972SOL    HW264594   4.098   7.157   2.969 -1.0813  0.1179  0.1832
20973SOL     OW64595   0.949   7.906   6.966  0.2432 -0.8896  0.2858
20973SOL    HW164596   0.960   7.879   6.875 -1.2466 -0.2727 -0.0972
20973SOL    HW264597   0.947   7.824   7.016 -1.4368 -1.3736 -0.5405
20974SOL     OW64598   5.730   2.337   7.983  0.7178 -0.1983  0.1886
20974SOL    HW164599   5.804   2.387   7.949  0.8911 -0.8719 -0.4465
20974SOL    HW264600   5.658   2.400   7.987  1.6103  0.7337  1.8631
20975SOL     OW64601   4.250   6.757   1.991  0.2786  0.1058 -0.0254
20975SOL    HW164602   4.174   6.730   2.043 -1.5178  2.6994 -1.1738
20975SOL    HW264603   4.299   6.815   2.048 -0.5157  1.2006 -0.4301
20976SOL     OW64604   0.305   1.379   8.835 -0.0848 -0.0208  0.6002
20976SOL    HW164605   0.382   1.369   8.891  0.4586  5.1070  1.0235
20976SOL    HW264606   0.339   1.373   8.746 -0.0935 -2.9421  0.7660
20977SOL     OW64607   7.633   5.902   7.908 -0.3544  0.4455 -0.4452
20977SOL    HW164608   7.618   5.996   7.899  1.5670  1.3009  3.9012
20977SOL    HW264609   7.717   5.895   7.952 -0.8263 -3.2848  0.0476
20978SOL     OW64610   3.732   7.608   2.933 -0.5425 -0.5770  0.0338
20978SOL    HW164611   3.816   7.584   2.972 -2.1484 -1.5920  3.0403
20978SOL    HW264612   3.685   7.525   2.925 -2.3725  0.3151  1.2007
20979SOL     OW64613   3.829   9.199   3.891  0.0160 -0.5153 -0.2465
20979SOL    HW164614   3.810   9.135   3.823  0.3644 -0.9440  0.0611
20979SOL    HW264615   3.851   9.279   3.843  4.2185 -1.8453 -0.7894
20980SOL     OW64616   5.464   4.248   1.945 -0.1004 -0.0509  0.2658
20980SOL    HW164617   5.432   4.207   2.025 -0.6914 -1.2374 -0.5696
20980SOL    HW264618   5.559   4.237   1.948 -0.3343 -2.4661 -0.4701
20981SOL     OW64619   8.906   4.769   2.239  0.0167 -0.3059  0.2886
20981SOL    HW164620   8.962   4.812   2.304  0.5080 -0.6184  0.0790
20981SOL    HW264621   8.840   4.834   2.216  1.1171  0.5591 -0.4802
20982SOL     OW64622   8.778   3.393   1.084 -0.2654  0.4089  0.1371
20982SOL    HW164623   8.733   3.466   1.126  0.2689  1.7026 -1.4661
20982SOL    HW264624   8.857   3.432   1.047  0.2003 -1.0585 -0.4429
20983SOL     OW64625   0.498   2.133   7.195  0.7985 -0.5430  0.6366
20983SOL    HW164626   0.474   2.203   7.255  0.7353  0.0953 -0.1243
20983SOL    HW264627   0.587   2.155   7.168 -0.1546  0.7115 -1.6439
20984SOL     OW64628   3.099   1.388   1.277  0.1212 -0.1324  0.7680
20984SOL    HW164629   3.087   1.308   1.328 -1.9974  0.3421  1.0747
20984SOL    HW264630   3.192   1.410   1.288  0.1058 -0.9957  2.9950
20985SOL     OW64631   9.052   4.200   3.327  0.3008  0.2209  0.4846
20985SOL    HW164632   8.987   4.132   3.345 -0.5247  1.0975  0.8792
20985SOL    HW264633   9.000   4.276   3.303  1.2611  0.4085 -1.0344
20986SOL     OW64634   1.617   5.292   3.055 -0.0085 -0.3429  0.0152
20986SOL    HW164635   1.687   5.357   3.042 -2.0111  1.5014 -1.8878
20986SOL    HW264636   1.554   5.336   3.112 -2.6713  0.4850 -3.4112
20987SOL     OW64637   8.287   8.062   5.134  0.0503 -0.1266  0.1054
20987SOL    HW164638   8.371   8.039   5.172  0.1518 -0.9724 -0.6245
20987SOL    HW264639   8.306   8.082   5.042 -0.7745 -1.9014 -0.4702
20988SOL     OW64640   0.796   4.696   8.011  0.9667  0.2585  0.5169
20988SOL    HW164641   0.819   4.613   8.052  1.7851  0.6051  0.7827
20988SOL    HW264642   0.804   4.760   8.082 -1.4407  0.3278  0.7767
20989SOL     OW64643   0.622   8.329   2.689 -0.0891  0.3519 -0.3090
20989SOL    HW164644   0.703   8.352   2.643  0.0094 -0.3450 -0.4771
20989SOL    HW264645   0.570   8.282   2.624 -0.2432 -0.0196  0.0831
20990SOL     OW64646   2.778   6.019   7.239 -0.0825 -0.7394  0.2726
20990SOL    HW164647   2.749   6.106   7.211  0.3674 -0.1147  1.7255
20990SOL    HW264648   2.836   5.989   7.168  0.8655  0.7222  0.4213
20991SOL     OW64649   2.164   2.214   6.183  0.0184  0.4071 -0.6483
20991SOL    HW164650   2.223   2.155   6.229 -0.9962  0.3709  0.6333
20991SOL    HW264651   2.198   2.217   6.093  2.0033  0.4821  0.0989
20992SOL     OW64652   7.098   1.034   2.420 -0.1144  0.2350  0.7147
20992SOL    HW164653   7.031   1.100   2.402  0.1499  0.4796  0.6263
20992SOL    HW264654   7.109   1.038   2.516 -1.5811 -1.1293  0.9486
20993SOL     OW64655   2.007   2.074   9.023 -0.6549 -0.0667  0.2991
20993SOL    HW164656   1.984   2.165   9.004  0.8045  0.4939  1.1128
20993SOL    HW264657   2.103   2.071   9.015 -0.8112 -1.9112 -1.2888
20994SOL     OW64658   6.357   2.406   1.433  0.0164 -0.2445 -0.0149
20994SOL    HW164659   6.269   2.370   1.427  0.0482 -0.3488  0.1412
20994SOL    HW264660   6.364   2.465   1.358 -1.1319  1.8355  1.4583
20995SOL     OW64661   5.920   3.127   2.199  0.2907 -0.5020 -0.3356
20995SOL    HW164662   5.979   3.112   2.273 -0.8363  1.3694  0.9849
20995SOL    HW264663   5.972   3.176   2.135  0.5390  0.0363  0.2839
20996SOL     OW64664   1.835   1.595   0.905 -0.6998 -0.2605 -0.2883
20996SOL    HW164665   1.856   1.506   0.876  0.8517 -0.3833  1.1088
20996SOL    HW264666   1.756   1.585   0.957  0.6250 -1.1786  1.6090
20997SOL     OW64667   5.088   8.967   7.438  0.4993 -0.0135 -0.0624
20997SOL    HW164668   5.064   9.058   7.458 -0.5987 -0.5830  1.3212
20997SOL    HW264669   5.019   8.937   7.379  0.4794 -0.1501  0.0293
20998SOL     OW64670   0.563   3.249   5.481  0.3769  0.1209  0.1788
20998SOL    HW164671   0.596   3.159   5.481  0.0369 -0.0046  0.9316
20998SOL    HW264672   0.497   3.250   5.550 -0.7269  0.5462 -0.8665
20999SOL     OW64673   8.619   2.047   0.483  0.2206  0.2647 -0.4534
20999SOL    HW164674   8.565   2.097   0.422 -1.3022 -1.5176 -0.6191
20999SOL    HW264675   8.700   2.097   0.491 -1.0014  2.3842 -1.1193
21000SOL     OW64676   5.604   8.754   6.851 -0.4750  0.0834 -0.0404
21000SOL    HW164677   5.622   8.662   6.870  1.2621  0.2660 -0.6894
21000SOL    HW264678   5.627   8.800   6.932  0.5708  0.1466 -0.3632
21001SOL     OW64679   7.587   6.838   2.716  0.2022 -0.3065 -0.6293
21001SOL    HW164680   7.622   6.794   2.638 -0.1213  1.1561 -1.6097
21001SOL    HW264681   7.656   6.897   2.744 -0.4757  0.6845 -1.0335
21002SOL     OW64682   2.340   6.807   1.534  0.2344  0.2336  0.8944
21002SOL    HW164683   2.322   6.853   1.616 -0.9930  1.4734 -0.0375
21002SOL    HW264684   2.418   6.849   1.499  0.1602  0.3993  0.9276
21003SOL     OW64685   5.927   8.417   0.385 -0.2909  0.3171 -0.4859
21003SOL    HW164686   5.994   8.441   0.321 -0.6651  2.7212 -0.0150
21003SOL    HW264687   5.976   8.392   0.463  0.1814 -2.9408 -1.7488
21004SOL     OW64688   8.180   2.299   8.259  0.3539 -0.6215  0.4945
21004SOL    HW164689   8.216   2.358   8.193 -0.8862 -0.2143  0.1602
21004SOL    HW264690   8.108   2.254   8.214 -1.1704  0.4011  1.8313
21005SOL     OW64691   6.672   1.712   3.965 -0.2722 -0.3099  0.0776
21005SOL    HW164692   6.709   1.801   3.959  0.9346 -0.8912 -1.6488
21005SOL    HW264693   6.715   1.674   4.042  0.7377 -0.0643 -0.3517
21006SOL     OW64694   3.064   3.327   0.657 -0.6022 -0.1453  0.3949
21006SOL    HW164695   3.155   3.306   0.678 -0.3830 -0.4261 -0.7745
21006SOL    HW264696   3.068   3.414   0.619 -0.8206 -0.1637  0.3325
21007SOL     OW64697   7.840   3.805   5.884 -0.4188  0.0517 -0.3975
21007SOL    HW164698   7.910   3.832   5.823  0.9748 -0.1924  1.0620
21007SOL    HW264699   7.819   3.885   5.932 -1.5621  0.2551 -1.2089
21008SOL     OW64700   8.394   0.358   7.670 -0.0733  0.4260  0.6804
21008SOL    HW164701   8.341   0.333   7.746 -1.7811 -0.2037 -0.6981
21008SOL    HW264702   8.476   0.308   7.681 -1.0044 -1.0197  1.1916
21009SOL     OW64703   3.583   2.782   1.554  0.1791  0.8186 -0.2504
21009SOL    HW164704   3.635   2.797   1.475  0.5608 -2.1827 -0.6087
21009SOL    HW264705   3.635   2.720   1.606 -0.9363  1.3111  1.4957
21010SOL     OW64706   9.046   0.245   0.022  0.5549 -0.1694 -0.4429
21010SOL    HW164707   8.994   0.193   0.083  2.3853  0.2917  1.5321
21010SOL    HW264708   9.106   0.181  -0.018  1.8149  0.1485  0.9169
21011SOL     OW64709   8.496   0.510   8.973  0.4540 -0.1175 -0.8143
21011SOL    HW164710   8.519   0.485   8.884  0.5509 -0.6570 -0.6424
21011SOL    HW264711   8.400   0.513   8.974  0.4195 -1.0334 -0.6976
21012SOL     OW64712   4.909   6.759   4.536 -0.1918 -0.2363  0.5485
21012SOL    HW164713   4.850   6.714   4.597 -0.3876  1.4425  1.6111
21012SOL    HW264714   4.862   6.838   4.511  0.3879 -0.3306 -0.8977
21013SOL     OW64715   4.504   6.098   7.300  0.2137  0.0906  0.1741
21013SOL    HW164716   4.442   6.076   7.230 -2.6793  0.2473  2.5721
21013SOL    HW264717   4.565   6.024   7.302 -1.3963 -1.2954 -0.6611
21014SOL     OW64718   1.957   7.619   0.446 -0.8515  0.2465  0.4798
21014SOL    HW164719   1.961   7.570   0.528 -0.3270  0.1593  0.4035
21014SOL    HW264720   1.888   7.577   0.396 -0.5503 -0.2751  0.5065
21015SOL     OW64721   1.385   5.184   4.885  0.0166 -0.9974 -0.1464
21015SOL    HW164722   1.431   5.148   4.810  0.4678 -0.9828  0.1185
21015SOL    HW264723   1.295   5.197   4.855 -0.2574 -2.7366 -0.1096
21016SOL     OW64724   1.820   7.724   5.399 -0.2093 -0.0481 -0.4869
21016SOL    HW164725   1.812   7.696   5.490  0.2602 -2.8908 -1.2855
21016SOL    HW264726   1.782   7.812   5.398 -2.4553 -0.9205  1.9768
21017SOL     OW64727   3.303   8.634   2.890 -0.2761 -0.3612  0.2525
21017SOL    HW164728   3.344   8.659   2.973 -1.1679  0.9803  0.3029
21017SOL    HW264729   3.376   8.609   2.833  0.5714  1.3583  0.5534
21018SOL     OW64730   0.597   7.303   7.585  0.1955  0.1959  0.5222
21018SOL    HW164731   0.502   7.315   7.586  0.4429  2.3331  0.6607
21018SOL    HW264732   0.619   7.275   7.674 -0.3943 -1.1158  0.2598
21019SOL     OW64733   3.795   5.556   5.733  0.5872  0.1454 -0.1102
21019SOL    HW164734   3.849   5.481   5.758  1.2902  1.2168  1.6956
21019SOL    HW264735   3.705   5.529   5.752  0.8354 -0.2361  0.5116
21020SOL     OW64736   5.200   6.813   4.057  0.1861 -0.1568  0.5490
21020SOL    HW164737   5.265   6.875   4.025 -1.4219  0.9135 -0.6829
21020SOL    HW264738   5.191   6.833   4.150 -0.2787  1.4150  0.1673
21021SOL     OW64739   7.817   6.883   1.574  0.4825 -0.0996  0.6740
21021SOL    HW164740   7.748   6.821   1.550 -0.1805  0.5061  1.0045
21021SOL    HW264741   7.788   6.919   1.658  0.9224  0.5727  0.5385
21022SOL     OW64742   7.571   1.187   8.615  0.4232 -0.0555  0.2570
21022SOL    HW164743   7.645   1.212   8.669  1.2578  2.3038 -1.8936
21022SOL    HW264744   7.609   1.163   8.530 -1.1075 -0.7760 -0.2650
21023SOL     OW64745   4.534   1.468   1.764 -0.8849  0.5186  0.2480
21023SOL    HW164746   4.626   1.464   1.735 -0.9843  0.3108 -0.0507
21023SOL    HW264747   4.537   1.442   1.856 -0.6558  0.4143  0.2133
21024SOL     OW64748   1.457   5.465   1.934 -0.2231  0.0596  0.3503
21024SOL    HW164749   1.527   5.403   1.918 -0.5046 -0.1776  0.0162
21024SOL    HW264750   1.382   5.430   1.885 -0.4831  0.4686  0.4489
21025SOL     OW64751   9.182   0.312   3.877  0.2112  0.3174  0.0689
21025SOL    HW164752   9.196   0.337   3.968  0.1306  0.9665 -0.0973
21025SOL    HW264753   9.154   0.392   3.833 -0.8932 -0.2350 -0.2786
21026SOL     OW64754   5.246   9.016   5.780  0.2548  0.1459  0.1996
21026SOL    HW164755   5.280   9.090   5.830 -2.5907  1.4573  0.3333
21026SOL    HW264756   5.323   8.975   5.741  1.9246  3.0508  0.3386
21027SOL     OW64757   1.711   2.299   8.706  0.0976 -0.1964  0.2625
21027SOL    HW164758   1.616   2.291   8.708  0.1100 -0.7845 -0.8893
21027SOL    HW264759   1.734   2.283   8.614  1.3161 -0.1966  0.5618
21028SOL     OW64760   4.732   0.721   0.918  0.5584  0.1505  0.0566
21028SOL    HW164761   4.736   0.748   0.827 -1.4517 -0.2293 -0.1661
21028SOL    HW264762   4.763   0.798   0.967  0.9744  0.5930 -0.8981
21029SOL     OW64763   6.162   6.518   1.141 -0.0125  0.0324  0.0550
21029SOL    HW164764   6.240   6.508   1.195  0.7755  0.9943 -0.8683
21029SOL    HW264765   6.176   6.601   1.094 -2.0747  0.7852  0.6831
21030SOL     OW64766   8.623   4.632   3.841  0.0935  0.1140  0.1616
21030SOL    HW164767   8.532   4.605   3.827  0.2690 -0.6751  0.5380
21030SOL    HW264768   8.622   4.674   3.926 -0.2732  1.7529 -0.6345
21031SOL     OW64769   2.777   1.378   8.859  0.0308 -0.2051 -0.4040
21031SOL    HW164770   2.721   1.301   8.854  1.2091 -1.1316  0.3146
21031SOL    HW264771   2.864   1.346   8.835  0.5075  0.9409 -0.2652
21032SOL     OW64772   8.968   8.915   4.967  0.1326 -0.4399  0.9405
21032SOL    HW164773   9.012   8.922   5.052  1.7461 -0.8240  0.1729
21032SOL    HW264774   8.903   8.985   4.966  0.2887 -0.2731  2.3832
21033SOL     OW64775   8.852   4.227   6.890 -0.0275 -0.4381 -0.1280
21033SOL    HW164776   8.814   4.234   6.977 -2.2983  1.8711 -1.2250
21033SOL    HW264777   8.820   4.144   6.856 -1.2545 -0.1500  0.3030
21034SOL     OW64778   6.644   5.561   0.609  0.0560  0.2345 -0.1841
21034SOL    HW164779   6.670   5.652   0.594  0.7928 -0.0814 -0.8862
21034SOL    HW264780   6.585   5.564   0.684  2.1314  0.9974  1.4650
21035SOL     OW64781   0.771   3.223   6.218 -0.3496 -0.0918  0.5059
21035SOL    HW164782   0.730   3.306   6.192  1.3676  1.2189  1.8236
21035SOL    HW264783   0.697   3.166   6.240 -1.6185  0.4835 -2.1020
21036SOL     OW64784   0.962   8.727   9.071 -0.5457  0.1332 -0.3032
21036SOL    HW164785   1.031   8.709   9.007 -2.2244  1.2582 -2.4752
21036SOL    HW264786   0.915   8.644   9.079 -0.5271  0.0764 -0.7628
21037SOL     OW64787   4.620   2.821   0.749 -0.1056  0.3409  0.0914
21037SOL    HW164788   4.530   2.838   0.778  0.5736  1.7877  1.4096
21037SOL    HW264789   4.669   2.808   0.830  0.8142 -0.8187 -0.6385
21038SOL     OW64790   2.254   3.750   5.780  0.1190 -0.0490  0.3098
21038SOL    HW164791   2.236   3.666   5.739 -0.7827 -0.3837  1.3770
21038SOL    HW264792   2.273   3.809   5.706  1.6382 -1.3710 -0.3776
21039SOL     OW64793   8.202   8.954   0.950 -0.1897  0.0669 -0.2251
21039SOL    HW164794   8.253   8.886   0.993 -1.4138 -1.0739 -0.5386
21039SOL    HW264795   8.114   8.917   0.942 -0.2525  0.6505 -2.7173
21040SOL     OW64796   8.844   2.315   3.018 -0.3074 -0.1531  0.1161
21040SOL    HW164797   8.892   2.382   2.969  1.3408 -1.2978  0.1546
21040SOL    HW264798   8.804   2.363   3.090  1.3571  0.7205  0.4868
21041SOL     OW64799   2.934   2.049   0.233  0.4708  0.2946  0.0978
21041SOL    HW164800   2.867   1.980   0.232  0.1696  0.5617  1.3088
21041SOL    HW264801   2.926   2.090   0.147 -1.1024  0.4905  0.3180
21042SOL     OW64802   8.066   8.219   3.047 -0.0743 -0.1905 -0.3672
21042SOL    HW164803   8.130   8.290   3.046 -0.4414  0.1362 -0.5084
21042SOL    HW264804   8.026   8.224   3.134  0.3178 -0.6035 -0.1562
21043SOL     OW64805   4.289   0.452   7.614  0.7402 -0.3512 -0.7977
21043SOL    HW164806   4.361   0.449   7.677  1.1975 -0.6093 -1.3213
21043SOL    HW264807   4.211   0.434   7.666  1.1294 -0.7149 -0.3303
21044SOL     OW64808   5.229   2.408   3.816  0.0383  0.0550 -0.1596
21044SOL    HW164809   5.203   2.317   3.803 -0.4293  0.2888 -0.8343
21044SOL    HW264810   5.325   2.405   3.814 -0.0028 -0.0472 -2.7065
21045SOL     OW64811   3.080   6.301   3.300  0.1486 -0.3439 -0.0315
21045SOL    HW164812   3.039   6.232   3.353  1.2807 -2.0240 -1.3053
21045SOL    HW264813   3.165   6.315   3.341  0.3445 -0.4439 -0.4083
21046SOL     OW64814   0.178   4.540   1.168  0.0267 -0.3068 -0.1132
21046SOL    HW164815   0.242   4.609   1.153 -0.5527  0.4566  0.7843
21046SOL    HW264816   0.227   4.470   1.212  0.7642 -0.7559 -1.6468
21047SOL     OW64817   2.948   7.274   7.511 -0.8132  0.0232 -0.3038
21047SOL    HW164818   2.859   7.271   7.476 -1.3524 -3.1072  1.1547
21047SOL    HW264819   2.941   7.324   7.592 -1.2211 -0.0462 -0.2977
21048SOL     OW64820   1.497   4.466   3.349  0.5030  0.5813 -0.4712
21048SOL    HW164821   1.575   4.482   3.401  0.0203 -0.4227  0.5836
21048SOL    HW264822   1.503   4.528   3.276  2.0735  0.7789 -0.1863
21049SOL     OW64823   7.609   7.349   8.564 -0.6459  0.2323  0.1636
21049SOL    HW164824   7.655   7.283   8.616  1.2700  1.8193  0.5340
21049SOL    HW264825   7.679   7.402   8.525 -2.0687  0.0068 -2.8274
21050SOL     OW64826   7.770   6.362   8.982  0.1485  0.2448  0.0058
21050SOL    HW164827   7.764   6.387   9.074  0.7262  0.8793 -0.1223
21050SOL    HW264828   7.841   6.416   8.947  1.2713 -1.3889 -0.3398
21051SOL     OW64829   6.457   3.384   2.200  0.3491 -0.0345 -0.4823
21051SOL    HW164830   6.418   3.392   2.287 -0.9103 -1.4215 -0.9116
21051SOL    HW264831   6.428   3.299   2.168  1.6654  0.0092 -1.8433
21052SOL     OW64832   7.250   0.602   5.395  0.1421 -0.0562 -0.9250
21052SOL    HW164833   7.277   0.651   5.318 -0.6325  2.2317  0.2120
21052SOL    HW264834   7.271   0.659   5.469 -2.3540 -0.6720  0.3217
21053SOL     OW64835   8.817   4.819   0.801  0.1824 -0.5831 -0.0171
21053SOL    HW164836   8.744   4.855   0.750  1.2652  1.2997 -0.2715
21053SOL    HW264837   8.840   4.738   0.756 -2.8337 -2.0767  1.0298
21054SOL     OW64838   6.067   0.521   8.694  0.3763  0.3640 -0.0969
21054SOL    HW164839   6.124   0.593   8.667  0.8203 -0.3974 -1.2218
21054SOL    HW264840   6.011   0.505   8.618 -1.4511  1.1749  1.0212
21055SOL     OW64841   3.667   1.906   3.231 -0.2095 -0.1673 -0.4975
21055SOL    HW164842   3.701   1.841   3.170  0.9061  0.6174 -0.7336
21055SOL    HW264843   3.603   1.956   3.180  0.4776  0.2746 -0.9319
21056SOL     OW64844   3.267   4.138   5.451 -0.1626 -0.5688  0.4424
21056SOL    HW164845   3.352   4.093   5.456 -0.2192 -0.7315 -0.0955
21056SOL    HW264846   3.203   4.068   5.463 -0.2784 -0.7886 -1.3699
21057SOL     OW64847   7.460   0.262   7.725  0.4533  0.2437 -0.2200
21057SOL    HW164848   7.480   0.354   7.712  2.3500  0.0216  0.9052
21057SOL    HW264849   7.484   0.220   7.642  0.1895  0.6612 -0.5100
21058SOL     OW64850   4.438   0.836   4.221 -0.0455 -0.4358  0.5633
21058SOL    HW164851   4.345   0.850   4.241  0.3780  1.9500  0.9900
21058SOL    HW264852   4.482   0.843   4.306  0.7796  0.9272  0.0367
21059SOL     OW64853   3.213   1.771   5.374 -0.2093 -0.0353 -0.6760
21059SOL    HW164854   3.211   1.679   5.347  1.1403 -0.7367  1.4998
21059SOL    HW264855   3.297   1.804   5.342  0.0128 -0.0068 -0.0701
21060SOL     OW64856   9.201   1.856   4.851 -0.1956  0.4187  0.2151
21060SOL    HW164857   9.178   1.882   4.940  0.6707  0.0597  0.5509
21060SOL    HW264858   9.236   1.936   4.811 -0.0916  0.4505  0.3675
21061SOL     OW64859   0.795   5.159   7.276  0.3531 -0.0824 -0.4143
21061SOL    HW164860   0.827   5.133   7.190  1.0075  0.1066 -0.2241
21061SOL    HW264861   0.747   5.082   7.308 -1.9220  0.6337 -1.9306
21062SOL     OW64862   1.596   3.449   3.686 -0.2768  0.0992 -0.2327
21062SOL    HW164863   1.533   3.521   3.690 -0.7909 -0.3732  0.2665
21062SOL    HW264864   1.679   3.491   3.662 -0.2137  1.1174  1.6259
21063SOL     OW64865   1.246   6.067   8.437  0.1914  0.4213 -0.5136
21063SOL    HW164866   1.312   6.031   8.379 -0.0139 -0.1240 -0.4112
21063SOL    HW264867   1.269   6.034   8.524 -1.6660 -1.9140 -0.8315
21064SOL     OW64868   0.989   2.772   5.047 -0.4326  0.0232 -0.6343
21064SOL    HW164869   0.923   2.724   5.096  0.9806 -0.1078  1.2070
21064SOL    HW264870   0.969   2.864   5.063  0.5471 -0.0229  0.9556
21065SOL     OW64871   3.519   6.982   8.168  0.1789 -0.1040  0.4135
21065SOL    HW164872   3.435   6.957   8.205 -0.7720 -1.1604 -2.3529
21065SOL    HW264873   3.582   6.922   8.209 -0.6913 -0.6290  0.9973
21066SOL     OW64874   4.747   1.676   8.024 -0.0631 -0.0667  0.0547
21066SOL    HW164875   4.755   1.770   8.009 -1.1247 -0.0657 -0.5586
21066SOL    HW264876   4.837   1.645   8.037  0.3039  0.9887  0.0138
21067SOL     OW64877   3.655   8.354   9.209  0.2226  0.2669  0.2245
21067SOL    HW164878   3.671   8.263   9.232  0.5605 -0.0091 -1.0381
21067SOL    HW264879   3.724   8.403   9.254  2.1741 -0.4818 -1.8563
21068SOL     OW64880   9.131   4.021   6.973  0.1607 -0.4644  0.5363
21068SOL    HW164881   9.206   4.067   7.010 -0.8839  0.3584  1.7190
21068SOL    HW264882   9.111   4.068   6.892  0.1810  0.0663  0.8395
21069SOL     OW64883   3.698   6.154   3.976  0.0711 -0.0351 -0.2568
21069SOL    HW164884   3.786   6.170   4.012 -0.4198  0.8138  0.5966
21069SOL    HW264885   3.656   6.239   3.978 -2.6150 -1.2614  4.3740
21070SOL     OW64886   9.141   8.879   6.786  0.9419 -0.5714 -0.0913
21070SOL    HW164887   9.171   8.792   6.760  0.7787 -0.1571 -1.7183
21070SOL    HW264888   9.058   8.891   6.739  0.7865  0.3101  0.4057
21071SOL     OW64889   8.184   6.051   3.535  0.0874 -0.2296  0.3031
21071SOL    HW164890   8.120   6.042   3.464 -0.2367  0.5141  0.4969
21071SOL    HW264891   8.163   5.980   3.595 -0.9968  0.4108  0.6950
21072SOL     OW64892   0.992   3.441   4.887 -0.0337 -0.7356 -0.2185
21072SOL    HW164893   0.990   3.456   4.981 -0.6631 -1.5642 -0.0923
21072SOL    HW264894   1.085   3.438   4.864  0.1209 -0.7780  0.4158
21073SOL     OW64895   8.576   2.871   7.042 -0.1790  0.1288  0.2809
21073SOL    HW164896   8.514   2.931   7.085 -2.0626 -1.6475  0.1154
21073SOL    HW264897   8.567   2.890   6.949 -0.5809 -0.2105  0.2484
21074SOL     OW64898   5.088   1.185   1.060  0.0841 -0.7174 -0.0076
21074SOL    HW164899   5.114   1.095   1.078 -1.4906 -1.2397 -0.2586
21074SOL    HW264900   5.036   1.180   0.980 -0.0851  0.3971  0.0218
21075SOL     OW64901   8.925   8.990   1.716  0.6667 -0.7640  0.7275
21075SOL    HW164902   8.941   8.980   1.809  0.2551 -1.0151  0.7714
21075SOL    HW264903   8.988   8.932   1.674  0.2230 -1.3551  0.8799
21076SOL     OW64904   7.770   2.321   9.281  0.0367 -0.1086 -0.2468
21076SOL    HW164905   7.840   2.325   9.347 -1.2203  1.7217  1.0198
21076SOL    HW264906   7.760   2.411   9.251 -2.0289 -0.2787 -0.1340
21077SOL     OW64907   6.375   3.814   6.369  0.2554 -0.3929  0.0950
21077SOL    HW164908   6.413   3.865   6.297  0.0984  1.0257  0.9859
21077SOL    HW264909   6.447   3.757   6.397  0.5789 -0.3593 -0.6446
21078SOL     OW64910   8.016   7.961   2.227  0.2329 -0.6167  0.2631
21078SOL    HW164911   8.065   7.949   2.146  0.6468 -1.9288  0.6921
21078SOL    HW264912   8.080   7.996   2.289  0.5675 -2.0283  0.7331
21079SOL     OW64913   2.721   1.876   0.195 -0.6672 -0.1511 -0.0514
21079SOL    HW164914   2.736   1.796   0.246  0.4468  0.7612  1.0711
21079SOL    HW264915   2.683   1.845   0.113  1.5560 -2.0103 -0.4158
21080SOL     OW64916   9.288   4.657   5.443 -0.2985 -0.0261 -0.0891
21080SOL    HW164917   9.337   4.600   5.384 -1.6243 -1.5404  0.2364
21080SOL    HW264918   9.229   4.598   5.489  0.4100  1.1961  2.4616
21081SOL     OW64919   4.171   8.369   5.413 -0.4169  0.2279 -0.4510
21081SOL    HW164920   4.199   8.459   5.429 -0.2706  0.0388  0.4319
21081SOL    HW264921   4.101   8.376   5.349 -0.9621  1.0536  0.2221
21082SOL     OW64922   2.002   6.674   6.830  0.2110  0.5781  0.3542
21082SOL    HW164923   2.059   6.715   6.895 -0.4018  0.8694  0.7155
21082SOL    HW264924   1.956   6.748   6.789 -0.0301  0.3344  0.1864
21083SOL     OW64925   8.083   3.865   7.470  0.2313 -0.0599 -0.8573
21083SOL    HW164926   8.111   3.949   7.507  0.5766 -0.6101  0.1385
21083SOL    HW264927   7.988   3.864   7.483  0.0048  0.8723 -2.3208
21084SOL     OW64928   4.878   8.014   3.163 -0.4891 -0.6578 -0.1497
21084SOL    HW164929   4.952   8.037   3.220  0.9731  1.7820 -2.8476
21084SOL    HW264930   4.803   8.057   3.203  0.2127 -0.2740  0.7846
21085SOL     OW64931   3.890   3.550   0.511 -0.3046 -0.2945 -0.1630
21085SOL    HW164932   3.908   3.541   0.418 -0.3401  0.4157 -0.2391
21085SOL    HW264933   3.805   3.507   0.523 -0.2352 -0.5093 -0.4310
21086SOL     OW64934   1.678   8.300   4.867  0.0516  0.0271  0.4104
21086SOL    HW164935   1.707   8.314   4.957  1.6856  1.0926 -0.2587
21086SOL    HW264936   1.729   8.363   4.815 -1.6915  0.2201 -1.1211
21087SOL     OW64937   6.821   3.486   8.046 -0.2244  0.5369 -0.5286
21087SOL    HW164938   6.885   3.438   7.994 -0.7654 -1.6503  0.7317
21087SOL    HW264939   6.871   3.521   8.120 -0.2084  0.1064 -0.3350
21088SOL     OW64940   7.298   0.619   1.977  0.1783 -0.1197 -0.2340
21088SOL    HW164941   7.216   0.663   2.000  0.5871  1.2512 -1.2672
21088SOL    HW264942   7.312   0.556   2.047 -0.0740  1.9209  1.7420
21089SOL     OW64943   4.686   6.764   5.204  0.3380 -0.4075  0.4496
21089SOL    HW164944   4.661   6.850   5.170 -0.8427 -0.4806  1.1170
21089SOL    HW264945   4.741   6.727   5.136 -0.9754 -0.0378 -0.8417
21090SOL     OW64946   0.089   4.120   8.866 -0.2236 -0.2793  0.1100
21090SOL    HW164947   0.064   4.110   8.958 -0.3860  1.0174  0.2125
21090SOL    HW264948   0.150   4.048   8.850 -1.7676 -1.7496  0.6565
21091SOL     OW64949   3.425   0.525   0.253 -1.0684  0.4203  0.3400
21091SOL    HW164950   3.494   0.465   0.282 -2.0388  0.4848  2.9295
21091SOL    HW264951   3.462   0.612   0.267 -0.9766  0.4456 -0.0598
21092SOL     OW64952   8.327   0.638   6.327 -0.3450  0.1236  0.7066
21092SOL    HW164953   8.324   0.706   6.393  0.4842 -0.2540  1.1374
21092SOL    HW264954   8.264   0.572   6.357 -1.2695  0.7631  0.2040
21093SOL     OW64955   6.913   0.621   3.706  0.5329  0.2964  0.0480
21093SOL    HW164956   6.937   0.688   3.642 -1.4735 -0.7600 -1.8904
21093SOL    HW264957   6.979   0.628   3.774  1.0502  3.4448 -0.6954
21094SOL     OW64958   3.227   7.973   1.462  0.4059  0.1730  0.4512
21094SOL    HW164959   3.190   7.946   1.378  0.4622 -0.6217  0.6805
21094SOL    HW264960   3.316   7.938   1.462 -0.1470 -1.2739  1.5334
21095SOL     OW64961   0.053   3.552   6.521 -0.1595 -0.3066  0.3238
21095SOL    HW164962  -0.037   3.533   6.493  0.0296 -0.9885  0.1519
21095SOL    HW264963   0.047   3.635   6.568 -1.5875 -2.2870  3.8504
21096SOL     OW64964   1.305   2.966   2.880  0.4214  0.1699 -0.1757
21096SOL    HW164965   1.324   2.882   2.840  1.0467  0.4145 -0.3944
21096SOL    HW264966   1.211   2.979   2.865  0.6969  0.3926 -1.8103
21097SOL     OW64967   9.033   4.475   7.568 -0.2014 -0.1749 -0.2593
21097SOL    HW164968   9.031   4.381   7.553  0.2393 -0.7228  2.7305
21097SOL    HW264969   8.950   4.507   7.531 -1.5210 -2.1352  0.8714
21098SOL     OW64970   2.634   7.429   7.602 -0.0683 -0.3934  0.2984
21098SOL    HW164971   2.619   7.495   7.535  0.5129  0.3582  0.9019
21098SOL    HW264972   2.696   7.469   7.663  0.7807 -1.7191  0.3349
21099SOL     OW64973   1.181   6.303   6.768  0.6783  0.6133 -0.6214
21099SOL    HW164974   1.217   6.246   6.699 -0.1015 -1.6728  0.8185
21099SOL    HW264975   1.086   6.299   6.755  0.5820  0.9776 -0.0243
21100SOL     OW64976   6.896   7.741   6.821 -0.0649 -0.0588 -0.1081
21100SOL    HW164977   6.941   7.760   6.904 -0.2711 -0.1467  0.0229
21100SOL    HW264978   6.870   7.650   6.828 -3.6234  1.0049  1.3944
21101SOL     OW64979   1.940   4.688   7.334 -0.5861 -0.6699 -0.0513
21101SOL    HW164980   1.953   4.781   7.314  0.3501 -0.6207  0.7147
21101SOL    HW264981   1.912   4.687   7.425 -1.5912 -1.0782 -0.3648
21102SOL     OW64982   0.634   4.916   1.696  0.4059 -0.1532  0.3645
21102SOL    HW164983   0.691   4.865   1.753  2.1145  2.0062  0.6663
21102SOL    HW264984   0.688   4.990   1.667 -1.2862  0.3056 -1.8279
21103SOL     OW64985   2.104   8.751   7.480  0.0726  0.4548 -0.0609
21103SOL    HW164986   2.060   8.792   7.554 -0.1784  0.6328 -0.3083
21103SOL    HW264987   2.036   8.740   7.414  0.4465  0.9786 -0.5507
21104SOL     OW64988   4.769   9.232   4.330 -0.0696 -0.3217 -0.8604
21104SOL    HW164989   4.864   9.220   4.336 -0.1393 -0.2384  0.5119
21104SOL    HW264990   4.736   9.204   4.415 -1.3067 -0.5816 -1.4180
21105SOL     OW64991   5.970   5.585   1.910  0.1035 -0.3286 -0.6164
21105SOL    HW164992   5.969   5.499   1.867  1.2701  0.0356 -1.3891
21105SOL    HW264993   6.058   5.592   1.947  0.6452  1.3009 -2.1393
21106SOL     OW64994   4.772   2.159   3.618  0.4225  0.0531  0.4221
21106SOL    HW164995   4.827   2.217   3.565 -0.3964 -0.6264 -1.2058
21106SOL    HW264996   4.834   2.100   3.662  0.9993 -1.3279 -2.1455
21107SOL     OW64997   1.572   8.271   2.332 -0.0509 -0.2604 -0.4437
21107SOL    HW164998   1.571   8.343   2.270 -0.7796 -1.2181 -1.5713
21107SOL    HW264999   1.507   8.295   2.398  0.8957  0.8679  0.0898
21108SOL     OW65000   1.916   6.405   8.275 -0.4304  0.3825  0.7364
21108SOL    HW165001   1.862   6.462   8.220 -0.2977 -0.8223 -0.6838
21108SOL    HW265002   1.986   6.462   8.307 -2.1195  1.7946  2.0302
21109SOL     OW65003   4.043   7.890   9.105 -0.3576  0.0912  0.4415
21109SOL    HW165004   3.963   7.844   9.130 -0.4470  0.6924  1.2871
21109SOL    HW265005   4.012   7.969   9.060 -0.3204  1.6803  3.1200
21110SOL     OW65006   9.045   6.885   4.507 -0.0927 -0.0888 -0.4368
21110SOL    HW165007   9.119   6.874   4.566 -1.3125  0.5619  1.2802
21110SOL    HW265008   9.048   6.810   4.449  2.2808  0.2733 -0.8006
21111SOL     OW65009   5.455   4.981   1.706  0.4666  0.3021  0.4522
21111SOL    HW165010   5.451   5.076   1.715 -0.1127  0.4539 -1.2482
21111SOL    HW265011   5.367   4.952   1.732  1.0323  0.1022  2.2077
21112SOL     OW65012   0.575   9.057   4.981  0.3129 -0.3888 -0.5611
21112SOL    HW165013   0.634   9.060   5.055  1.3963 -1.4830 -1.3561
21112SOL    HW265014   0.535   8.970   4.986  0.6259 -0.5894 -1.4224
21113SOL     OW65015   2.907   1.617   3.417 -0.4710  0.2916  0.4140
21113SOL    HW165016   2.913   1.607   3.512  0.5138  0.0211  0.3293
21113SOL    HW265017   2.833   1.561   3.392  1.7463 -2.8849  0.5728
21114SOL     OW65018   7.632   9.220   1.506  0.4890  0.3517  0.7009
21114SOL    HW165019   7.588   9.162   1.444 -0.3538  1.6509  0.0604
21114SOL    HW265020   7.561   9.262   1.554  1.0981  0.5806  1.4147
21115SOL     OW65021   8.836   2.953   2.424  0.4244  0.9611 -0.6330
21115SOL    HW165022   8.838   3.048   2.434 -0.9003  1.0200 -0.7392
21115SOL    HW265023   8.804   2.920   2.508 -0.0792  0.6854 -0.9290
21116SOL     OW65024   0.488   8.696   4.635 -0.1865  0.0512  0.1781
21116SOL    HW165025   0.460   8.642   4.710  1.4037 -0.0971  0.6786
21116SOL    HW265026   0.499   8.633   4.563  0.0938 -0.0615  0.3203
21117SOL     OW65027   9.184   3.453   0.774 -0.3024  0.4975 -0.0198
21117SOL    HW165028   9.092   3.430   0.767  0.0111 -0.5841 -0.9174
21117SOL    HW265029   9.220   3.433   0.687  0.6226  1.6086  0.0939
21118SOL     OW65030   4.108   4.117   5.579 -0.4035 -0.0873  0.4015
21118SOL    HW165031   4.122   4.026   5.554  0.8325 -0.1395  1.2468
21118SOL    HW265032   4.033   4.113   5.639 -0.6087 -0.4975  0.1219
21119SOL     OW65033   8.083   1.462   3.378  0.3550  0.0503  0.4379
21119SOL    HW165034   8.178   1.455   3.380  0.2679 -1.1276  0.5514
21119SOL    HW265035   8.062   1.523   3.449  0.8828 -1.3221  1.7951
21120SOL     OW65036   1.515   6.232   6.738 -0.5288  0.0279  0.1935
21120SOL    HW165037   1.592   6.177   6.722 -0.5543 -0.2355  0.9540
21120SOL    HW265038   1.441   6.172   6.733 -0.4068 -0.3981  2.9982
21121SOL     OW65039   3.008   2.427   6.592  0.8820 -0.0928  0.9843
21121SOL    HW165040   2.920   2.396   6.615  0.7403 -0.4248  0.0166
21121SOL    HW265041   3.005   2.521   6.608  0.5703 -0.2152  1.6534
21122SOL     OW65042   1.281   7.976   1.882  0.4610  0.0659 -0.2977
21122SOL    HW165043   1.356   7.931   1.845  0.3754  0.3796 -0.8503
21122SOL    HW265044   1.289   8.066   1.851  1.3313  0.7455  1.8181
21123SOL     OW65045   0.951   4.511   4.607 -0.2569 -0.5382 -0.0059
21123SOL    HW165046   1.018   4.469   4.553 -1.4028 -0.1999 -1.7223
21123SOL    HW265047   0.948   4.458   4.687  1.6932 -0.8468 -0.1093
21124SOL     OW65048   5.519   8.876   3.311  0.2102  0.3169  0.7043
21124SOL    HW165049   5.486   8.827   3.386 -0.5548  0.9771  0.8134
21124SOL    HW265050   5.516   8.814   3.238  0.6537 -0.2298  1.1544
21125SOL     OW65051   2.145   4.030   1.305  0.1846  0.2060  0.1666
21125SOL    HW165052   2.215   4.062   1.362 -0.8889  0.6227  1.2864
21125SOL    HW265053   2.082   4.102   1.302  0.1268  0.0965 -1.3819
21126SOL     OW65054   2.045   5.106   4.086 -0.1486 -0.6161  0.3747
21126SOL    HW165055   1.953   5.100   4.063 -0.3475  0.7780  0.7452
21126SOL    HW265056   2.074   5.190   4.049  0.8970 -0.9041  0.5056
21127SOL     OW65057   5.832   5.329   5.239 -0.2084  0.1089 -0.4833
21127SOL    HW165058   5.802   5.244   5.207  0.6316 -0.3852  0.0349
21127SOL    HW265059   5.926   5.317   5.254 -0.0701  1.1551 -0.5044
21128SOL     OW65060   7.347   0.909   8.706  0.2298  0.4203 -0.5840
21128SOL    HW165061   7.416   0.958   8.662  1.2826 -1.0942 -0.6545
21128SOL    HW265062   7.384   0.822   8.720 -0.6559  0.3816  1.8330
21129SOL     OW65063   6.716   2.181   0.066  0.0765 -0.3671 -0.1158
21129SOL    HW165064   6.641   2.146   0.018  0.1429 -0.0545 -0.4554
21129SOL    HW265065   6.688   2.185   0.157 -0.1773 -0.6312 -0.1838
21130SOL     OW65066   5.575   1.498   2.006  0.1024 -0.5059  0.1801
21130SOL    HW165067   5.630   1.471   1.932 -0.1259 -0.3849 -0.0355
21130SOL    HW265068   5.497   1.443   1.998  1.2684 -2.4901  1.9476
21131SOL     OW65069   1.403   6.683   0.773 -0.2054  0.2470 -0.3361
21131SOL    HW165070   1.475   6.719   0.720  1.3819 -1.0027  0.9347
21131SOL    HW265071   1.407   6.733   0.855  0.0679 -0.7193  0.2475
21132SOL     OW65072   6.869   7.537   5.882  0.0885 -0.2644 -0.5511
21132SOL    HW165073   6.814   7.616   5.881 -0.3872 -0.6105 -3.1675
21132SOL    HW265074   6.953   7.566   5.848  0.4252 -0.5439  0.0328
21133SOL     OW65075   3.118   2.347   5.490 -0.1061  0.4129  0.1505
21133SOL    HW165076   3.158   2.343   5.577  1.2551  0.7167 -0.4585
21133SOL    HW265077   3.115   2.256   5.461  0.9606  0.4833 -0.1766
21134SOL     OW65078   9.105   4.461   5.542  0.0987 -0.1203  0.1598
21134SOL    HW165079   9.030   4.506   5.580 -0.7936 -1.5071  0.0687
21134SOL    HW265080   9.113   4.380   5.592 -0.7260 -1.7033 -2.1823
21135SOL     OW65081   1.722   0.828   3.454  0.6241  0.5422 -0.2261
21135SOL    HW165082   1.639   0.817   3.500  1.0681  0.6873  0.6227
21135SOL    HW265083   1.735   0.746   3.407 -0.3764  0.8104 -0.9934
21136SOL     OW65084   2.041   0.956   6.123 -0.1125 -0.5366  0.2308
21136SOL    HW165085   1.972   1.012   6.159 -0.7622 -1.5184  0.5383
21136SOL    HW265086   2.119   0.980   6.172  0.2187  1.9010 -1.3655
21137SOL     OW65087   4.436   3.430   7.235 -0.3087 -0.0133  0.4742
21137SOL    HW165088   4.447   3.511   7.184 -1.2564  0.3996  0.9120
21137SOL    HW265089   4.525   3.404   7.257  0.0973  0.0020 -1.0897
21138SOL     OW65090   6.645   0.607   1.797 -0.1017 -0.4583 -0.3702
21138SOL    HW165091   6.647   0.701   1.779 -0.9938 -0.2577  0.5734
21138SOL    HW265092   6.647   0.601   1.892  0.2290 -1.4123 -0.4361
21139SOL     OW65093   6.241   3.065   3.053 -0.0250 -0.1972  0.0974
21139SOL    HW165094   6.227   3.160   3.055 -0.9414 -0.3099 -0.7186
21139SOL    HW265095   6.330   3.054   3.088 -0.2611  0.8845  1.1002
21140SOL     OW65096   0.323   2.283   5.302  0.1826  0.2368  0.4429
21140SOL    HW165097   0.385   2.210   5.307 -0.4815 -0.2845  1.3484
21140SOL    HW265098   0.315   2.302   5.209  1.4491  0.0995  0.2925
21141SOL     OW65099   1.537   5.534   3.857  0.1556  0.3160  0.1224
21141SOL    HW165100   1.562   5.483   3.780 -1.3225  0.0001 -0.1782
21141SOL    HW265101   1.577   5.620   3.843  0.6887 -0.0374 -0.5386
21142SOL     OW65102   0.180   8.354   0.307 -0.3619 -0.0996  0.2910
21142SOL    HW165103   0.254   8.408   0.281 -0.9102  1.2988  1.5564
21142SOL    HW265104   0.190   8.345   0.402 -1.5884 -0.2219  0.4169
21143SOL     OW65105   0.111   7.371   4.665  0.0601  0.0175  0.4722
21143SOL    HW165106   0.178   7.373   4.733 -0.8268  0.2769  1.3361
21143SOL    HW265107   0.033   7.337   4.708 -0.2910 -0.5683 -0.6061
21144SOL     OW65108   8.503   6.650   8.649 -0.1636  0.0589  0.2562
21144SOL    HW165109   8.489   6.743   8.667  0.1308  0.4205 -1.3297
21144SOL    HW265110   8.440   6.606   8.705 -1.1800  1.2777  0.1160
21145SOL     OW65111   2.459   1.976   7.623  0.1780 -0.2398  0.3932
21145SOL    HW165112   2.487   2.056   7.578 -1.1286  0.3324  0.5818
21145SOL    HW265113   2.432   2.005   7.710  2.4469 -1.3104  1.4949
21146SOL     OW65114   5.759   2.484   5.213 -0.0861 -0.1851  0.2105
21146SOL    HW165115   5.802   2.445   5.137  1.0279 -1.8817  1.6688
21146SOL    HW265116   5.726   2.409   5.262  0.5571  0.8063  2.1832
21147SOL     OW65117   0.435   0.001   8.399  0.0749 -0.3345  0.4680
21147SOL    HW165118   0.354  -0.045   8.380 -0.7028  0.8708  0.7822
21147SOL    HW265119   0.445  -0.005   8.494  1.2938 -1.9977  0.2543
21148SOL     OW65120   8.824   6.988   0.438 -0.1666 -0.1656  0.5144
21148SOL    HW165121   8.916   7.011   0.433 -0.1648  0.3613  2.4639
21148SOL    HW265122   8.781   7.069   0.466 -0.9159 -0.9965  1.8315
21149SOL     OW65123   2.870   6.478   3.420  0.1982 -0.5442  0.1496
21149SOL    HW165124   2.936   6.414   3.391  1.3597  0.9595 -0.6082
21149SOL    HW265125   2.920   6.556   3.441 -1.0452 -0.3995  2.7039
21150SOL     OW65126   4.836   3.474   0.757  0.3331 -0.3663 -0.1301
21150SOL    HW165127   4.790   3.480   0.673  0.4534 -0.1653 -0.1800
21150SOL    HW265128   4.893   3.551   0.760  1.1137 -0.9285 -0.3339
21151SOL     OW65129   3.538   7.160   6.045  0.1460 -0.3487 -0.0627
21151SOL    HW165130   3.578   7.078   6.073  2.0811  0.2067 -1.0819
21151SOL    HW265131   3.450   7.157   6.082  1.1048 -1.6037  2.2649
21152SOL     OW65132   1.141   1.162   5.726 -0.1605  0.3529  0.1557
21152SOL    HW165133   1.077   1.093   5.746 -0.8412  0.2563 -2.2114
21152SOL    HW265134   1.225   1.124   5.751 -0.5721 -1.2545 -0.7883
21153SOL     OW65135   3.865   8.887   7.756  0.4183 -0.3723 -0.4229
21153SOL    HW165136   3.864   8.980   7.735  2.0186 -0.5200 -1.2131
21153SOL    HW265137   3.896   8.883   7.846  0.0261 -0.1289 -0.2743
21154SOL     OW65138   3.730   8.751   3.118 -0.1505  0.0593 -0.0614
21154SOL    HW165139   3.725   8.656   3.106  0.0529 -0.0085  0.3634
21154SOL    HW265140   3.749   8.786   3.031 -1.1658 -0.2194 -0.3946
21155SOL     OW65141   9.005   1.619   8.729  0.5507  0.2304 -0.3167
21155SOL    HW165142   9.065   1.649   8.797 -0.2168  0.8298  0.0959
21155SOL    HW265143   8.918   1.637   8.763  0.1779  2.1848 -2.1899
21156SOL     OW65144   8.091   5.074   6.964  0.2293 -0.4624 -0.6152
21156SOL    HW165145   8.184   5.079   6.941  0.2662  1.2978 -0.2038
21156SOL    HW265146   8.045   5.098   6.883  0.1541 -0.6119 -0.6167
21157SOL     OW65147   0.991   5.806   6.307 -0.2178 -0.1455 -0.6592
21157SOL    HW165148   1.040   5.748   6.250 -0.3331 -1.1531  0.2498
21157SOL    HW265149   1.043   5.886   6.311  0.1986 -0.3678 -1.5061
21158SOL     OW65150   6.858   3.578   2.864  0.4062  0.1285 -1.1022
21158SOL    HW165151   6.800   3.654   2.860  0.1339  0.0200  0.4891
21158SOL    HW265152   6.899   3.583   2.950 -0.7809 -2.3284 -0.3269
21159SOL     OW65153   5.038   6.090   0.575  0.3102  0.1726  0.4273
21159SOL    HW165154   5.084   6.157   0.525  1.2936 -1.2188 -0.5722
21159SOL    HW265155   5.104   6.023   0.592 -1.2932 -1.8157 -0.9339
21160SOL     OW65156   7.554   5.386   8.754  0.6539 -0.1655  0.3309
21160SOL    HW165157   7.529   5.469   8.714  2.0256  0.0136 -0.1986
21160SOL    HW265158   7.600   5.410   8.834 -1.8851 -0.5208  1.9621
21161SOL     OW65159   1.971   8.181   7.693 -0.2652 -0.7057  0.0002
21161SOL    HW165160   1.892   8.234   7.705 -0.8258 -1.3677 -0.7170
21161SOL    HW265161   2.006   8.170   7.781 -0.1921  0.7761  0.1678
21162SOL     OW65162   1.103   0.304   8.136  0.4828  0.1550  0.1426
21162SOL    HW165163   1.190   0.344   8.135  0.1695  0.8402 -2.4283
21162SOL    HW265164   1.119   0.211   8.119  0.7026  0.3479 -0.7456
21163SOL     OW65165   8.330   1.807   8.347  0.2088 -0.1242 -0.1360
21163SOL    HW165166   8.413   1.760   8.351  0.8431  0.9435 -0.3680
21163SOL    HW265167   8.293   1.799   8.435  0.7750 -0.2246  0.0915
21164SOL     OW65168   6.398   6.067   2.807  0.0941  0.1539 -0.1222
21164SOL    HW165169   6.353   6.008   2.868  2.5689 -0.6584  0.9737
21164SOL    HW265170   6.421   6.143   2.859  0.7665  0.1725 -0.4397
21165SOL     OW65171   7.115   5.920   5.285 -0.2379  0.3398  0.3543
21165SOL    HW165172   7.141   5.838   5.242  0.2844  0.6735  0.0251
21165SOL    HW265173   7.032   5.942   5.244 -0.8264 -0.4968  1.0852
21166SOL     OW65174   6.749   1.386   2.949 -0.0459  0.1488  0.0311
21166SOL    HW165175   6.828   1.334   2.935 -0.3984 -0.2638 -0.4064
21166SOL    HW265176   6.677   1.323   2.949 -0.8112  0.9022 -3.4639
21167SOL     OW65177   5.906   1.848   2.635  0.3175 -0.1655  0.3103
21167SOL    HW165178   5.879   1.760   2.662  3.0663 -0.5885  1.8862
21167SOL    HW265179   5.944   1.835   2.548 -1.3589 -0.1354 -0.4372
21168SOL     OW65180   8.504   3.868   5.589  0.7159  0.1797 -0.3090
21168SOL    HW165181   8.450   3.790   5.578  1.6302 -0.7060  1.3885
21168SOL    HW265182   8.465   3.914   5.664 -0.0762  1.5770 -1.5589
21169SOL     OW65183   6.610   6.829   3.413  0.2198 -0.0881 -0.2440
21169SOL    HW165184   6.581   6.811   3.324  0.3825 -0.2030 -0.2737
21169SOL    HW265185   6.579   6.918   3.431 -0.9904 -0.5652  0.0787
21170SOL     OW65186   6.210   5.988   6.302 -0.7653  0.0666  0.1475
21170SOL    HW165187   6.286   5.961   6.353 -0.1278 -0.4757 -1.0613
21170SOL    HW265188   6.243   6.060   6.247 -1.5312  0.8851  0.7501
21171SOL     OW65189   6.569   6.410   2.290 -0.0817 -0.1414 -0.4130
21171SOL    HW165190   6.480   6.405   2.325 -0.5563  0.1771 -1.5510
21171SOL    HW265191   6.615   6.337   2.331 -0.3398  0.8209  1.6523
21172SOL     OW65192   8.033   4.691   2.625  0.1080 -0.0157 -0.3106
21172SOL    HW165193   7.949   4.682   2.580 -0.7436 -1.2027  1.4531
21172SOL    HW265194   8.095   4.644   2.569 -0.7271 -0.5568 -0.7964
21173SOL     OW65195   2.249   5.843   4.825  0.0244 -0.0329  0.5030
21173SOL    HW165196   2.288   5.828   4.911 -0.5501  1.7323  1.0951
21173SOL    HW265197   2.164   5.799   4.830 -0.5252  1.0914  1.2841
21174SOL     OW65198   5.166   6.984   2.036 -0.4029  0.6368  0.1072
21174SOL    HW165199   5.205   6.989   2.124 -0.4555  0.7173  0.1258
21174SOL    HW265200   5.239   7.000   1.976  0.0051 -1.1793  0.0783
21175SOL     OW65201   2.344   5.727   1.064 -0.0617 -0.0309  0.1727
21175SOL    HW165202   2.373   5.657   1.123  2.7105  0.6859 -0.2680
21175SOL    HW265203   2.422   5.780   1.049 -1.3722  1.3905 -1.9767
21176SOL     OW65204   7.268   5.834   4.696  0.1057 -0.3284  0.5330
21176SOL    HW165205   7.229   5.900   4.639  0.1330 -1.9044 -1.3444
21176SOL    HW265206   7.361   5.858   4.699  0.1170 -0.2713 -0.1418
21177SOL     OW65207   5.776   4.960   0.853  0.3664 -0.2250 -0.2152
21177SOL    HW165208   5.848   4.922   0.904  0.4841  0.6022  0.2286
21177SOL    HW265209   5.697   4.929   0.897  0.4622 -0.0071  0.1084
21178SOL     OW65210   2.781   0.419   7.869 -0.1117  0.2067  0.1169
21178SOL    HW165211   2.798   0.462   7.953  1.6544 -1.3084  0.5802
21178SOL    HW265212   2.866   0.421   7.824 -0.5852 -0.6754 -0.8260
21179SOL     OW65213   4.469   5.133   4.271  0.1594 -0.8176  0.2763
21179SOL    HW165214   4.407   5.197   4.306  0.4575 -0.8256  0.8139
21179SOL    HW265215   4.550   5.182   4.256  0.0186 -0.8025 -0.4500
21180SOL     OW65216   4.623   3.027   3.254 -0.2625  0.0776 -0.0106
21180SOL    HW165217   4.654   3.097   3.311  0.5484  0.5674 -1.0438
21180SOL    HW265218   4.659   3.047   3.168 -1.6212 -0.5577 -0.7585
21181SOL     OW65219   5.319   3.223   4.581 -0.8065 -0.0910  0.0798
21181SOL    HW165220   5.273   3.191   4.504  0.3460 -1.5883 -0.0070
21181SOL    HW265221   5.250   3.246   4.643 -1.7421  0.9801 -1.3175
21182SOL     OW65222   0.856   4.346   9.193 -0.1227 -0.1231 -0.2871
21182SOL    HW165223   0.890   4.392   9.270 -1.1879 -1.3557  0.9487
21182SOL    HW265224   0.885   4.399   9.119  1.5514  0.6854  0.9102
21183SOL     OW65225   7.748   4.367   9.133 -0.1667  0.3620  0.3158
21183SOL    HW165226   7.665   4.319   9.136 -0.7184  1.0962 -1.7152
21183SOL    HW265227   7.807   4.310   9.084 -0.2691  0.9105 -0.4739
21184SOL     OW65228   1.822   6.366   6.708 -0.6991  0.2015  0.6083
21184SOL    HW165229   1.764   6.370   6.632  1.0457  1.6039 -0.6881
21184SOL    HW265230   1.763   6.368   6.783 -2.3712  0.6092 -0.6856
21185SOL     OW65231   9.160   4.844   6.787 -0.0948 -0.5923  0.1708
21185SOL    HW165232   9.220   4.790   6.735 -0.6305 -1.8403  0.8375
21185SOL    HW265233   9.175   4.933   6.755  1.1890 -1.0532 -0.5632
21186SOL     OW65234   7.817   8.685   0.071 -0.3974 -0.0486 -1.0394
21186SOL    HW165235   7.733   8.724   0.095 -2.5912 -3.0510 -3.3458
21186SOL    HW265236   7.812   8.595   0.105  1.0715 -0.8380 -2.8164
21187SOL     OW65237   6.018   7.813   2.965  0.1157  0.0466  0.3836
21187SOL    HW165238   6.100   7.782   3.003  0.6490  1.9973  0.8822
21187SOL    HW265239   6.044   7.853   2.882 -0.6161 -1.1942 -0.4566
21188SOL     OW65240   7.654   4.259   2.857  0.6531  0.1554 -0.0801
21188SOL    HW165241   7.571   4.270   2.810  3.2469  2.0314 -4.5500
21188SOL    HW265242   7.702   4.194   2.806  2.0189 -0.8738  2.4109
21189SOL     OW65243   1.686   1.061   1.546 -0.0274  0.3345 -0.0784
21189SOL    HW165244   1.772   1.087   1.514  1.2146 -0.6422  2.2897
21189SOL    HW265245   1.657   0.992   1.486  0.5553  1.0918 -1.2394
21190SOL     OW65246   1.183   9.001   5.306  0.3162 -0.4805 -0.1474
21190SOL    HW165247   1.203   8.976   5.396  0.4413  1.0512  0.2676
21190SOL    HW265248   1.125   8.932   5.274 -0.5076 -0.5355  1.4374
21191SOL     OW65249   1.110   7.271   3.888  0.1897  0.2954 -0.2452
21191SOL    HW165250   1.166   7.284   3.964  0.5652  0.3170 -0.5248
21191SOL    HW265251   1.076   7.183   3.898  0.5558  0.1515 -0.2561
21192SOL     OW65252   1.507   2.742   5.021 -0.2986 -0.2929  0.2774
21192SOL    HW165253   1.559   2.809   4.978 -0.9252  1.0854  1.6151
21192SOL    HW265254   1.427   2.735   4.968 -0.1641 -0.0902  0.0479
21193SOL     OW65255   7.031   3.426   5.905 -0.0266  0.0464 -0.1368
21193SOL    HW165256   7.112   3.383   5.877 -0.3657  0.3400 -1.6474
21193SOL    HW265257   6.962   3.372   5.867 -0.5579 -0.3713  1.3939
21194SOL     OW65258   5.455   0.841   3.252  0.4947 -0.2102  0.1837
21194SOL    HW165259   5.485   0.780   3.185  1.0093  0.1071  0.1229
21194SOL    HW265260   5.359   0.840   3.245  0.5646  0.1479 -0.8542
21195SOL     OW65261   4.785   5.226   7.215  0.6223  0.2311  0.1128
21195SOL    HW165262   4.775   5.216   7.309  0.0492  0.3561  0.0661
21195SOL    HW265263   4.879   5.240   7.202  0.6544  0.5521  0.6931
21196SOL     OW65264   3.688   7.028   0.974  0.0705 -0.4082  0.5092
21196SOL    HW165265   3.764   7.062   0.928  0.0658 -1.8850 -0.6354
21196SOL    HW265266   3.703   6.934   0.979 -1.2923 -0.6134  1.0094
21197SOL     OW65267   9.209   4.837   7.490 -0.0327  0.0275  0.5117
21197SOL    HW165268   9.201   4.875   7.403 -3.2596 -1.2816  0.1717
21197SOL    HW265269   9.275   4.769   7.481 -0.5909 -0.3250 -1.0185
21198SOL     OW65270   3.516   5.765   7.659  0.0513  0.4175  0.2389
21198SOL    HW165271   3.566   5.845   7.643  0.2261  0.7246  2.2159
21198SOL    HW265272   3.425   5.792   7.645  0.1308  0.8999  0.6207
21199SOL     OW65273   4.231   5.458   2.446  0.4644 -0.3202  0.1796
21199SOL    HW165274   4.307   5.443   2.502  0.8557  2.3552  0.4256
21199SOL    HW265275   4.261   5.519   2.380 -0.5710 -1.8809 -1.8006
21200SOL     OW65276   6.479   2.544   5.122 -0.1773 -0.0603 -0.1585
21200SOL    HW165277   6.426   2.472   5.157 -0.5729  0.8006  1.0614
21200SOL    HW265278   6.423   2.586   5.056 -0.3181 -0.2661 -0.1702
21201SOL     OW65279   2.051   4.789   6.659  0.1002  0.5878  0.7978
21201SOL    HW165280   1.980   4.794   6.724 -1.6936  1.1315 -1.1355
21201SOL    HW265281   2.127   4.758   6.708 -1.7143 -0.8977  2.7575
21202SOL     OW65282   5.777   2.988   0.508  0.0650 -0.0468 -0.2173
21202SOL    HW165283   5.827   3.057   0.550  0.3415 -1.3848  1.6892
21202SOL    HW265284   5.690   3.026   0.495  0.5877  1.1073 -0.4146
21203SOL     OW65285   9.192   3.244   1.635 -0.2637  0.1918 -0.1552
21203SOL    HW165286   9.196   3.339   1.623 -0.2538  0.3914  1.3356
21203SOL    HW265287   9.128   3.231   1.704  0.2012 -0.8547  0.0920
21204SOL     OW65288   0.650   8.223   1.319  0.2831 -0.4233 -0.0318
21204SOL    HW165289   0.594   8.228   1.396 -1.6660  0.1179 -1.4558
21204SOL    HW265290   0.661   8.314   1.291  1.4141 -0.5731 -0.0957
21205SOL     OW65291   0.879   2.802   7.177 -0.2480  0.1577  0.1707
21205SOL    HW165292   0.863   2.892   7.206 -3.3893 -0.2616 -0.1570
21205SOL    HW265293   0.798   2.755   7.196  0.3507 -1.9518 -2.1856
21206SOL     OW65294   4.842   0.630   4.800 -0.1500  0.4424  0.1591
21206SOL    HW165295   4.900   0.624   4.724 -1.6888  2.4368 -1.2364
21206SOL    HW265296   4.754   0.625   4.763 -0.9219 -0.6809  2.0625
21207SOL     OW65297   3.143   2.824   7.328  0.3114  0.4078 -0.0749
21207SOL    HW165298   3.237   2.821   7.346  0.0916  0.4845  1.1337
21207SOL    HW265299   3.102   2.786   7.406 -0.5885 -1.1340 -1.2839
21208SOL     OW65300   4.661   5.961   6.343  0.3812  0.4129  0.0023
21208SOL    HW165301   4.596   5.993   6.406 -0.9353  2.0753 -2.1034
21208SOL    HW265302   4.744   5.998   6.372  0.0552 -0.1073  1.6169
21209SOL     OW65303   8.956   8.237   0.303  0.5206 -0.1266  0.2600
21209SOL    HW165304   8.890   8.205   0.241  0.4780 -0.6782  0.5857
21209SOL    HW265305   8.931   8.328   0.318  0.4614 -0.0208 -0.4431
21210SOL     OW65306   1.406   7.818   8.102  0.4113  0.3666  0.2344
21210SOL    HW165307   1.338   7.766   8.145  0.4933 -0.8412 -1.0306
21210SOL    HW265308   1.366   7.904   8.088 -0.3971  0.0601  0.6789
21211SOL     OW65309   3.439   5.645   0.641  0.0724 -0.1495  0.3779
21211SOL    HW165310   3.351   5.669   0.612  0.3848  1.3286  0.6341
21211SOL    HW265311   3.424   5.586   0.715 -0.7073  0.1881  0.4972
21212SOL     OW65312   0.983   7.785   7.352  0.1300 -0.3284  0.6299
21212SOL    HW165313   0.908   7.732   7.326  0.9923 -0.5526 -1.4894
21212SOL    HW265314   0.966   7.871   7.312  0.4834 -0.0608  1.0541
21213SOL     OW65315   7.203   7.209   4.705  0.6719 -0.3319  0.1235
21213SOL    HW165316   7.215   7.196   4.799  2.0781  0.6987  0.1042
21213SOL    HW265317   7.135   7.276   4.699 -1.0089 -1.9807  0.3478
21214SOL     OW65318   1.799   4.952   8.610  0.2167 -0.2523  0.0792
21214SOL    HW165319   1.724   5.002   8.643  0.9711  1.9033 -1.3828
21214SOL    HW265320   1.873   5.012   8.616  0.5694 -0.0752 -4.5551
21215SOL     OW65321   7.493   1.747   1.102 -0.3465 -0.1267  0.1538
21215SOL    HW165322   7.525   1.826   1.057  1.6737  0.0493  1.8501
21215SOL    HW265323   7.530   1.752   1.189 -2.3834 -1.6373  1.1519
21216SOL     OW65324   0.212   5.682   6.260  0.2810  0.0379 -0.4892
21216SOL    HW165325   0.265   5.623   6.314  1.4000 -0.0571 -1.6736
21216SOL    HW265326   0.267   5.701   6.185  0.5156  3.7815  0.5408
21217SOL     OW65327   7.413   4.528   2.447 -0.0954 -0.3460  0.5645
21217SOL    HW165328   7.446   4.453   2.496 -1.2046 -1.5491 -0.4929
21217SOL    HW265329   7.327   4.546   2.486  0.6042  1.0439  1.4996
21218SOL     OW65330   0.497   7.116   8.047  0.4913 -0.1110  0.0774
21218SOL    HW165331   0.539   7.060   7.981  1.1141 -0.1710  0.5222
21218SOL    HW265332   0.433   7.059   8.090  0.2292 -0.1293 -0.3330
21219SOL     OW65333   7.525   3.852   0.410  0.2749  0.0406 -0.0144
21219SOL    HW165334   7.538   3.784   0.476  1.3407 -1.3221 -1.5899
21219SOL    HW265335   7.579   3.824   0.336  0.8760  2.6994 -0.6327
21220SOL     OW65336   9.208   1.915   0.243 -0.2767 -0.2206  0.5849
21220SOL    HW165337   9.163   1.997   0.262  1.5768  0.9762 -0.1428
21220SOL    HW265338   9.240   1.924   0.153 -1.0025 -2.1890  0.0870
21221SOL     OW65339   1.171   2.688   6.482 -0.2396 -0.1960  0.1572
21221SOL    HW165340   1.222   2.683   6.401  1.8192 -0.4765  1.4323
21221SOL    HW265341   1.170   2.598   6.514 -0.3926  0.0457  0.8290
21222SOL     OW65342   0.346   1.881   3.153  0.0074 -0.8139  0.1496
21222SOL    HW165343   0.287   1.819   3.196 -1.5128  1.4155  1.4405
21222SOL    HW265344   0.304   1.901   3.069 -0.0971 -0.7021  0.2269
21223SOL     OW65345   4.859   9.221   5.875 -0.0263  0.2446 -0.2421
21223SOL    HW165346   4.914   9.197   5.949  0.9087 -0.2117 -1.0772
21223SOL    HW265347   4.877   9.154   5.809 -0.1515  1.1827 -1.2383
21224SOL     OW65348   6.387   1.727   6.505  0.0115  0.1768  0.2151
21224SOL    HW165349   6.465   1.689   6.546 -0.3816  0.0507  0.8607
21224SOL    HW265350   6.315   1.696   6.559 -0.4386  0.7365 -0.0643
21225SOL     OW65351   1.620   2.244   3.983  0.2360 -0.1498  0.5776
21225SOL    HW165352   1.566   2.244   4.062 -0.0011  0.8258  0.4150
21225SOL    HW265353   1.683   2.314   3.997 -0.1792  0.4124 -0.3522
21226SOL     OW65354   7.209   0.262   0.201  0.3388 -0.4553 -0.3615
21226SOL    HW165355   7.264   0.219   0.266  0.1511  0.9813  0.7748
21226SOL    HW265356   7.270   0.299   0.138  0.6450  0.3195  0.3820
21227SOL     OW65357   6.518   5.408   9.239  0.0066  0.1283 -0.6578
21227SOL    HW165358   6.473   5.334   9.280 -0.5195  1.3734  1.0553
21227SOL    HW265359   6.543   5.376   9.153 -2.4806 -1.2086 -0.9156
21228SOL     OW65360   6.856   0.193   4.693  0.1685  0.1487 -0.1238
21228SOL    HW165361   6.927   0.155   4.745 -0.3854  0.8899  1.1908
21228SOL    HW265362   6.880   0.285   4.682  0.3197 -0.0093 -1.2819
21229SOL     OW65363   4.351   6.434   2.317 -0.0858  0.1283  0.2701
21229SOL    HW165364   4.289   6.499   2.351  0.2396  0.8957 -0.5715
21229SOL    HW265365   4.426   6.486   2.287  0.3875 -0.6804  0.0342
21230SOL     OW65366   4.808   4.893   0.747 -0.2050  0.3181  0.0553
21230SOL    HW165367   4.747   4.852   0.684 -0.4776  1.0660 -0.1763
21230SOL    HW265368   4.814   4.830   0.818  0.0224 -0.4981 -0.6754
21231SOL     OW65369   8.329   8.842   4.750  0.1122 -0.2692 -0.0501
21231SOL    HW165370   8.397   8.800   4.697  0.7676  0.2412  0.3669
21231SOL    HW265371   8.279   8.770   4.788  2.0362 -0.7308  1.7145
21232SOL     OW65372   2.661   8.850   9.151  0.2439  0.3493  0.0710
21232SOL    HW165373   2.696   8.858   9.062  1.2480 -0.5236  0.3772
21232SOL    HW265374   2.682   8.933   9.193 -0.9359  1.0776 -0.7412
21233SOL     OW65375   3.849   6.244   8.131  0.5142 -0.1730  0.2602
21233SOL    HW165376   3.821   6.169   8.077 -0.7609  0.1520  0.4597
21233SOL    HW265377   3.931   6.273   8.090  0.2740 -0.7815 -0.6811
21234SOL     OW65378   4.264   2.278   6.162  0.4574  0.0354  0.4363
21234SOL    HW165379   4.170   2.260   6.164  0.7439 -1.5247  1.0309
21234SOL    HW265380   4.280   2.315   6.075 -0.4687 -1.1555 -0.2600
21235SOL     OW65381   5.062   8.516   7.316  0.4976  0.0410 -0.0821
21235SOL    HW165382   5.091   8.457   7.247 -0.5420  0.8950 -1.2756
21235SOL    HW265383   4.970   8.494   7.330  0.2223  1.0441 -0.2200
21236SOL     OW65384   2.890   7.500   7.295  0.7008  0.4596  0.3045
21236SOL    HW165385   2.905   7.406   7.303 -0.3562  0.3854  1.5577
21236SOL    HW265386   2.795   7.508   7.283  0.6891  1.4182  1.0009
21237SOL     OW65387   4.433   0.713   7.805  0.2877 -0.2179  0.2765
21237SOL    HW165388   4.519   0.754   7.812 -0.0807  0.6887 -0.3696
21237SOL    HW265389   4.419   0.671   7.890  0.9957  0.3703  0.6874
21238SOL     OW65390   0.192   3.639   5.634  0.1897 -0.4547  0.4728
21238SOL    HW165391   0.171   3.717   5.583 -0.7777 -0.2636  1.1536
21238SOL    HW265392   0.250   3.589   5.578 -0.0975  0.2171 -0.4333
21239SOL     OW65393   2.782   0.930   4.349 -0.2471 -0.0082 -0.1208
21239SOL    HW165394   2.782   0.846   4.303  2.7514 -0.3960  0.4563
21239SOL    HW265395   2.711   0.922   4.413 -0.9338 -1.5498 -1.0497
21240SOL     OW65396   3.474   3.030   7.981 -0.1531  0.3674 -0.0864
21240SOL    HW165397   3.418   2.987   7.916 -0.3220  0.6687 -0.1420
21240SOL    HW265398   3.450   2.989   8.064  0.5829 -0.5319 -0.3192
21241SOL     OW65399   0.321   0.181   8.971 -0.0199  0.4622 -0.2404
21241SOL    HW165400   0.405   0.219   8.944  0.5896 -0.1859  0.6963
21241SOL    HW265401   0.343   0.124   9.045 -1.0016 -1.2709 -1.2459
21242SOL     OW65402   3.735   1.061   0.150 -0.0366  0.1688  0.6382
21242SOL    HW165403   3.727   0.966   0.147  0.0606  0.1810 -0.3215
21242SOL    HW265404   3.790   1.083   0.074 -0.1335  0.9929  0.7975
21243SOL     OW65405   8.199   3.701   0.130 -0.6295 -0.2082 -0.3022
21243SOL    HW165406   8.123   3.719   0.186  0.5131  0.8053  0.9733
21243SOL    HW265407   8.175   3.622   0.082 -2.7183  0.4217 -0.3604
21244SOL     OW65408   2.577   1.044   7.606  0.1127 -0.4720  0.1893
21244SOL    HW165409   2.599   1.136   7.594 -0.3742 -0.1449  1.7367
21244SOL    HW265410   2.630   0.998   7.541 -1.0725  1.0495 -1.9378
21245SOL     OW65411   4.073   7.775   1.307 -0.0343 -0.6555 -0.2502
21245SOL    HW165412   4.062   7.688   1.344 -2.6976  0.0521  0.7275
21245SOL    HW265413   4.021   7.773   1.226  1.4831 -0.5548 -1.2485
21246SOL     OW65414   6.215   5.610   8.968 -0.4602  0.0530 -0.0583
21246SOL    HW165415   6.194   5.693   9.012 -1.6490  0.6979 -1.8035
21246SOL    HW265416   6.225   5.547   9.040 -0.3477  1.5257  1.2397
21247SOL     OW65417   6.757   6.572   8.749  0.1561 -0.2067 -0.1202
21247SOL    HW165418   6.838   6.533   8.716 -0.1068 -0.5367 -0.3706
21247SOL    HW265419   6.730   6.515   8.821  0.5933  0.3715  0.5170
21248SOL     OW65420   0.161   0.540   3.690  0.6748  0.7596  0.0276
21248SOL    HW165421   0.136   0.607   3.754 -0.8766  1.6354 -1.4426
21248SOL    HW265422   0.255   0.551   3.679  0.4039  2.8590 -0.3534
21249SOL     OW65423   3.430   7.717   6.678 -0.6246 -0.3544 -0.3104
21249SOL    HW165424   3.453   7.705   6.770 -0.5536  0.0293 -0.2735
21249SOL    HW265425   3.514   7.716   6.631 -0.6832 -0.8205 -0.4022
21250SOL     OW65426   2.316   8.389   6.463  0.2976  0.1843  0.1840
21250SOL    HW165427   2.307   8.360   6.372  2.3419  0.5421 -0.1419
21250SOL    HW265428   2.234   8.436   6.481 -0.3133 -0.2803 -1.3099
21251SOL     OW65429   2.620   0.891   3.495  0.5126  0.1812 -0.0273
21251SOL    HW165430   2.712   0.865   3.508  0.7542  0.3985 -1.2066
21251SOL    HW265431   2.613   0.906   3.401 -1.4676 -2.5694 -0.3648
21252SOL     OW65432   1.534   2.364   7.652  0.4268  0.0840  0.2775
21252SOL    HW165433   1.486   2.447   7.654 -0.3248 -0.3361 -0.1860
21252SOL    HW265434   1.568   2.359   7.563 -1.6053 -1.2695 -0.4541
21253SOL     OW65435   8.257   4.576   0.661  0.7639  0.5848 -0.9616
21253SOL    HW165436   8.168   4.543   0.663  0.4922  1.3410 -0.2711
21253SOL    HW265437   8.251   4.663   0.699  1.7398  0.7777 -1.2381
21254SOL     OW65438   3.090   5.917   2.073 -0.0791 -0.2849 -0.0028
21254SOL    HW165439   3.178   5.898   2.106  0.3548  0.2556 -0.8403
21254SOL    HW265440   3.104   5.973   1.997 -0.9122 -3.2869 -2.4845
21255SOL     OW65441   8.640   6.870   2.393  0.1513  1.2928 -0.0085
21255SOL    HW165442   8.593   6.820   2.459 -0.8383 -0.5450 -2.0635
21255SOL    HW265443   8.573   6.900   2.332  1.4351 -0.2135 -2.2282
21256SOL     OW65444   1.458   6.156   3.763  0.2343 -0.0088  0.0514
21256SOL    HW165445   1.424   6.067   3.776  0.0512  0.2553  1.5405
21256SOL    HW265446   1.551   6.144   3.748  0.1763 -0.4785  0.0397
21257SOL     OW65447   3.909   4.400   0.994 -0.4593  0.0363  0.3507
21257SOL    HW165448   3.920   4.477   0.938  0.1045  0.1061  0.5478
21257SOL    HW265449   3.847   4.345   0.947 -3.2417  1.9530  1.6413
21258SOL     OW65450   0.066   0.336   8.301 -0.5367  0.2837  0.5191
21258SOL    HW165451   0.141   0.292   8.261 -1.3744 -0.4446 -0.2512
21258SOL    HW265452   0.011   0.265   8.334 -0.0128  0.8624  2.7030
21259SOL     OW65453   2.572   2.879   3.125  0.2006 -0.0290 -0.0693
21259SOL    HW165454   2.496   2.864   3.070 -0.6632  0.5060  0.9496
21259SOL    HW265455   2.553   2.962   3.169  2.1320  0.9827 -1.0784
21260SOL     OW65456   6.952   3.931   1.465 -0.1429  0.0199 -0.4164
21260SOL    HW165457   6.901   3.865   1.512  0.0706  1.5611  2.0505
21260SOL    HW265458   6.887   3.993   1.432 -0.0252  1.1216  1.3619
21261SOL     OW65459   1.739   5.025   0.030  0.0443 -0.5522  0.3653
21261SOL    HW165460   1.795   5.030  -0.048 -0.2537 -0.1600  0.1771
21261SOL    HW265461   1.657   4.988  -0.003 -0.3568  0.3618  0.3484
21262SOL     OW65462   8.727   0.908   0.146  0.2743  0.3782  0.7059
21262SOL    HW165463   8.635   0.894   0.165 -0.2526  0.0752 -1.8041
21262SOL    HW265464   8.727   0.975   0.076  1.9264  0.2262  0.5257
21263SOL     OW65465   2.706   2.163   3.219  0.3272 -0.2291  0.1154
21263SOL    HW165466   2.749   2.084   3.253  2.0295  1.1334  1.2083
21263SOL    HW265467   2.619   2.134   3.195  0.3515 -2.0951  2.1096
21264SOL     OW65468   1.306   3.751   1.396 -0.6450  0.5698 -0.5835
21264SOL    HW165469   1.306   3.732   1.490 -0.4308  0.1888 -0.6613
21264SOL    HW265470   1.387   3.799   1.381 -0.5180  0.3416 -0.6316
21265SOL     OW65471   5.563   3.748   2.247 -0.9870  0.2160 -0.0825
21265SOL    HW165472   5.578   3.810   2.175  0.7068  1.8667  1.6515
21265SOL    HW265473   5.587   3.663   2.210 -2.8112  0.5972 -2.3171
21266SOL     OW65474   1.447   4.483   7.106 -0.0572 -0.1533  0.4072
21266SOL    HW165475   1.437   4.407   7.164 -0.4164 -0.7016 -0.3725
21266SOL    HW265476   1.404   4.555   7.154  0.1507 -0.4660  1.0744
21267SOL     OW65477   6.454   4.638   0.528  0.9907  0.1799 -0.2538
21267SOL    HW165478   6.381   4.692   0.500  1.9128  1.2780 -0.5951
21267SOL    HW265479   6.443   4.555   0.482 -1.7365 -0.7967  2.0624
21268SOL     OW65480   1.455   8.758   5.274  0.1904  0.1597 -0.6082
21268SOL    HW165481   1.513   8.741   5.200  0.6979 -3.1446  0.4958
21268SOL    HW265482   1.368   8.763   5.235  0.5922 -0.2443 -1.5782
21269SOL     OW65483   2.687   5.657   0.615 -0.4840  0.2740  0.2571
21269SOL    HW165484   2.744   5.727   0.584 -0.1274  0.2299  0.8107
21269SOL    HW265485   2.622   5.701   0.670 -0.5840  0.2366  0.1694
21270SOL     OW65486   2.896   7.615   6.175 -0.0663  0.1726  0.0591
21270SOL    HW165487   2.813   7.571   6.158  0.0188  0.5040 -1.2798
21270SOL    HW265488   2.950   7.548   6.218 -1.0076 -0.0465  0.9111
21271SOL     OW65489   3.348   6.097   1.691  0.2292 -0.7980  0.0971
21271SOL    HW165490   3.317   6.042   1.619  0.2995  0.6155 -1.0436
21271SOL    HW265491   3.282   6.167   1.697  0.7026 -0.4068  0.8103
21272SOL     OW65492   1.503   5.953   4.298 -0.3232 -0.5510  0.0270
21272SOL    HW165493   1.460   6.039   4.291 -1.3254 -0.8198  2.2852
21272SOL    HW265494   1.587   5.972   4.340  1.3587 -0.1686 -3.3882
21273SOL     OW65495   7.824   2.463   4.165 -0.2312  0.0118  0.0785
21273SOL    HW165496   7.875   2.512   4.101 -0.5732 -0.5773 -0.6584
21273SOL    HW265497   7.888   2.407   4.208  0.2117  1.3070  1.1367
21274SOL     OW65498   0.398   2.243   3.989 -0.0414 -0.3183 -0.3820
21274SOL    HW165499   0.456   2.276   3.920 -0.2488  1.3287  0.2138
21274SOL    HW265500   0.367   2.159   3.955  1.6889 -0.6401 -1.2677
21275SOL     OW65501   5.158   0.452   4.035  0.1158  0.0552 -0.7888
21275SOL    HW165502   5.239   0.483   3.995  0.5923  1.4815  1.2163
21275SOL    HW265503   5.096   0.523   4.022  0.0644  0.2238  0.3210
21276SOL     OW65504   4.805   2.703   1.369  0.8802 -0.4377  0.0230
21276SOL    HW165505   4.712   2.723   1.378  1.3745  1.4529  1.1221
21276SOL    HW265506   4.825   2.649   1.445  1.4207  2.0192  1.6733
21277SOL     OW65507   1.492   2.253   5.383 -1.1156 -0.0260 -0.9638
21277SOL    HW165508   1.471   2.185   5.447  0.3975 -0.2076 -0.6534
21277SOL    HW265509   1.587   2.251   5.375 -1.1276  1.3907 -1.6855
21278SOL     OW65510   3.333   6.341   3.046  0.2686  0.7811  0.5452
21278SOL    HW165511   3.298   6.366   3.132  0.0888 -0.3605  0.8069
21278SOL    HW265512   3.418   6.301   3.066 -0.6461 -1.3213  0.3957
21279SOL     OW65513   5.737   6.598   3.588  0.0421  0.4022  0.9755
21279SOL    HW165514   5.699   6.682   3.613  2.9908  0.7915  4.5518
21279SOL    HW265515   5.822   6.621   3.549 -1.2936 -0.6949 -2.8035
21280SOL     OW65516   8.823   0.872   2.405 -0.0359  0.4219  0.2915
21280SOL    HW165517   8.830   0.777   2.410  0.2065  0.4732  1.0744
21280SOL    HW265518   8.820   0.900   2.497 -1.5440  1.0631  0.0467
21281SOL     OW65519   3.695   8.791   1.807  0.2507 -0.1438 -0.0881
21281SOL    HW165520   3.741   8.866   1.845  0.9080  0.2175 -1.5348
21281SOL    HW265521   3.612   8.787   1.854  0.3531  1.2879  0.2345
21282SOL     OW65522   3.949   8.740   7.542  0.4206  0.3333  0.2637
21282SOL    HW165523   3.926   8.770   7.630  0.9549  0.2399  0.4395
21282SOL    HW265524   3.969   8.647   7.553 -1.4654 -0.1634 -0.3188
21283SOL     OW65525   2.439   9.080   8.418  0.0372  0.1064  0.2392
21283SOL    HW165526   2.429   9.021   8.344  0.5178  1.3130 -0.7966
21283SOL    HW265527   2.466   9.163   8.380  3.5811 -0.1114  2.0138
21284SOL     OW65528   6.780   6.732   7.016  0.1245  0.3698  0.0595
21284SOL    HW165529   6.737   6.727   6.930  2.2440 -1.2757 -0.9497
21284SOL    HW265530   6.737   6.664   7.068  0.4082 -0.1947 -0.4396
21285SOL     OW65531   1.762   2.274   5.258  0.8241 -0.4240  0.3089
21285SOL    HW165532   1.786   2.182   5.258 -0.6821 -0.8595 -1.5333
21285SOL    HW265533   1.793   2.307   5.173 -0.6617  0.1766 -0.0173
21286SOL     OW65534   6.792   4.696   7.420 -0.3163 -0.0863 -0.5673
21286SOL    HW165535   6.799   4.601   7.420 -0.0726 -0.0682 -1.0483
21286SOL    HW265536   6.807   4.722   7.329  1.4550  0.5514 -0.1025
21287SOL     OW65537   6.826   8.519   3.314 -0.5640  0.0935 -0.3445
21287SOL    HW165538   6.742   8.479   3.292 -0.1101 -0.8004 -0.4859
21287SOL    HW265539   6.806   8.611   3.328 -1.1827  0.3383 -2.6698
21288SOL     OW65540   3.987   4.332   5.456  0.1843  0.5109 -0.0170
21288SOL    HW165541   4.025   4.259   5.505 -2.8922 -0.9014  0.3572
21288SOL    HW265542   3.932   4.378   5.521 -0.5621  1.1479 -1.0879
21289SOL     OW65543   4.121   0.788   3.378  0.0015 -0.6285  0.2001
21289SOL    HW165544   4.026   0.799   3.369  0.4098  1.8223 -1.8171
21289SOL    HW265545   4.137   0.697   3.352 -1.7351 -0.8745 -0.0645
21290SOL     OW65546   2.534   0.470   1.495  0.3952 -0.2551 -0.1659
21290SOL    HW165547   2.465   0.404   1.482 -0.0133 -0.1439  1.3470
21290SOL    HW265548   2.553   0.467   1.588  0.0417  2.1111  0.0197
21291SOL     OW65549   7.137   2.533   3.848  0.1024  0.0558  0.4834
21291SOL    HW165550   7.086   2.527   3.767 -0.3605 -1.9862  0.9137
21291SOL    HW265551   7.074   2.514   3.917  1.3084 -1.8573  1.0770
21292SOL     OW65552   1.846   8.895   5.001 -0.3424 -0.2675  0.0455
21292SOL    HW165553   1.852   8.967   5.065  0.3173  0.5375 -0.9102
21292SOL    HW265554   1.876   8.934   4.919 -0.8025 -1.4141 -0.6671
21293SOL     OW65555   2.558   7.770   5.908  0.5692  0.4467  0.4577
21293SOL    HW165556   2.592   7.849   5.867  1.0246 -0.6998 -1.4155
21293SOL    HW265557   2.562   7.704   5.840 -1.5296 -0.7559  1.4583
21294SOL     OW65558   6.088   4.392   7.162  0.1458  0.2816 -0.6380
21294SOL    HW165559   6.025   4.321   7.148  1.6536 -1.7445  2.3693
21294SOL    HW265560   6.034   4.467   7.184 -1.3104 -1.3012  1.4024
21295SOL     OW65561   3.411   3.180   1.847  0.5006 -0.1273  0.0893
21295SOL    HW165562   3.450   3.176   1.759  2.4238  3.0534  0.7116
21295SOL    HW265563   3.321   3.209   1.832  0.6310 -0.1892 -0.8698
21296SOL     OW65564   3.965   7.543   0.884  0.1061 -0.2294  0.0841
21296SOL    HW165565   3.917   7.590   0.816  1.1285  1.7307  0.6649
21296SOL    HW265566   4.050   7.523   0.843  1.1629  1.9593  1.0756
21297SOL     OW65567   2.900   3.641   7.059  0.0692 -0.3783  0.0156
21297SOL    HW165568   2.870   3.568   7.113 -0.3718 -0.9286 -0.9479
21297SOL    HW265569   2.917   3.711   7.121 -4.1074  0.2643  0.5790
21298SOL     OW65570   0.647   1.013   4.342 -0.2167  0.3089  0.0930
21298SOL    HW165571   0.567   1.059   4.366 -0.3319  1.4037 -2.2747
21298SOL    HW265572   0.718   1.070   4.371 -0.3280  0.6456 -0.3003
21299SOL     OW65573   5.432   4.587   4.770  0.3728 -0.2190 -0.4058
21299SOL    HW165574   5.413   4.547   4.685 -0.0864 -0.4382 -0.2017
21299SOL    HW265575   5.487   4.523   4.816 -0.9193 -0.9185  0.1822
21300SOL     OW65576   6.618   2.412   0.522 -0.0220 -0.6051  0.6887
21300SOL    HW165577   6.594   2.503   0.540 -0.3047 -0.3768 -0.7571
21300SOL    HW265578   6.682   2.390   0.589 -0.4754  0.4374  1.4745
21301SOL     OW65579   7.386   5.985   8.226 -0.0588 -0.1117  0.5812
21301SOL    HW165580   7.419   5.895   8.232 -1.2325 -0.4904  1.5301
21301SOL    HW265581   7.367   5.998   8.133  0.8740 -0.5698  0.3252
21302SOL     OW65582   8.770   1.356   3.213  0.3673  0.2860  0.0541
21302SOL    HW165583   8.843   1.312   3.167  0.8284 -0.0781  1.1218
21302SOL    HW265584   8.727   1.407   3.145  1.3737  0.1746 -0.6865
21303SOL     OW65585   1.318   6.934   0.625  0.2491 -0.2393 -0.1073
21303SOL    HW165586   1.281   6.857   0.667 -0.0927  0.4767  0.9231
21303SOL    HW265587   1.334   6.995   0.697  1.7679  0.1470 -0.7572
21304SOL     OW65588   1.544   1.277   4.867  0.3958 -0.6872  0.6875
21304SOL    HW165589   1.557   1.370   4.883 -0.1904 -0.5605  0.4353
21304SOL    HW265590   1.606   1.255   4.798  0.4105 -0.4427  0.6230
21305SOL     OW65591   5.103   7.264   1.452 -0.0163 -0.5579 -0.5429
21305SOL    HW165592   5.073   7.313   1.375  1.1035 -0.9824 -1.2785
21305SOL    HW265593   5.090   7.323   1.526  0.6095  0.5717 -1.3157
21306SOL     OW65594   1.508   0.497   4.653  0.2127 -0.0350  0.0905
21306SOL    HW165595   1.536   0.570   4.598  1.5404 -1.5825 -1.3157
21306SOL    HW265596   1.414   0.488   4.635  0.4377  0.0969 -1.1892
21307SOL     OW65597   4.969   0.107   7.707  0.2726 -0.0698 -0.2013
21307SOL    HW165598   5.024   0.179   7.740 -0.2597  0.1873  0.1301
21307SOL    HW265599   4.972   0.041   7.776  1.0812 -0.5442 -0.6740
21308SOL     OW65600   6.909   0.769   8.227 -0.2803  0.2517  0.1636
21308SOL    HW165601   6.884   0.835   8.292  0.7791 -0.8190  1.6942
21308SOL    HW265602   6.935   0.693   8.279  2.3302 -0.0227 -1.4475
21309SOL     OW65603   2.266   2.115   1.458  0.0771  0.2955  0.1501
21309SOL    HW165604   2.279   2.080   1.546  0.5007 -1.1021 -0.4587
21309SOL    HW265605   2.181   2.160   1.462  0.1961  0.4301  1.3198
21310SOL     OW65606   0.365   7.297   2.238  0.3212 -0.2497 -0.1664
21310SOL    HW165607   0.450   7.322   2.276  0.4669 -1.1351  0.0964
21310SOL    HW265608   0.348   7.210   2.273 -1.1140  0.2648  0.4916
21311SOL     OW65609   2.950   5.405   6.925  0.1344 -0.2263  0.1802
21311SOL    HW165610   2.885   5.470   6.954  2.4867  1.6007  1.5558
21311SOL    HW265611   2.976   5.360   7.005 -0.1062 -1.5909 -0.5037
21312SOL     OW65612   3.118   0.949   8.681 -0.0439  0.7311 -0.0628
21312SOL    HW165613   3.153   0.861   8.666 -1.2252  0.2493 -0.0510
21312SOL    HW265614   3.194   1.006   8.675  0.8310 -0.3491  0.4820
21313SOL     OW65615   5.293   3.159   6.683 -0.0388 -0.2868 -0.0581
21313SOL    HW165616   5.327   3.228   6.626 -0.2416 -0.9990 -1.0499
21313SOL    HW265617   5.198   3.163   6.671 -0.1104 -0.2087  0.5075
21314SOL     OW65618   2.594   3.241   1.277  0.3141 -0.1008  0.0539
21314SOL    HW165619   2.682   3.206   1.292  1.6834  2.6046 -1.1105
21314SOL    HW265620   2.601   3.288   1.194 -2.0121  0.8697  0.3546
21315SOL     OW65621   6.184   2.435   3.996 -0.1119 -0.2732  0.5840
21315SOL    HW165622   6.188   2.426   4.091  1.8099  0.6585  0.6002
21315SOL    HW265623   6.261   2.387   3.964 -1.4866 -1.7467 -0.6067
21316SOL     OW65624   1.244   1.090   7.227 -0.4699 -0.0955 -0.6456
21316SOL    HW165625   1.176   1.044   7.179 -2.2758  1.8760 -0.0454
21316SOL    HW265626   1.208   1.104   7.314  0.5899  1.1836 -0.3838
21317SOL     OW65627   0.506   4.988   1.093  0.0277 -0.0585  0.1917
21317SOL    HW165628   0.522   4.959   1.182 -0.2237 -0.8489 -0.0215
21317SOL    HW265629   0.518   5.083   1.096 -0.5346 -0.0151  1.1847
21318SOL     OW65630   3.893   2.430   7.669 -0.1754  0.2575  0.1606
21318SOL    HW165631   3.885   2.508   7.615 -0.5512  0.5168  0.5897
21318SOL    HW265632   3.972   2.386   7.636 -0.0215  0.7580 -0.1464
21319SOL     OW65633   0.961   6.074   3.084  0.9492  0.0619 -0.3940
21319SOL    HW165634   0.949   5.984   3.055  2.5658  0.2327 -1.6250
21319SOL    HW265635   0.887   6.121   3.045  0.4415 -0.5857 -0.2405
21320SOL     OW65636   1.987   8.323   1.988  0.0351 -0.3152  0.2372
21320SOL    HW165637   1.904   8.372   1.987 -0.5652 -1.2988  1.2696
21320SOL    HW265638   2.018   8.327   1.898 -1.4730 -0.4967 -0.3031
21321SOL     OW65639   6.419   1.741   1.489 -0.0849  0.0286  0.5439
21321SOL    HW165640   6.369   1.810   1.446 -0.0233 -0.3374 -0.1126
21321SOL    HW265641   6.358   1.668   1.497 -0.1722  0.1707  1.3047
21322SOL     OW65642   7.176   4.564   0.005 -0.1827 -0.3323 -0.2155
21322SOL    HW165643   7.237   4.491  -0.004 -0.8506 -0.9626  0.3155
21322SOL    HW265644   7.110   4.533   0.067 -1.5551 -0.0270 -1.4808
21323SOL     OW65645   8.111   0.329   1.042 -0.1190 -0.3177 -0.8410
21323SOL    HW165646   8.117   0.235   1.057 -1.3906 -0.2177  0.4021
21323SOL    HW265647   8.202   0.359   1.033  0.2901 -1.6235 -1.0656
21324SOL     OW65648   7.685   1.812   3.319 -0.4065 -0.2678  0.3969
21324SOL    HW165649   7.695   1.718   3.303  2.8767  0.5694 -3.0667
21324SOL    HW265650   7.774   1.848   3.310 -1.6477  3.2610  1.2497
21325SOL     OW65651   8.090   2.366   1.356 -0.0181 -0.6878  0.0684
21325SOL    HW165652   8.084   2.281   1.314  1.6138 -0.9599  0.3632
21325SOL    HW265653   8.172   2.404   1.324  0.5919 -0.3547  1.9419
21326SOL     OW65654   1.316   8.101   1.397 -0.2082 -0.4929 -0.0071
21326SOL    HW165655   1.286   8.058   1.477 -0.5867  1.3776  0.8655
21326SOL    HW265656   1.392   8.050   1.369  0.1115 -0.9626  1.7063
21327SOL     OW65657   8.695   7.994   3.203 -0.5647  0.3368  0.3851
21327SOL    HW165658   8.683   8.088   3.193  0.4936  0.5412  0.9383
21327SOL    HW265659   8.790   7.982   3.206 -0.6683 -0.8408 -0.5082
21328SOL     OW65660   9.119   4.448   3.095 -0.2935 -0.1154  0.7510
21328SOL    HW165661   9.061   4.476   3.165 -2.3104 -0.7942 -0.6235
21328SOL    HW265662   9.100   4.507   3.023  1.7126  0.5259  0.7169
21329SOL     OW65663   7.745   6.466   8.285 -0.7033 -0.1696  0.6358
21329SOL    HW165664   7.781   6.555   8.291 -1.3689 -0.0058  2.5420
21329SOL    HW265665   7.650   6.478   8.285 -0.7950 -0.8519  0.3342
21330SOL     OW65666   2.630   0.413   7.612  0.2922 -0.0213  0.2810
21330SOL    HW165667   2.647   0.404   7.705  0.6044 -1.7240  0.0839
21330SOL    HW265668   2.702   0.468   7.580 -0.0673  0.9423  1.1045
21331SOL     OW65669   6.010   6.692   6.376 -0.0811  0.5442  0.1945
21331SOL    HW165670   6.050   6.757   6.317 -0.1635  0.8815  0.5068
21331SOL    HW265671   5.977   6.624   6.318  0.4044  0.5641 -0.1094
21332SOL     OW65672   2.897   4.198   5.591 -0.2016 -0.3176  0.0742
21332SOL    HW165673   2.954   4.247   5.650  0.5720 -1.4468  0.2973
21332SOL    HW265674   2.949   4.121   5.566  0.0390  0.7920 -3.1714
21333SOL     OW65675   8.267   4.018   1.954  0.4442  0.1192 -0.0504
21333SOL    HW165676   8.212   3.981   2.023 -0.1706  0.9482 -0.0965
21333SOL    HW265677   8.351   3.973   1.964  0.3688  0.2656  1.2582
21334SOL     OW65678   3.683   0.889   4.660  0.1215  0.1413  0.0046
21334SOL    HW165679   3.669   0.801   4.624  0.5922  0.4466 -0.9463
21334SOL    HW265680   3.599   0.933   4.647  0.4493  0.4213 -1.2353
21335SOL     OW65681   7.783   8.383   0.081  0.5900 -0.2670  0.1115
21335SOL    HW165682   7.694   8.383   0.118 -0.4272  0.1991 -2.2285
21335SOL    HW265683   7.815   8.294   0.096  0.0289 -0.2193  1.6548
21336SOL     OW65684   3.812   7.185   8.637  0.0104  0.4757 -0.0103
21336SOL    HW165685   3.741   7.171   8.700 -0.2017 -0.1808 -0.3946
21336SOL    HW265686   3.773   7.162   8.552  0.8500 -0.4261 -0.1546
21337SOL     OW65687   2.133   6.049   2.856 -0.3183 -0.0914  0.1855
21337SOL    HW165688   2.076   5.992   2.805 -1.1787  1.4516 -0.6125
21337SOL    HW265689   2.211   5.995   2.874 -0.6850 -1.1807 -1.3717
21338SOL     OW65690   0.624   3.708   3.255  0.3496  0.0275 -0.0127
21338SOL    HW165691   0.574   3.699   3.336  1.5634 -1.9281  0.5577
21338SOL    HW265692   0.649   3.619   3.232  3.3502  0.9219 -0.4001
21339SOL     OW65693   4.482   3.545   3.819  0.1440  0.0467  0.0781
21339SOL    HW165694   4.545   3.597   3.869  0.5529 -0.1440 -0.2442
21339SOL    HW265695   4.402   3.549   3.872 -0.3595  2.4895 -0.8323
21340SOL     OW65696   7.619   4.607   0.665  0.7738 -0.1268 -0.1853
21340SOL    HW165697   7.613   4.569   0.577  1.2297  1.6545 -1.0303
21340SOL    HW265698   7.621   4.532   0.724 -1.4089 -1.3297 -1.5753
21341SOL     OW65699   3.296   2.141   2.937 -0.2560  0.3019  0.6679
21341SOL    HW165700   3.262   2.219   2.981  3.5719  1.6539  1.4824
21341SOL    HW265701   3.282   2.158   2.844  1.0540  2.2983  0.7994
21342SOL     OW65702   8.824   9.230   8.377 -0.4737  0.7875 -0.4370
21342SOL    HW165703   8.826   9.217   8.472 -1.6764 -0.2716 -0.5353
21342SOL    HW265704   8.916   9.229   8.351 -0.2167 -1.1642  0.4440
21343SOL     OW65705   4.820   2.016   1.146  0.1377 -0.3159 -0.1228
21343SOL    HW165706   4.849   1.962   1.220 -0.8194 -2.4223 -1.2605
21343SOL    HW265707   4.812   2.104   1.183  1.2749 -1.0217  1.8791
21344SOL     OW65708   7.692   5.536   0.630  0.1146  0.6533  0.2182
21344SOL    HW165709   7.675   5.631   0.633 -0.3142  0.5591  1.1742
21344SOL    HW265710   7.754   5.525   0.559 -0.6154  1.5376 -0.5735
21345SOL     OW65711   0.487   1.490   8.202  0.0749 -0.0776  0.0599
21345SOL    HW165712   0.469   1.400   8.230 -0.5381  0.4136  1.3029
21345SOL    HW265713   0.401   1.526   8.180  0.2068  0.4508  0.3787
21346SOL     OW65714   7.945   5.915   3.576 -0.4253  0.4517 -0.5544
21346SOL    HW165715   7.906   5.939   3.492 -2.3798 -2.2280 -0.4722
21346SOL    HW265716   7.957   5.820   3.571  0.8276  0.4600  1.6399
21347SOL     OW65717   2.346   0.418   0.159  0.2546  0.5762 -0.5700
21347SOL    HW165718   2.293   0.487   0.198  1.4664 -0.0024  2.2242
21347SOL    HW265719   2.389   0.375   0.233  0.3626 -2.5110 -2.3124
21348SOL     OW65720   2.157   6.853   2.976  0.3540 -0.4172  0.5703
21348SOL    HW165721   2.204   6.818   3.052  1.6200  0.0779  0.0399
21348SOL    HW265722   2.181   6.946   2.974  1.3877 -0.6842 -1.1610
21349SOL     OW65723   8.138   0.597   0.039  0.1630  0.7131 -0.3829
21349SOL    HW165724   8.156   0.507   0.011  2.3399  1.0262 -0.0803
21349SOL    HW265725   8.145   0.648  -0.042  0.7177  0.8475 -0.2504
21350SOL     OW65726   3.757   5.655   3.152 -0.4303 -0.2661  0.1676
21350SOL    HW165727   3.719   5.567   3.153 -0.4073 -0.3229 -1.6160
21350SOL    HW265728   3.732   5.693   3.236 -1.5568 -1.5146  0.4168
21351SOL     OW65729   3.255   5.791   7.592  0.1232 -0.3157  0.1429
21351SOL    HW165730   3.225   5.876   7.561  0.0194 -0.8977 -1.3866
21351SOL    HW265731   3.219   5.728   7.530  0.4797 -1.4554  1.0619
21352SOL     OW65732   1.902   1.031   5.591  0.2403 -0.5408  0.0254
21352SOL    HW165733   1.940   1.065   5.672 -1.9547  1.0488  0.4207
21352SOL    HW265734   1.977   1.022   5.532  1.4656  1.0091  1.2987
21353SOL     OW65735   4.369   4.028   1.416  0.4327  0.6496  0.2220
21353SOL    HW165736   4.457   4.048   1.385 -0.5962  2.5864 -1.5518
21353SOL    HW265737   4.333   3.971   1.348  0.4536 -0.5167  1.1710
21354SOL     OW65738   2.490   5.370   7.157 -0.8113  0.0954 -0.0238
21354SOL    HW165739   2.480   5.392   7.064 -2.6711 -2.0726 -0.3964
21354SOL    HW265740   2.573   5.324   7.163 -0.6819  0.2529 -0.6224
21355SOL     OW65741   5.519   0.233   1.238  0.4736  0.3320 -0.7140
21355SOL    HW165742   5.524   0.181   1.158  0.5378  0.6336 -0.9071
21355SOL    HW265743   5.433   0.212   1.276  0.7641 -0.4011 -0.4544
21356SOL     OW65744   1.028   8.663   0.876 -0.3829  0.4514  0.1465
21356SOL    HW165745   1.102   8.608   0.850 -0.0195  0.0740  1.9419
21356SOL    HW265746   0.963   8.601   0.911 -0.3295  1.0674  1.3506
21357SOL     OW65747   3.717   7.630   6.038  0.2338  0.0427  0.0554
21357SOL    HW165748   3.725   7.575   6.116 -1.1061  1.4018  1.1943
21357SOL    HW265749   3.624   7.652   6.034  0.7190  2.1019 -0.4421
21358SOL     OW65750   8.105   8.386   4.724 -1.1780  0.0676 -0.1042
21358SOL    HW165751   8.049   8.319   4.764 -0.7990  0.2355  0.7343
21358SOL    HW265752   8.149   8.341   4.652 -0.0618 -0.9136  1.1642
21359SOL     OW65753   3.232   3.002   0.122  0.2608 -0.5708 -0.1022
21359SOL    HW165754   3.238   3.049   0.038 -3.9545 -0.1316 -0.2887
21359SOL    HW265755   3.253   3.067   0.188 -0.3312  0.1805 -0.6449
21360SOL     OW65756   7.347   0.061   3.243 -0.1580  0.2675 -0.3770
21360SOL    HW165757   7.418   0.124   3.257 -0.6686  0.7560  0.0176
21360SOL    HW265758   7.379  -0.020   3.284  0.1658  0.4913 -0.1870
21361SOL     OW65759   1.377   2.128   1.849  0.3824 -0.3007  0.5583
21361SOL    HW165760   1.379   2.033   1.845  0.5487 -0.2465 -1.0574
21361SOL    HW265761   1.381   2.149   1.942  2.4768 -1.8185  0.8244
21362SOL     OW65762   8.262   6.458   1.284 -0.1054 -0.4962  0.2881
21362SOL    HW165763   8.198   6.409   1.233 -1.9109  1.2863  0.7495
21362SOL    HW265764   8.211   6.495   1.356  1.4523  0.9642  0.6761
21363SOL     OW65765   3.581   9.095   1.993 -1.1081 -0.2124 -0.6135
21363SOL    HW165766   3.570   9.143   2.075 -0.0941  0.0577 -0.6299
21363SOL    HW265767   3.672   9.064   1.996 -1.1783 -0.5032 -1.4766
21364SOL     OW65768   4.217   4.844   4.785 -0.4987 -0.4127  0.0813
21364SOL    HW165769   4.250   4.848   4.875 -0.0212  1.3476 -0.1599
21364SOL    HW265770   4.143   4.904   4.784 -0.4527 -0.3690 -0.7278
21365SOL     OW65771   5.318   2.121   1.544 -0.5445  0.4560  0.3390
21365SOL    HW165772   5.312   2.164   1.458 -0.9567  0.5008  0.3910
21365SOL    HW265773   5.410   2.097   1.552 -0.4849  0.5397 -0.0760
21366SOL     OW65774   3.852   1.607   5.795  0.2188  0.2657  0.3076
21366SOL    HW165775   3.834   1.701   5.793  0.2096  0.3168  1.9711
21366SOL    HW265776   3.936   1.598   5.751  0.1542  1.0439  0.0135
21367SOL     OW65777   0.989   4.918   6.100  0.0972 -0.1820 -0.2870
21367SOL    HW165778   1.079   4.940   6.121  0.0960 -0.7513  0.3228
21367SOL    HW265779   0.962   4.984   6.035  1.2579 -0.6039 -1.2081
21368SOL     OW65780   2.150   0.847   7.415  0.2264 -0.4339 -0.3295
21368SOL    HW165781   2.143   0.830   7.321 -0.1900  0.7498 -0.5132
21368SOL    HW265782   2.208   0.923   7.421 -0.6859  0.2147  0.3134
21369SOL     OW65783   1.727   5.982   5.582  0.3564 -0.2388 -0.3565
21369SOL    HW165784   1.806   5.929   5.576  0.9007  0.4974  0.1865
21369SOL    HW265785   1.698   5.993   5.492  0.8204 -0.5834 -0.5478
21370SOL     OW65786   8.602   8.786   3.042 -0.2108 -0.5077 -0.1148
21370SOL    HW165787   8.556   8.807   3.123  1.1004 -0.2636  0.5817
21370SOL    HW265788   8.632   8.870   3.009 -0.9661 -0.5837 -0.9853
21371SOL     OW65789   1.864   7.667   2.418 -0.6061 -0.4090  0.1990
21371SOL    HW165790   1.812   7.659   2.498  1.1510  0.1528  1.4249
21371SOL    HW265791   1.830   7.745   2.375  0.6518  1.2216  2.0970
21372SOL     OW65792   6.341   9.112   2.950 -0.3690  0.5060  0.1408
21372SOL    HW165793   6.337   9.196   2.994  0.7985 -0.0481  1.3594
21372SOL    HW265794   6.434   9.091   2.948 -0.6448 -0.7148 -0.2008
21373SOL     OW65795   8.445   5.738   5.735  0.2488  0.0043 -0.3209
21373SOL    HW165796   8.411   5.819   5.697  0.3745  0.7047  1.0523
21373SOL    HW265797   8.419   5.670   5.673  1.2326  1.2422 -2.1392
21374SOL     OW65798   6.886   6.583   6.233 -0.0493  0.2213  0.4093
21374SOL    HW165799   6.842   6.565   6.150 -0.7647 -0.6718  0.9774
21374SOL    HW265800   6.903   6.677   6.230  2.2912 -0.2285 -1.8700
21375SOL     OW65801   6.922   1.161   4.367 -0.5757  0.3369  0.5385
21375SOL    HW165802   6.842   1.114   4.388 -0.1301 -0.0692  1.3179
21375SOL    HW265803   6.991   1.116   4.415  0.1582  0.5517 -0.3021
21376SOL     OW65804   1.999   2.538   6.889  0.0168  0.2033 -0.1836
21376SOL    HW165805   2.007   2.444   6.873  0.4328 -0.0098  1.2301
21376SOL    HW265806   1.916   2.548   6.935 -0.4564  0.6385 -1.1146
21377SOL     OW65807   6.038   0.593   0.146  0.4887  0.4668  0.2089
21377SOL    HW165808   5.973   0.546   0.198 -0.6899  1.8499  0.0210
21377SOL    HW265809   6.031   0.555   0.058  0.0120  0.5257  0.2200
21378SOL     OW65810   7.056   5.612   1.294  0.2152  0.3574 -0.1722
21378SOL    HW165811   7.139   5.587   1.254 -0.7434 -2.4621 -0.5050
21378SOL    HW265812   7.024   5.685   1.241  1.0843 -0.4507 -1.8214
21379SOL     OW65813   0.112   9.088   1.342  0.3105 -0.0195 -0.4042
21379SOL    HW165814   0.188   9.044   1.383 -0.1542 -1.2132 -0.8125
21379SOL    HW265815   0.049   9.018   1.328 -1.1792  1.0990  0.6055
21380SOL     OW65816   9.195   6.329   5.590  1.0229  0.0381 -0.1897
21380SOL    HW165817   9.221   6.387   5.662 -0.7548  0.7084 -0.0753
21380SOL    HW265818   9.114   6.289   5.619 -0.8731  1.9167 -2.6436
21381SOL     OW65819   1.947   3.135   5.507 -0.1569  0.2051  0.1907
21381SOL    HW165820   1.892   3.213   5.492  0.3930  0.5893  0.1594
21381SOL    HW265821   2.033   3.170   5.529 -0.0342 -0.3972  0.6838
21382SOL     OW65822   5.492   3.463   1.364 -0.4716  0.4393 -0.3574
21382SOL    HW165823   5.438   3.540   1.383  1.2981  1.2979  1.4612
21382SOL    HW265824   5.581   3.498   1.357  0.7158 -1.7300  2.8756
21383SOL     OW65825   4.369   7.467   2.435  0.1137  0.3150 -0.1313
21383SOL    HW165826   4.447   7.463   2.379  0.5827  1.7375  0.3822
21383SOL    HW265827   4.400   7.505   2.517 -1.0710  0.6707  0.1643
21384SOL     OW65828   1.355   3.931   7.290 -0.0048 -0.4080 -0.6168
21384SOL    HW165829   1.375   4.023   7.304 -0.9401 -0.2669 -0.1239
21384SOL    HW265830   1.436   3.884   7.309 -0.0387  0.1605  0.9803
21385SOL     OW65831   0.402   5.326   0.682  0.4761 -0.1877 -0.0945
21385SOL    HW165832   0.381   5.295   0.771  0.8756 -2.0780 -0.6232
21385SOL    HW265833   0.318   5.324   0.636  0.1964  1.1730  0.3314
21386SOL     OW65834   5.216   1.614   5.666 -0.7140  0.0742 -0.1387
21386SOL    HW165835   5.124   1.602   5.641 -2.0039 -0.5467  4.4440
21386SOL    HW265836   5.224   1.707   5.685 -0.9341 -0.2057  1.3566
21387SOL     OW65837   5.054   4.205   1.170 -0.1421  0.2508  0.4414
21387SOL    HW165838   4.970   4.160   1.164  0.5063 -0.8753 -0.5412
21387SOL    HW265839   5.119   4.135   1.171  0.8676  1.1345 -0.5473
21388SOL     OW65840   7.184   8.759   2.232 -0.4768 -0.0087 -0.2295
21388SOL    HW165841   7.090   8.759   2.249 -0.2467  1.6794  1.1760
21388SOL    HW265842   7.210   8.667   2.243 -2.2675 -0.8210 -2.5724
21389SOL     OW65843   8.834   6.553   4.823 -0.1972 -0.1009 -0.3035
21389SOL    HW165844   8.923   6.582   4.804 -0.3861  0.0011 -1.0297
21389SOL    HW265845   8.779   6.600   4.761 -0.6741 -0.7922 -0.4163
21390SOL     OW65846   9.124   4.812   1.801  0.0492 -0.3547  0.2439
21390SOL    HW165847   9.047   4.828   1.747 -0.7145 -2.1746  0.7656
21390SOL    HW265848   9.175   4.747   1.753 -1.0452 -2.6037  2.0405
21391SOL     OW65849   4.558   5.660   3.663  0.1823  0.0375  0.1457
21391SOL    HW165850   4.617   5.593   3.697 -0.6359  0.1085  1.7881
21391SOL    HW265851   4.472   5.636   3.699 -0.5282  0.6954 -1.0912
21392SOL     OW65852   0.769   0.982   3.574  0.2895  0.7952 -0.5795
21392SOL    HW165853   0.783   1.049   3.507  2.6208 -0.1684 -1.1027
21392SOL    HW265854   0.824   0.908   3.546 -1.4240 -0.9651  0.5241
21393SOL     OW65855   9.030   3.675   6.678  0.1463  0.0212 -0.0899
21393SOL    HW165856   9.001   3.587   6.703  2.2190 -0.6976 -0.1119
21393SOL    HW265857   8.965   3.703   6.613  0.6562 -2.3871 -1.7132
21394SOL     OW65858   3.894   2.519   5.387 -0.0131 -0.0364  0.9738
21394SOL    HW165859   3.825   2.482   5.331  1.1557 -0.9372  0.1004
21394SOL    HW265860   3.952   2.564   5.326  1.2448 -0.9702  1.4554
21395SOL     OW65861   1.838   6.049   3.085 -0.2389  0.1547  0.2445
21395SOL    HW165862   1.805   6.118   3.026  2.8048  0.7378 -0.8447
21395SOL    HW265863   1.814   6.079   3.172 -1.1366  1.3754 -0.3958
21396SOL     OW65864   1.741   5.071   8.185  0.1337 -0.8984 -0.0563
21396SOL    HW165865   1.726   5.012   8.259 -0.0136  0.3073  0.9038
21396SOL    HW265866   1.739   5.158   8.224 -0.4577 -0.2146 -1.5712
21397SOL     OW65867   9.075   6.248   2.258  0.1555  0.1256 -0.2510
21397SOL    HW165868   9.158   6.294   2.261 -1.4269  3.1541 -0.5512
21397SOL    HW265869   9.029   6.275   2.338 -1.5064  0.4845 -1.2945
21398SOL     OW65870   5.338   4.381   4.584  0.0048 -0.4636 -0.8518
21398SOL    HW165871   5.289   4.356   4.663 -0.7818  1.3884 -0.7255
21398SOL    HW265872   5.407   4.316   4.577  0.2934 -0.4678  1.5761
21399SOL     OW65873   7.419   0.471   4.011 -0.2842  0.5930 -0.0396
21399SOL    HW165874   7.385   0.481   3.922  1.4363 -1.1801 -0.9230
21399SOL    HW265875   7.513   0.462   4.000 -0.1190 -0.3379  1.9341
21400SOL     OW65876   1.327   5.640   5.327  0.1162  0.2893 -0.5369
21400SOL    HW165877   1.302   5.729   5.352  1.0041 -0.2030  2.3126
21400SOL    HW265878   1.389   5.651   5.256 -0.0267  1.9516 -0.4151
21401SOL     OW65879   2.581   6.436   7.199  0.0767 -0.5407  0.0490
21401SOL    HW165880   2.577   6.522   7.242  0.3483 -1.0462  1.1071
21401SOL    HW265881   2.614   6.377   7.267  0.0695 -1.4490 -0.7286
21402SOL     OW65882   4.476   3.212   4.452  0.2634 -0.0631 -0.0439
21402SOL    HW165883   4.523   3.186   4.532 -0.9614 -1.0001  0.4012
21402SOL    HW265884   4.505   3.301   4.434  2.1229 -0.5841  0.2739
21403SOL     OW65885   4.832   8.784   2.463 -0.1566 -0.7453 -0.6934
21403SOL    HW165886   4.770   8.856   2.475  1.0513  0.3504 -0.8912
21403SOL    HW265887   4.897   8.797   2.532 -1.6994 -3.5890  1.3639
21404SOL     OW65888   8.392   5.220   0.164 -0.2225  0.3693 -0.1808
21404SOL    HW165889   8.372   5.230   0.071  1.1227  1.4178 -0.3821
21404SOL    HW265890   8.335   5.284   0.208 -2.0577 -1.2648 -0.0928
21405SOL     OW65891   2.362   3.097   1.346  1.1572  0.2378  0.2049
21405SOL    HW165892   2.302   3.168   1.322  1.6963 -0.3182 -2.8895
21405SOL    HW265893   2.449   3.132   1.327  1.5422 -0.6053  0.3890
21406SOL     OW65894   3.847   0.173   0.501 -0.7035 -0.0584  0.0585
21406SOL    HW165895   3.848   0.264   0.529 -0.9912  0.0006 -0.1346
21406SOL    HW265896   3.933   0.139   0.529 -0.4272  0.3827 -0.2582
21407SOL     OW65897   1.021   3.396   2.787  0.0524  0.4080 -0.0493
21407SOL    HW165898   1.021   3.302   2.802 -4.0714  0.0500 -1.4830
21407SOL    HW265899   0.987   3.434   2.868 -1.1315  0.3510 -0.4994
21408SOL     OW65900   6.737   3.471   2.394 -0.3250  0.0435  0.3163
21408SOL    HW165901   6.788   3.479   2.474  1.6423  0.4708 -0.9551
21408SOL    HW265902   6.647   3.458   2.424  0.5258 -0.7496  2.5855
21409SOL     OW65903   4.336   8.759   1.229  0.9553 -0.6534  0.4087
21409SOL    HW165904   4.367   8.779   1.317 -1.9047  1.9520  0.9009
21409SOL    HW265905   4.243   8.738   1.240 -0.2146  2.6160 -2.2477
21410SOL     OW65906   1.473   4.054   0.134 -0.1607  0.5034  0.0162
21410SOL    HW165907   1.453   4.120   0.201  0.3998  0.1292  0.5608
21410SOL    HW265908   1.466   4.101   0.051 -2.0890  0.6781  0.2483
21411SOL     OW65909   1.312   0.140   7.419 -0.2866 -0.1482 -0.6380
21411SOL    HW165910   1.291   0.105   7.506  0.6879 -1.6623 -0.9815
21411SOL    HW265911   1.236   0.120   7.365 -1.1357  1.3099 -0.0061
21412SOL     OW65912   1.578   4.503   9.029  0.3794  0.0959 -0.2654
21412SOL    HW165913   1.602   4.534   9.116  1.9881  0.9452 -0.9823
21412SOL    HW265914   1.646   4.439   9.007 -0.4940 -0.7418 -0.5492
21413SOL     OW65915   1.391   0.312   7.134 -0.2182 -0.5125 -0.0394
21413SOL    HW165916   1.313   0.293   7.082  0.2612  0.3626 -1.0783
21413SOL    HW265917   1.463   0.270   7.087  0.3737  1.1893 -0.6610
21414SOL     OW65918   5.225   3.654   8.090 -0.1179  0.4992  0.1024
21414SOL    HW165919   5.210   3.675   8.182 -1.8467 -0.5894  0.0947
21414SOL    HW265920   5.142   3.673   8.047  0.0545 -0.8547 -0.8814
21415SOL     OW65921   2.210   7.861   5.521 -0.1527 -0.2013 -0.2442
21415SOL    HW165922   2.138   7.918   5.547  0.2555  0.4543 -0.5318
21415SOL    HW265923   2.234   7.891   5.433 -0.4611 -1.3491 -0.7310
21416SOL     OW65924   3.916   2.341   7.940 -0.4359 -0.1739  0.3835
21416SOL    HW165925   3.936   2.363   7.849  0.4145 -1.4454  0.2537
21416SOL    HW265926   3.828   2.378   7.955 -0.6273 -0.0557 -0.9710
21417SOL     OW65927   5.020   7.666   6.553 -0.2636  0.2388 -0.3856
21417SOL    HW165928   4.932   7.646   6.585  0.1092 -0.1074  0.4352
21417SOL    HW265929   5.079   7.635   6.622  0.5131  0.3417 -0.9854
21418SOL     OW65930   2.585   3.682   6.143  0.0516 -0.0672  0.2571
21418SOL    HW165931   2.673   3.654   6.168 -0.0809 -0.7304 -0.0121
21418SOL    HW265932   2.595   3.718   6.055 -0.1041 -0.9538 -0.1224
21419SOL     OW65933   1.774   0.502   8.179 -0.5212 -0.0882  0.4396
21419SOL    HW165934   1.727   0.493   8.262 -0.0939 -0.0960  0.6854
21419SOL    HW265935   1.756   0.591   8.151  0.7442  0.4974  1.4226
21420SOL     OW65936   1.351   1.627   1.234  0.0036 -0.0881 -0.1547
21420SOL    HW165937   1.317   1.593   1.151 -1.1680 -1.2181  0.7544
21420SOL    HW265938   1.358   1.721   1.221 -2.4540  0.0413 -0.7614
21421SOL     OW65939   8.466   7.639   1.307  0.0647  0.1492  0.1760
21421SOL    HW165940   8.523   7.701   1.354  1.4517 -0.2560 -0.9369
21421SOL    HW265941   8.441   7.686   1.227 -2.2725  0.8312  1.2870
21422SOL     OW65942   1.617   1.612   1.333 -0.0889  0.4072 -0.7918
21422SOL    HW165943   1.643   1.520   1.338 -0.2985  0.4217  0.9717
21422SOL    HW265944   1.523   1.610   1.317 -0.2938  0.2954  0.3821
21423SOL     OW65945   4.198   7.063   4.667  0.3946  0.2594 -0.4761
21423SOL    HW165946   4.255   7.134   4.637  0.6143  0.1573 -0.2963
21423SOL    HW265947   4.198   7.070   4.762 -0.2672  0.5535 -0.4913
21424SOL     OW65948   6.119   0.237   7.380 -0.5989  0.1262 -0.1259
21424SOL    HW165949   6.120   0.226   7.285 -0.0312 -1.2181  0.0352
21424SOL    HW265950   6.046   0.183   7.410 -0.6386  0.3746  0.2265
21425SOL     OW65951   2.403   8.638   0.863  0.5971  0.1376 -0.2960
21425SOL    HW165952   2.497   8.624   0.847  0.4779  1.1454 -2.0452
21425SOL    HW265953   2.362   8.625   0.777 -1.0524 -1.6930  0.7320
21426SOL     OW65954   4.168   1.863   2.160 -0.1335  0.0360  0.6953
21426SOL    HW165955   4.128   1.789   2.207  0.6681 -0.7587  0.1301
21426SOL    HW265956   4.213   1.912   2.229 -1.7138  0.7209  1.2808
21427SOL     OW65957   3.064   0.068   2.279 -0.0553 -0.0172 -0.1801
21427SOL    HW165958   3.122  -0.005   2.261 -0.4503 -0.0030 -1.5261
21427SOL    HW265959   2.984   0.047   2.231 -0.2534  1.1950 -0.3747
21428SOL     OW65960   5.300   1.180   4.434  0.5085 -0.4377  0.3729
21428SOL    HW165961   5.286   1.119   4.507  0.5423 -2.2806 -1.1226
21428SOL    HW265962   5.217   1.228   4.427 -0.6980 -2.5707 -0.4700
21429SOL     OW65963   5.934   4.348   8.069 -0.1342  0.3720 -0.1509
21429SOL    HW165964   5.892   4.262   8.077  0.3827  0.1495  0.2339
21429SOL    HW265965   5.926   4.370   7.977 -1.4919  0.5343 -0.0080
21430SOL     OW65966   8.041   5.840   7.448  0.3050  0.0362 -0.3034
21430SOL    HW165967   8.073   5.914   7.397 -2.4728  0.7053 -1.1236
21430SOL    HW265968   8.113   5.777   7.447  1.1125  0.9680 -3.1412
21431SOL     OW65969   2.663   5.524   3.641 -0.0644  0.3894 -0.0279
21431SOL    HW165970   2.633   5.606   3.682 -0.0219  0.3546  0.0734
21431SOL    HW265971   2.757   5.534   3.633 -0.0392  0.2861  0.1281
21432SOL     OW65972   3.805   7.603   6.858 -0.3002  0.1040 -0.8790
21432SOL    HW165973   3.780   7.643   6.775 -0.6871 -1.6066 -1.6124
21432SOL    HW265974   3.863   7.667   6.899 -1.3718  1.6521 -1.7365
21433SOL     OW65975   1.847   6.008   4.670  0.4553 -0.1867  0.2124
21433SOL    HW165976   1.846   5.926   4.621 -1.3780  0.7792 -1.4289
21433SOL    HW265977   1.940   6.031   4.677  0.7994 -0.8843 -1.9203
21434SOL     OW65978   8.070   6.721   3.301  0.9083  0.3457 -0.2559
21434SOL    HW165979   8.016   6.747   3.227 -0.8595  0.9710  1.1978
21434SOL    HW265980   8.101   6.633   3.279 -3.2276 -1.3412  0.1346
21435SOL     OW65981   3.606   8.795   7.635 -0.0771 -0.0764 -0.4036
21435SOL    HW165982   3.699   8.773   7.636  0.1416  0.5704 -2.3999
21435SOL    HW265983   3.599   8.873   7.691  0.9957  1.2331 -2.0342
21436SOL     OW65984   6.860   4.214   4.041  0.0043  0.2112  0.1602
21436SOL    HW165985   6.901   4.212   3.954 -0.7230 -0.0992 -0.1762
21436SOL    HW265986   6.889   4.297   4.080  0.4903  0.2578 -0.2940
21437SOL     OW65987   7.270   4.421   3.614 -0.1794 -0.4406  0.0788
21437SOL    HW165988   7.206   4.381   3.555  0.3590 -1.0439 -0.1121
21437SOL    HW265989   7.219   4.477   3.671 -0.8219 -0.5537 -0.3773
21438SOL     OW65990   1.238   5.616   5.024 -0.8213  0.0340 -0.1357
21438SOL    HW165991   1.329   5.613   4.993 -0.9913  0.5164 -0.6756
21438SOL    HW265992   1.209   5.705   5.004 -1.7398 -0.4278 -0.8828
21439SOL     OW65993   1.878   2.964   7.709 -0.1725  0.5439  0.2569
21439SOL    HW165994   1.921   2.890   7.666 -0.1198  0.1262  1.0118
21439SOL    HW265995   1.946   3.002   7.765 -0.0832  1.4172 -0.4404
21440SOL     OW65996   8.005   9.094   8.505 -0.1190  0.6017  0.4627
21440SOL    HW165997   7.910   9.085   8.513 -0.5916  2.7094 -1.9455
21440SOL    HW265998   8.037   9.093   8.595 -2.4928  0.4613  1.3377
21441SOL     OW65999   8.817   8.559   5.327  0.3436 -0.1889  0.2959
21441SOL    HW166000   8.872   8.595   5.258 -0.6742  1.4803  0.3223
21441SOL    HW266001   8.856   8.473   5.347  3.3478  1.2084  0.8000
21442SOL     OW66002   4.131   3.838   6.687 -0.0843 -0.0189 -0.5502
21442SOL    HW166003   4.045   3.815   6.653 -0.2407 -0.2592 -0.0084
21442SOL    HW266004   4.113   3.879   6.772  0.4044 -1.4350  0.2653
21443SOL     OW66005   8.036   1.294   9.001  0.5081 -0.0291  0.1974
21443SOL    HW166006   8.075   1.379   9.019 -0.8691  0.8555 -0.8300
21443SOL    HW266007   8.089   1.257   8.930  0.8106  0.1970  0.3068
21444SOL     OW66008   7.339   1.376   4.804  0.7209 -0.5287 -0.0464
21444SOL    HW166009   7.422   1.405   4.764  0.7836  2.6614  2.1491
21444SOL    HW266010   7.365   1.339   4.889  0.0605 -1.3639 -0.2040
21445SOL     OW66011   7.567   3.916   3.375 -0.3118  0.3381  0.3830
21445SOL    HW166012   7.642   3.870   3.414  0.2207  0.7075 -0.1923
21445SOL    HW266013   7.523   3.958   3.449 -1.4088 -1.9457  1.0474
21446SOL     OW66014   3.827   2.027   2.350  0.5901  0.3736  0.3221
21446SOL    HW166015   3.879   2.088   2.298 -0.9543 -0.0385 -1.7426
21446SOL    HW266016   3.853   2.045   2.441  2.8693  1.5074 -0.5244
21447SOL     OW66017   2.979   3.741   3.962  0.2264  0.1281 -0.3085
21447SOL    HW166018   3.053   3.802   3.965  1.3534 -1.1940 -0.7821
21447SOL    HW266019   2.928   3.762   4.040  1.0940  1.0465  0.0342
21448SOL     OW66020   7.908   4.166   1.074 -0.4147  0.2122  0.2841
21448SOL    HW166021   7.942   4.143   1.160  1.1005  0.4312 -0.2303
21448SOL    HW266022   7.943   4.253   1.057 -0.8211  0.2321 -0.4860
21449SOL     OW66023   5.535   0.116   5.580  0.0887 -0.1553 -0.5409
21449SOL    HW166024   5.528   0.025   5.551  0.8126 -1.2834  2.6116
21449SOL    HW266025   5.586   0.111   5.661 -0.8052  2.9492  0.2608
21450SOL     OW66026   2.567   4.328   0.947 -0.0715  0.1086 -0.1920
21450SOL    HW166027   2.559   4.288   1.034  0.9505  1.2859  0.4512
21450SOL    HW266028   2.528   4.415   0.956  0.2107  0.3122 -0.8588
21451SOL     OW66029   0.249   0.294   3.839  0.5345 -0.4259 -0.2175
21451SOL    HW166030   0.276   0.315   3.929 -1.2746 -0.7092  0.4293
21451SOL    HW266031   0.180   0.359   3.820  0.7136 -0.5469 -1.3026
21452SOL     OW66032   4.035   3.643   2.243  0.0613 -0.6706 -0.2385
21452SOL    HW166033   4.040   3.569   2.303  6.1469 -0.4742 -0.2004
21452SOL    HW266034   4.056   3.606   2.158 -1.4267  0.2804 -1.0330
21453SOL     OW66035   3.342   6.946   5.969  1.1534 -0.2116 -0.0326
21453SOL    HW166036   3.280   6.873   5.969  0.2708  0.5061 -1.3837
21453SOL    HW266037   3.329   6.989   6.054  0.3974 -0.5707  0.0377
21454SOL     OW66038   7.995   2.617   4.755 -0.7717  1.0997 -0.1964
21454SOL    HW166039   7.910   2.578   4.777 -0.9350  1.6065  0.0677
21454SOL    HW266040   7.976   2.707   4.731 -0.4655  0.8210 -1.4972
21455SOL     OW66041   2.923   0.936   5.201 -0.2679  0.4453  0.1609
21455SOL    HW166042   2.931   0.842   5.181 -1.4018  0.2089  0.7894
21455SOL    HW266043   2.829   0.950   5.215 -0.0522  1.5850  0.5247
21456SOL     OW66044   3.393   2.942   7.379 -0.5091 -0.4755  0.1922
21456SOL    HW166045   3.368   2.892   7.456  0.2656  0.3795  1.0056
21456SOL    HW266046   3.483   2.970   7.396 -1.3398  2.2644  0.3193
21457SOL     OW66047   3.666   7.081   1.863 -0.4118 -0.3435  0.2493
21457SOL    HW166048   3.727   7.017   1.900 -1.6110 -0.2880  2.4462
21457SOL    HW266049   3.636   7.132   1.939 -2.1937  0.4555 -0.9532
21458SOL     OW66050   2.141   7.340   2.710  0.3242  0.2933  0.3901
21458SOL    HW166051   2.125   7.410   2.646  0.8280  1.2492  1.2942
21458SOL    HW266052   2.186   7.272   2.660  0.6154  0.9872 -0.3043
21459SOL     OW66053   0.552   7.005   3.000 -0.2133 -0.1553 -0.3221
21459SOL    HW166054   0.589   7.093   2.998 -1.0396  0.1791 -1.5654
21459SOL    HW266055   0.600   6.960   3.069  0.0991  1.3166  0.4249
21460SOL     OW66056   5.643   7.752   3.810  0.4945  0.1624 -0.2423
21460SOL    HW166057   5.655   7.663   3.777  0.3071 -0.0226  0.1833
21460SOL    HW266058   5.591   7.796   3.744  2.5001  0.6321 -1.5688
21461SOL     OW66059   1.684   6.591   0.097 -0.4650  0.0413 -0.4442
21461SOL    HW166060   1.715   6.512   0.053 -0.7741 -0.1427 -0.3319
21461SOL    HW266061   1.755   6.655   0.085  0.8239 -0.9734  1.4793
21462SOL     OW66062   0.359   2.199   1.752  0.3431 -0.0463  0.2690
21462SOL    HW166063   0.355   2.167   1.662  1.9130 -0.2811  0.2676
21462SOL    HW266064   0.356   2.120   1.806 -1.0432  0.1172  0.4533
21463SOL     OW66065   9.023   3.512   3.175 -0.1592 -0.0408  0.1159
21463SOL    HW166066   9.000   3.590   3.226 -2.2477  0.3836 -1.3997
21463SOL    HW266067   9.107   3.534   3.135 -0.5483  1.3006 -0.0125
21464SOL     OW66068   1.918   2.766   6.384 -0.6659  0.1137  0.0059
21464SOL    HW166069   1.840   2.752   6.438 -1.3007  0.4895 -0.7931
21464SOL    HW266070   1.892   2.836   6.323  0.9688  1.6925  1.0662
21465SOL     OW66071   0.300   2.295   7.970 -0.3767  0.2391 -0.0873
21465SOL    HW166072   0.271   2.205   7.988  0.5865  0.0960  0.8222
21465SOL    HW266073   0.257   2.348   8.037  1.1330  0.0736  1.0531
21466SOL     OW66074   7.724   2.135   0.548 -0.2500  0.4814 -0.2770
21466SOL    HW166075   7.703   2.225   0.572 -0.0190  0.6711 -0.7899
21466SOL    HW266076   7.640   2.089   0.546 -0.3029  0.5279  0.6343
21467SOL     OW66077   6.714   0.566   8.486 -0.1474  0.1799  0.0337
21467SOL    HW166078   6.808   0.586   8.484 -0.2819  0.8095 -0.1015
21467SOL    HW266079   6.682   0.611   8.564 -0.3814  0.1506 -0.0452
21468SOL     OW66080   5.374   5.434   4.627  0.3887 -0.1667 -0.0732
21468SOL    HW166081   5.435   5.460   4.557 -0.6589  0.7611 -0.6495
21468SOL    HW266082   5.391   5.341   4.639  0.7653 -0.2810 -1.3942
21469SOL     OW66083   9.019   3.941   4.097  1.1713  0.4338  0.1885
21469SOL    HW166084   8.967   3.985   4.030 -0.6533  0.5389  1.6239
21469SOL    HW266085   9.072   3.877   4.049 -1.7710 -1.1041 -1.1198
21470SOL     OW66086   9.213   3.274   8.098 -0.0374 -0.3753 -0.0817
21470SOL    HW166087   9.149   3.309   8.160 -0.8155 -1.9039  0.0147
21470SOL    HW266088   9.294   3.268   8.148 -0.7081 -1.7930  0.8732
21471SOL     OW66089   0.288   4.824   6.296 -0.0157  0.0970  0.8180
21471SOL    HW166090   0.310   4.905   6.343  1.6027 -0.0171  0.3016
21471SOL    HW266091   0.193   4.826   6.288 -0.2862  0.4900  3.4276
21472SOL     OW66092   6.921   3.975   8.280 -0.5643 -0.1677 -0.1431
21472SOL    HW166093   6.838   3.926   8.289 -1.3798  1.4137  1.1685
21472SOL    HW266094   6.966   3.960   8.363 -1.6268  2.7023  1.0279
21473SOL     OW66095   5.409   2.807   5.103 -0.2184  0.0348 -0.8593
21473SOL    HW166096   5.331   2.821   5.048 -0.0338  1.9160 -0.6811
21473SOL    HW266097   5.376   2.763   5.181 -0.9935  0.1874 -1.0963
21474SOL     OW66098   4.221   0.085   6.680 -0.2377 -0.4517  0.1199
21474SOL    HW166099   4.277   0.015   6.715 -0.1737 -0.2213  0.4766
21474SOL    HW266100   4.190   0.051   6.596  0.5477 -0.5283 -0.1422
21475SOL     OW66101   0.407   5.510   6.392 -0.1458 -0.3128  0.3082
21475SOL    HW166102   0.399   5.522   6.487 -1.2475 -2.9211  0.5958
21475SOL    HW266103   0.499   5.527   6.373  0.7589 -2.5930  2.3325
21476SOL     OW66104   7.219   2.871   6.641  0.3925  0.0532 -0.4245
21476SOL    HW166105   7.238   2.860   6.734  2.8618 -2.0596 -1.1171
21476SOL    HW266106   7.157   2.801   6.620 -0.6066  0.8760 -0.2813
21477SOL     OW66107   6.308   5.320   3.021 -0.0730  0.2137 -0.4568
21477SOL    HW166108   6.373   5.250   3.021 -0.6889 -0.3692  0.0438
21477SOL    HW266109   6.224   5.275   3.029 -0.4136  1.0616  1.0414
21478SOL     OW66110   5.090   0.136   3.627  0.6682  0.0211 -0.1021
21478SOL    HW166111   5.087   0.225   3.662  1.6718  0.6638 -1.5875
21478SOL    HW266112   5.009   0.128   3.577  1.3036  0.6660 -1.2564
21479SOL     OW66113   2.835   9.199   5.587  0.0190 -0.2596  0.2972
21479SOL    HW166114   2.824   9.105   5.598 -1.7077 -0.1917 -0.8099
21479SOL    HW266115   2.803   9.218   5.499  0.6686  1.3257  0.3704
21480SOL     OW66116   7.932   0.681   7.903  0.0265 -0.2212  0.0336
21480SOL    HW166117   7.918   0.617   7.973  1.7518  0.7508  1.3037
21480SOL    HW266118   7.930   0.765   7.947  1.4345  0.3931 -1.0439
21481SOL     OW66119   1.129   2.185   8.776  0.2104  0.0181  0.1799
21481SOL    HW166120   1.154   2.224   8.693 -1.5498  1.6039  0.3638
21481SOL    HW266121   1.112   2.259   8.834 -1.4781 -1.0218  1.0606
21482SOL     OW66122   6.879   1.761   5.421 -0.1475  0.1670  0.0711
21482SOL    HW166123   6.848   1.825   5.357  0.0089  1.0005  0.8169
21482SOL    HW266124   6.965   1.734   5.389 -1.4930 -1.9449 -1.8602
21483SOL     OW66125   5.489   5.831   4.113  0.5192 -0.1225  0.5369
21483SOL    HW166126   5.566   5.888   4.117 -0.3000  1.1234 -0.8158
21483SOL    HW266127   5.415   5.892   4.112 -0.3806 -1.2211 -0.8828
21484SOL     OW66128   0.261   1.513   2.411  0.1371 -0.3496 -0.4360
21484SOL    HW166129   0.341   1.561   2.387  0.1459 -0.3410 -0.3902
21484SOL    HW266130   0.292   1.425   2.430 -0.0872 -0.7669 -1.9730
21485SOL     OW66131   4.183   7.092   6.605 -0.5135 -0.3425 -0.1915
21485SOL    HW166132   4.149   7.180   6.591  2.4103  1.1186  1.5266
21485SOL    HW266133   4.262   7.087   6.550 -0.9963 -2.1508 -0.7832
21486SOL     OW66134   1.903   6.152   2.477 -0.9017  0.0853 -0.2188
21486SOL    HW166135   1.859   6.108   2.550 -0.7689  0.5545  0.1467
21486SOL    HW266136   1.982   6.190   2.515 -2.3143  2.8982  0.0691
21487SOL     OW66137   0.267   6.638   2.787  0.2718 -0.1716  0.1178
21487SOL    HW166138   0.215   6.570   2.744 -0.0977  0.1772  0.0074
21487SOL    HW266139   0.221   6.654   2.870 -0.8274  1.4004 -0.7639
21488SOL     OW66140   5.349   2.268   0.832 -0.0545 -0.2219 -0.6892
21488SOL    HW166141   5.319   2.359   0.833  1.3029  0.2578 -1.9491
21488SOL    HW266142   5.442   2.274   0.810  0.3023 -1.8563  0.3030
21489SOL     OW66143   2.853   8.696   1.337  0.2537 -0.1209 -0.1597
21489SOL    HW166144   2.775   8.695   1.391 -0.9951  0.6591 -1.8943
21489SOL    HW266145   2.893   8.782   1.353 -0.8068  0.6187 -1.4092
21490SOL     OW66146   3.157   3.247   1.758 -0.2713 -0.3214 -0.5485
21490SOL    HW166147   3.110   3.175   1.800 -0.7694  0.2282 -0.1553
21490SOL    HW266148   3.135   3.240   1.665  0.5094 -1.2953 -0.6677
21491SOL     OW66149   0.487   0.102   0.672  0.2366 -0.2548 -0.1810
21491SOL    HW166150   0.524   0.180   0.629 -1.0115  1.1439  1.2220
21491SOL    HW266151   0.427   0.066   0.607  0.6510  0.0784 -0.7577
21492SOL     OW66152   4.832   7.924   8.180 -0.0465  0.2900  0.3845
21492SOL    HW166153   4.885   7.984   8.128 -0.5974 -1.0833 -1.8562
21492SOL    HW266154   4.895   7.870   8.227  0.4643  1.2631  0.8223
21493SOL     OW66155   2.567   0.540   2.997 -0.5933 -0.1051  0.0667
21493SOL    HW166156   2.489   0.491   3.022 -0.1099 -1.4167 -0.9082
21493SOL    HW266157   2.640   0.487   3.029 -0.0201 -0.8676 -2.4177
21494SOL     OW66158   8.690   5.641   5.735 -0.0332 -0.9376 -0.0703
21494SOL    HW166159   8.601   5.675   5.741 -0.7441 -2.6845 -0.4799
21494SOL    HW266160   8.690   5.561   5.787  0.5431 -2.4113 -2.2373
21495SOL     OW66161   7.887   5.663   4.988 -0.5104  0.2102  0.0039
21495SOL    HW166162   7.846   5.695   5.068 -0.7097 -1.2472  0.4963
21495SOL    HW266163   7.981   5.675   5.003 -0.6269  1.3678 -0.1725
21496SOL     OW66164   8.824   5.440   4.251  0.9555 -0.4097 -0.3168
21496SOL    HW166165   8.814   5.430   4.156 -0.2996 -1.4002 -0.0933
21496SOL    HW266166   8.825   5.350   4.284 -0.1064 -0.0367  0.7487
21497SOL     OW66167   2.359   6.548   4.825  0.4767  0.3131  0.4416
21497SOL    HW166168   2.349   6.466   4.875 -1.0378  0.9711  1.2486
21497SOL    HW266169   2.422   6.599   4.876  0.4380  0.1773  0.6262
21498SOL     OW66170   7.470   5.162   3.032  0.3476  0.3326  0.0932
21498SOL    HW166171   7.500   5.085   2.984 -0.7655  0.2831 -0.5288
21498SOL    HW266172   7.536   5.229   3.014 -0.0978  0.3377 -1.5678
21499SOL     OW66173   2.084   7.932   8.145  0.0960  0.0083  0.0220
21499SOL    HW166174   2.165   7.894   8.179  0.7941  0.8457 -0.6963
21499SOL    HW266175   2.015   7.875   8.180  1.1654 -2.3974 -1.6744
21500SOL     OW66176   1.728   0.539   9.062  0.0861  0.0963 -0.3892
21500SOL    HW166177   1.814   0.501   9.073  0.6095  1.3580  0.0387
21500SOL    HW266178   1.732   0.622   9.110 -1.1660  0.4569 -0.8686
21501SOL     OW66179   2.112   8.755   1.007  0.6684  0.5234  0.0224
21501SOL    HW166180   2.204   8.753   1.035  1.2537 -0.0168 -1.8511
21501SOL    HW266181   2.100   8.843   0.971  0.3376  0.7254  0.6230
21502SOL     OW66182   4.624   2.755   7.381  0.0858  0.0039  0.2659
21502SOL    HW166183   4.573   2.824   7.424  1.6070  1.4818 -0.2292
21502SOL    HW266184   4.603   2.763   7.288 -0.6277 -0.9675  0.3448
21503SOL     OW66185   5.907   7.174   8.149  0.4121  0.4620  0.1247
21503SOL    HW166186   5.826   7.166   8.097 -0.2748 -1.0840  1.3909
21503SOL    HW266187   5.969   7.117   8.103  1.3316  2.9048 -1.7901
21504SOL     OW66188   3.776   7.463   2.351 -0.6116  0.4494  0.0905
21504SOL    HW166189   3.699   7.413   2.324 -1.1272  0.0562  2.1658
21504SOL    HW266190   3.839   7.450   2.280 -1.3137 -1.8347 -0.1628
21505SOL     OW66191   6.933   2.418   5.744  0.2872 -0.4089  0.0449
21505SOL    HW166192   6.875   2.435   5.671 -0.3918 -1.8311  0.2301
21505SOL    HW266193   6.895   2.341   5.788  0.2407  0.8644  2.3296
21506SOL     OW66194   2.547   3.884   6.956 -0.2765 -0.6396 -0.0241
21506SOL    HW166195   2.510   3.944   6.890 -1.9858 -0.8703  0.7027
21506SOL    HW266196   2.617   3.839   6.910  0.1105  0.9118 -1.0027
21507SOL     OW66197   6.984   2.854   7.393 -0.6277  0.3926 -0.2795
21507SOL    HW166198   6.892   2.876   7.404 -0.6457 -0.2877  1.1030
21507SOL    HW266199   7.030   2.913   7.453 -0.0706  1.3736 -1.6502
21508SOL     OW66200   5.169   9.170   9.273  0.2353  0.3534  0.0762
21508SOL    HW166201   5.260   9.179   9.244  0.2463  1.9043  0.5868
21508SOL    HW266202   5.135   9.096   9.222  1.3709  0.6631 -1.1488
21509SOL     OW66203   0.363   0.869   1.513 -0.2181  0.2001  0.0296
21509SOL    HW166204   0.321   0.875   1.427 -1.4462  1.2830  0.6933
21509SOL    HW266205   0.423   0.795   1.505  0.9196  1.3218 -2.3002
21510SOL     OW66206   1.152   6.088   4.058  0.0675 -0.0248  0.0420
21510SOL    HW166207   1.139   6.072   3.965 -1.2052  2.1861 -0.2011
21510SOL    HW266208   1.096   6.163   4.077 -0.7145 -1.2733  2.8966
21511SOL     OW66209   3.103   5.863   3.758 -0.1021  0.2356 -0.0147
21511SOL    HW166210   3.075   5.896   3.843 -1.6481  0.8398 -0.7429
21511SOL    HW266211   3.026   5.870   3.702  1.2660  1.1317 -1.8582
21512SOL     OW66212   1.938   0.937   4.392  0.1178 -0.5408  0.1420
21512SOL    HW166213   1.944   1.028   4.421 -0.8757 -0.5563  0.4234
21512SOL    HW266214   1.962   0.885   4.469 -0.3591 -0.5315  0.3024
21513SOL     OW66215   2.172   2.962   6.233  0.7229  0.3210  0.2429
21513SOL    HW166216   2.236   2.936   6.166  0.2977 -1.6690  0.5635
21513SOL    HW266217   2.094   2.910   6.211  0.5595 -0.2855  2.2265
21514SOL     OW66218   2.975   5.885   7.072  0.7567  0.0440 -0.5656
21514SOL    HW166219   3.062   5.911   7.039  1.4239  1.0280  1.8643
21514SOL    HW266220   2.991   5.803   7.118  0.4603  0.3686  0.1201
21515SOL     OW66221   5.013   9.077   7.901 -0.4263  0.4630  0.0318
21515SOL    HW166222   4.951   9.047   7.835 -1.1287 -0.6534  1.1861
21515SOL    HW266223   4.960   9.093   7.979  0.7055 -0.4081  1.0064
21516SOL     OW66224   8.725   4.071   4.761  0.1767 -0.3154 -0.3811
21516SOL    HW166225   8.724   4.040   4.852  0.8807 -0.0562 -0.2765
21516SOL    HW266226   8.796   4.022   4.720  0.8826  0.6762 -0.3783
21517SOL     OW66227   1.211   5.953   0.087  0.4942 -0.0422 -0.1613
21517SOL    HW166228   1.180   5.951   0.177  2.7609 -0.6652  0.6434
21517SOL    HW266229   1.276   6.023   0.085 -0.8128  1.1547 -1.7661
21518SOL     OW66230   8.516   4.120   3.306  0.3047  0.3726 -0.1685
21518SOL    HW166231   8.479   4.078   3.384  0.1148 -2.2556 -1.6168
21518SOL    HW266232   8.488   4.212   3.312 -0.7151 -0.0653  2.2155
21519SOL     OW66233   3.192   6.058   0.689 -0.1048 -0.4554 -0.0761
21519SOL    HW166234   3.236   5.994   0.633  1.1955  0.8526 -0.5662
21519SOL    HW266235   3.161   6.125   0.628  0.7128  0.6255  0.6864
21520SOL     OW66236   4.682   8.481   5.752  0.4206 -0.3630 -0.0143
21520SOL    HW166237   4.593   8.510   5.731  0.7340 -0.5272 -1.6159
21520SOL    HW266238   4.669   8.400   5.802 -0.3186 -1.0172 -1.2432
21521SOL     OW66239   6.967   6.300   5.248  0.5513  0.2912 -0.2100
21521SOL    HW166240   6.877   6.326   5.267  0.9102 -0.9467  3.7261
21521SOL    HW266241   6.959   6.222   5.194 -0.7432  0.5425 -0.3792
21522SOL     OW66242   4.079   4.354   3.518  0.6760  0.2286 -0.4140
21522SOL    HW166243   4.135   4.396   3.583  1.2505  1.1129 -1.4621
21522SOL    HW266244   4.139   4.331   3.447  0.1109 -1.0069 -0.5044
21523SOL     OW66245   8.885   0.042   4.280  0.2646 -0.3767  0.1712
21523SOL    HW166246   8.796   0.008   4.283  0.5501 -1.2156 -0.9361
21523SOL    HW266247   8.896   0.087   4.365 -1.7871  1.2318 -0.3799
21524SOL     OW66248   8.448   3.128   2.675  0.0140  0.0793 -0.7241
21524SOL    HW166249   8.511   3.198   2.691  1.6944 -1.3806 -0.8365
21524SOL    HW266250   8.459   3.105   2.583 -0.3210 -0.5316 -0.6190
21525SOL     OW66251   3.032   8.570   8.585  0.1531 -0.1368  0.1698
21525SOL    HW166252   2.995   8.638   8.642  0.5274  0.1197  0.1118
21525SOL    HW266253   2.992   8.489   8.616  2.3072 -0.3578  2.5294
21526SOL     OW66254   6.430   6.147   4.913  0.1019 -0.6403  0.1784
21526SOL    HW166255   6.406   6.092   4.839 -1.5903  0.8475 -0.4114
21526SOL    HW266256   6.426   6.089   4.989 -0.0918 -1.6980 -0.6362
21527SOL     OW66257   8.590   3.069   4.995  0.1818 -0.3082  0.0583
21527SOL    HW166258   8.574   2.985   5.038  0.4226 -0.0509  0.6609
21527SOL    HW266259   8.526   3.072   4.924 -0.3348 -0.6652  0.5042
21528SOL     OW66260   3.007   5.393   5.377 -0.1155 -0.0367  0.4290
21528SOL    HW166261   2.968   5.320   5.425  1.0880 -0.3730  0.9331
21528SOL    HW266262   3.030   5.356   5.292 -4.2172  1.1030 -1.3088
21529SOL     OW66263   4.026   7.136   3.612  0.4568  0.3466 -0.8214
21529SOL    HW166264   4.068   7.140   3.698  0.9948 -0.4575 -1.0478
21529SOL    HW266265   4.066   7.207   3.562  2.1471 -0.9263 -1.3003
21530SOL     OW66266   8.898   3.406   7.468  0.2229 -0.2830  0.7108
21530SOL    HW166267   8.906   3.334   7.531  0.3471 -0.1135  0.8880
21530SOL    HW266268   8.911   3.485   7.520 -2.2071 -0.0027  0.9842
21531SOL     OW66269   1.543   7.290   5.630  0.1492 -0.0008 -0.0769
21531SOL    HW166270   1.499   7.205   5.631 -1.3828  0.7477 -0.9447
21531SOL    HW266271   1.605   7.284   5.558 -1.6067  0.3634 -1.6890
21532SOL     OW66272   7.143   1.711   5.341 -0.3772 -0.7692  0.3751
21532SOL    HW166273   7.135   1.744   5.251 -0.3606 -1.4147  0.1353
21532SOL    HW266274   7.237   1.705   5.356 -0.3723 -1.8726 -0.0193
21533SOL     OW66275   8.608   1.557   3.926 -0.7260  0.4932 -0.1557
21533SOL    HW166276   8.570   1.487   3.873 -0.7820 -0.4830  1.1280
21533SOL    HW266277   8.620   1.517   4.012  0.4649  1.6902  0.2459
21534SOL     OW66278   4.202   1.789   6.207  0.3088  0.5755  0.3537
21534SOL    HW166279   4.225   1.791   6.300  0.5472  0.0412  0.3061
21534SOL    HW266280   4.107   1.788   6.205  0.3085  0.0970  0.6032
21535SOL     OW66281   2.362   9.242   1.859  0.4121  0.3454 -0.0650
21535SOL    HW166282   2.403   9.326   1.881  1.6125 -0.4365  0.7283
21535SOL    HW266283   2.433   9.179   1.865 -0.3594 -0.6478 -1.2643
21536SOL     OW66284   0.984   4.482   6.350 -0.2179 -0.6638 -0.5069
21536SOL    HW166285   1.036   4.441   6.419 -0.0647 -3.0403 -1.9799
21536SOL    HW266286   1.039   4.475   6.271 -0.9647  0.7629 -1.1838
21537SOL     OW66287   1.000   7.819   5.359  0.0621 -0.2781  0.5402
21537SOL    HW166288   0.946   7.897   5.372  0.7861  0.4840 -0.8274
21537SOL    HW266289   1.073   7.830   5.420  1.1232  1.0747 -0.8866
21538SOL     OW66290   4.725   6.899   0.058  0.0377  0.1024 -0.2865
21538SOL    HW166291   4.696   6.808   0.064 -0.6043  0.2153 -1.5212
21538SOL    HW266292   4.816   6.897   0.087 -0.3779 -0.7036  1.0057
21539SOL     OW66293   8.810   8.671   1.366 -0.0868  0.5823 -0.2998
21539SOL    HW166294   8.770   8.586   1.383 -1.7172  1.4195  0.0960
21539SOL    HW266295   8.843   8.665   1.276 -0.5386 -0.3263 -0.4080
21540SOL     OW66296   0.701   2.492   8.937 -0.5208 -0.1341 -0.5406
21540SOL    HW166297   0.649   2.572   8.946 -0.5245 -0.2066  0.0653
21540SOL    HW266298   0.706   2.456   9.025  2.4283  1.0537 -0.1588
21541SOL     OW66299   3.692   2.979   3.925 -0.3217  0.4609 -0.4609
21541SOL    HW166300   3.635   2.965   3.850  1.5192 -0.2313 -1.7842
21541SOL    HW266301   3.719   3.071   3.919  0.8045  0.0848 -1.3898
21542SOL     OW66302   1.655   5.280   4.484 -0.0564 -0.3226  0.3136
21542SOL    HW166303   1.597   5.254   4.412 -0.0484  0.8345 -0.1307
21542SOL    HW266304   1.652   5.376   4.483  1.8595 -0.2517  0.2959
21543SOL     OW66305   1.435   6.056   2.965  0.0900 -0.3621  0.2981
21543SOL    HW166306   1.431   6.101   3.049  0.1130 -0.7103  0.4848
21543SOL    HW266307   1.525   6.024   2.959  0.4211  0.6588 -0.3774
21544SOL     OW66308   5.852   2.548   6.789  0.4222 -0.1238 -0.0812
21544SOL    HW166309   5.813   2.544   6.702  0.8664  1.3764 -0.3627
21544SOL    HW266310   5.943   2.572   6.774  0.8833 -1.2964  0.7188
21545SOL     OW66311   4.451   8.853   7.261  0.2344  0.7422  0.1534
21545SOL    HW166312   4.428   8.771   7.218  3.1752 -0.1751  0.2076
21545SOL    HW266313   4.494   8.826   7.343  0.5833  2.3263  0.5174
21546SOL     OW66314   5.483   3.051   6.390 -0.4967  0.4352  0.3002
21546SOL    HW166315   5.391   3.044   6.364 -1.0358  0.0340  2.2998
21546SOL    HW266316   5.489   3.136   6.434 -0.0969  0.0947  0.9126
21547SOL     OW66317   3.617   0.994   1.943 -0.1822  0.5099  0.3128
21547SOL    HW166318   3.690   1.051   1.968 -0.0853  1.9155 -2.9169
21547SOL    HW266319   3.647   0.906   1.967  1.9014  1.2510  0.5823
21548SOL     OW66320   8.144   3.394   0.344 -0.5533  0.2815 -0.4812
21548SOL    HW166321   8.175   3.443   0.420  0.6418  1.8847 -1.9736
21548SOL    HW266322   8.049   3.405   0.345 -0.5932 -0.0801  1.0000
21549SOL     OW66323   3.638   1.136   3.090 -0.1656 -0.4481  0.0528
21549SOL    HW166324   3.663   1.048   3.117  2.1251  0.1413 -0.0332
21549SOL    HW266325   3.668   1.193   3.160  0.2034  0.4733 -0.8400
21550SOL     OW66326   8.113   7.279   5.836 -0.0830 -0.6471  0.7724
21550SOL    HW166327   8.085   7.367   5.863 -0.8428 -0.9413  0.9600
21550SOL    HW266328   8.151   7.292   5.749  1.1506  0.0995  1.3998
21551SOL     OW66329   0.787   9.007   2.109 -0.3524 -0.2685  0.2737
21551SOL    HW166330   0.859   8.946   2.126 -1.3296 -1.2445  0.9932
21551SOL    HW266331   0.818   9.091   2.143 -0.1941 -1.0431  2.0732
21552SOL     OW66332   5.790   8.801   2.317 -0.1579 -0.2273 -0.1112
21552SOL    HW166333   5.881   8.798   2.349 -0.1845  1.4629  0.1684
21552SOL    HW266334   5.799   8.801   2.222  0.1307 -0.2931 -0.0873
21553SOL     OW66335   9.209   4.652   6.286  0.4308 -0.2538 -0.2153
21553SOL    HW166336   9.129   4.619   6.326  0.9815 -0.2181  0.9495
21553SOL    HW266337   9.198   4.635   6.192 -0.6796 -0.7775  0.0022
21554SOL     OW66338   1.164   3.793   1.963  0.3438 -0.7441 -0.3096
21554SOL    HW166339   1.170   3.773   2.056  1.0665 -0.9541 -0.3939
21554SOL    HW266340   1.152   3.708   1.921  0.1146 -0.6598 -0.4164
21555SOL     OW66341   3.789   6.762   8.993  0.1483 -0.6514 -0.1595
21555SOL    HW166342   3.862   6.783   8.934  0.2100 -0.2018  0.0735
21555SOL    HW266343   3.749   6.685   8.955 -0.4476  0.2425 -1.3748
21556SOL     OW66344   3.668   8.344   7.277  0.0575  0.0402 -0.1065
21556SOL    HW166345   3.681   8.319   7.369  0.8518  0.5708 -0.0674
21556SOL    HW266346   3.631   8.267   7.236 -0.7718 -0.0391  0.7776
21557SOL     OW66347   4.205   5.845   1.771  0.9066 -0.7024 -0.6227
21557SOL    HW166348   4.284   5.794   1.783  2.3167  1.6678  0.5344
21557SOL    HW266349   4.177   5.869   1.859 -0.3802 -0.4451 -1.0802
21558SOL     OW66350   3.854   2.604   8.537  0.7546 -0.5237  0.5306
21558SOL    HW166351   3.922   2.606   8.470  1.1475 -0.3263  0.9329
21558SOL    HW266352   3.901   2.591   8.619  0.2797 -0.7188  0.7754
21559SOL     OW66353   6.692   8.893   5.495 -0.4214  0.7235 -0.3464
21559SOL    HW166354   6.738   8.810   5.497 -1.3964  0.1702 -0.5662
21559SOL    HW266355   6.760   8.958   5.477  0.6240  0.1904  1.5130
21560SOL     OW66356   8.232   4.328   8.362 -0.0890  0.1958  0.6507
21560SOL    HW166357   8.267   4.392   8.425  0.9976  0.4653 -0.2121
21560SOL    HW266358   8.172   4.378   8.307  0.8916  0.5286 -0.1335
21561SOL     OW66359   6.214   3.319   8.136  0.3676  0.6185  0.1796
21561SOL    HW166360   6.142   3.311   8.074  0.6977  0.2724 -0.1569
21561SOL    HW266361   6.292   3.330   8.081  0.7291 -0.2270  0.5203
21562SOL     OW66362   3.492   8.617   0.880  0.5087  0.1799  0.0523
21562SOL    HW166363   3.498   8.551   0.949  0.3893 -0.9808 -1.0380
21562SOL    HW266364   3.567   8.674   0.895  0.1504  0.2821  1.5019
21563SOL     OW66365   8.295   5.158   0.556 -0.5076 -0.2314  0.8528
21563SOL    HW166366   8.367   5.173   0.617 -1.0257  0.9922  1.1749
21563SOL    HW266367   8.337   5.122   0.477  0.4105  0.1684  1.1602
21564SOL     OW66368   8.438   8.630   0.858 -0.2606  0.1094 -0.0933
21564SOL    HW166369   8.359   8.608   0.808 -0.2490  1.3005 -0.6627
21564SOL    HW266370   8.507   8.639   0.792  0.2198 -0.2947  0.3410
21565SOL     OW66371   2.171   8.430   2.179  0.5929 -0.2018 -0.2349
21565SOL    HW166372   2.120   8.364   2.133  1.2646 -1.4745  0.8190
21565SOL    HW266373   2.117   8.509   2.174 -0.2958 -0.8613 -1.3546
21566SOL     OW66374   1.060   6.240   3.537  0.6222 -0.2979 -0.4228
21566SOL    HW166375   1.049   6.252   3.443  0.8027 -0.5832 -0.4809
21566SOL    HW266376   1.146   6.200   3.546 -0.1434 -1.9684 -0.2726
21567SOL     OW66377   2.868   8.320   5.532  0.6477  0.9429  0.1114
21567SOL    HW166378   2.822   8.368   5.601 -1.8839 -0.1281 -0.7542
21567SOL    HW266379   2.899   8.240   5.575  0.0486  0.7988  0.2849
21568SOL     OW66380   0.414   6.380   3.225 -0.3983  0.4064  0.3761
21568SOL    HW166381   0.339   6.388   3.167 -1.2725 -1.9571  1.1527
21568SOL    HW266382   0.484   6.347   3.169 -0.5816  0.3636  0.1732
21569SOL     OW66383   0.563   7.399   4.287 -0.2818  0.1682 -0.4835
21569SOL    HW166384   0.560   7.337   4.360 -1.4296  0.5846 -0.1641
21569SOL    HW266385   0.539   7.347   4.210 -0.2672 -0.0033 -0.3719
21570SOL     OW66386   9.198   7.474   8.197  0.2512 -0.3380 -0.2564
21570SOL    HW166387   9.130   7.539   8.177  1.8448  0.5619 -3.0095
21570SOL    HW266388   9.272   7.500   8.143  1.7303 -3.1385  0.3524
21571SOL     OW66389   2.076   2.979   7.026  0.2669 -0.1648  0.7653
21571SOL    HW166390   2.023   2.926   7.086 -1.5411  0.3837 -0.3073
21571SOL    HW266391   2.046   2.954   6.939 -0.4065  2.3761  0.2290
21572SOL     OW66392   5.144   7.656   9.265  0.2788  0.2392  0.7089
21572SOL    HW166393   5.059   7.621   9.290 -0.1528  0.5039 -0.3489
21572SOL    HW266394   5.183   7.685   9.347 -0.5591 -0.0918  1.2303
21573SOL     OW66395   1.702   5.325   7.850 -0.4369 -0.1424  0.0061
21573SOL    HW166396   1.736   5.239   7.874 -0.7734 -0.2985 -0.0683
21573SOL    HW266397   1.769   5.387   7.878 -0.4618 -0.3873  0.6127
21574SOL     OW66398   0.664   8.613   3.784  0.6558 -0.0534 -0.7277
21574SOL    HW166399   0.574   8.624   3.813  0.3281 -1.6369 -1.1204
21574SOL    HW266400   0.685   8.696   3.741 -0.2815  0.6854  0.2218
21575SOL     OW66401   5.849   5.273   8.018 -0.5886  0.0879  0.0505
21575SOL    HW166402   5.800   5.236   7.945  1.0719 -0.3003 -0.8879
21575SOL    HW266403   5.940   5.245   8.003  0.0400  1.3331  1.3901
21576SOL     OW66404   7.827   4.463   5.780 -0.3877  0.1583 -0.0068
21576SOL    HW166405   7.904   4.456   5.724  0.6433 -0.4794  1.4509
21576SOL    HW266406   7.803   4.555   5.777  0.2248  0.2978 -0.7285
21577SOL     OW66407   3.492   2.741   7.147  0.0743 -0.5252  0.7473
21577SOL    HW166408   3.541   2.823   7.143  0.9174 -0.9977  1.1770
21577SOL    HW266409   3.515   2.695   7.066 -0.3563 -0.3592  0.5309
21578SOL     OW66410   2.447   7.608   6.323 -0.3662 -0.0996 -0.2131
21578SOL    HW166411   2.412   7.694   6.303 -1.7574 -1.0863 -2.1262
21578SOL    HW266412   2.443   7.602   6.419 -3.2716  0.7212 -0.2543
21579SOL     OW66413   1.058   8.638   0.084 -0.1278  0.5086 -0.0943
21579SOL    HW166414   1.007   8.608   0.159 -1.8249  0.1436 -1.3529
21579SOL    HW266415   0.993   8.655   0.016  1.4452 -0.1671 -1.8239
21580SOL     OW66416   7.243   7.024   6.373 -0.0987  0.2499 -0.8107
21580SOL    HW166417   7.247   7.057   6.463 -0.6753 -1.5828 -0.0986
21580SOL    HW266418   7.309   6.955   6.370 -1.7995 -1.3754 -1.0828
21581SOL     OW66419   1.005   6.538   0.582 -0.8042 -0.8066  0.2617
21581SOL    HW166420   0.912   6.517   0.568 -1.6414  2.3459  0.6268
21581SOL    HW266421   1.010   6.556   0.676 -0.1531  0.4051  0.0054
21582SOL     OW66422   0.409   2.624   1.046 -0.1391 -0.4417  0.5653
21582SOL    HW166423   0.330   2.604   0.996 -0.7376 -0.1793  1.3959
21582SOL    HW266424   0.379   2.681   1.117  0.9919  0.6494  0.1940
21583SOL     OW66425   7.099   8.527   3.369 -0.2490  0.1095  0.3292
21583SOL    HW166426   7.128   8.611   3.333  0.7822 -1.1899 -1.9422
21583SOL    HW266427   7.007   8.519   3.343 -0.9013  1.3255  2.1195
21584SOL     OW66428   0.483   4.347   4.161  0.0681  0.6599 -0.3688
21584SOL    HW166429   0.414   4.364   4.097  0.7158  0.2394 -1.1976
21584SOL    HW266430   0.460   4.262   4.199  1.3982 -0.6614 -2.3962
21585SOL     OW66431   7.051   8.623   0.112 -0.4122  0.1096 -0.6966
21585SOL    HW166432   6.968   8.606   0.156 -1.2103 -0.7796 -2.4673
21585SOL    HW266433   7.112   8.644   0.182 -1.0874 -3.3728  1.0442
21586SOL     OW66434   7.155   0.553   2.832 -0.5342 -0.3723 -0.0737
21586SOL    HW166435   7.204   0.513   2.760  2.6035  3.1851 -0.0919
21586SOL    HW266436   7.214   0.546   2.908 -2.1539 -0.5547  1.1882
21587SOL     OW66437   4.592   0.317   9.274  0.1025  0.3410  0.3616
21587SOL    HW166438   4.525   0.380   9.247 -0.0370 -0.5481 -1.4107
21587SOL    HW266439   4.654   0.369   9.325  0.2253  2.0208 -1.4647
21588SOL     OW66440   7.962   7.844   5.560 -0.0351 -0.1430  0.4612
21588SOL    HW166441   7.948   7.877   5.471  2.8112 -0.4844 -0.1713
21588SOL    HW266442   7.925   7.756   5.560 -0.0168 -0.1505 -0.3858
21589SOL     OW66443   7.398   0.066   0.964  0.3403  0.4231 -0.5392
21589SOL    HW166444   7.312   0.070   0.921  0.0693  0.0992 -0.0428
21589SOL    HW266445   7.403   0.146   1.015  0.4606  0.5862 -0.8099
21590SOL     OW66446   3.812   8.983   5.132 -0.1178  0.2369  0.7383
21590SOL    HW166447   3.853   9.027   5.057  1.1131  0.3807  1.4716
21590SOL    HW266448   3.870   9.003   5.206 -1.6863  0.6638  1.8698
21591SOL     OW66449   5.717   2.967   1.764  0.5347 -0.5370 -0.2576
21591SOL    HW166450   5.636   2.916   1.768 -0.1112  0.3527 -1.6218
21591SOL    HW266451   5.691   3.055   1.789  1.6968 -0.8807  2.3202
21592SOL     OW66452   3.816   7.482   2.642  0.0698  0.1979  0.3909
21592SOL    HW166453   3.735   7.458   2.687  0.0061  1.3035  0.8868
21592SOL    HW266454   3.800   7.461   2.550 -0.6837  0.1667  0.5257
21593SOL     OW66455   4.877   0.974   1.060 -0.2592 -0.2191  0.2736
21593SOL    HW166456   4.922   0.986   0.976 -0.6269 -0.4904  0.0366
21593SOL    HW266457   4.802   1.034   1.054 -0.1478 -0.0563  0.5100
21594SOL     OW66458   3.303   5.892   0.523 -0.1069  0.1349 -0.1637
21594SOL    HW166459   3.260   5.865   0.442  0.5051 -1.2098 -0.0655
21594SOL    HW266460   3.394   5.906   0.499 -0.7072  3.8656 -0.5558
21595SOL     OW66461   3.835   3.888   8.307  0.2369 -0.2500  0.1985
21595SOL    HW166462   3.773   3.919   8.240  1.3410 -1.4593 -1.4090
21595SOL    HW266463   3.782   3.834   8.366 -0.3895 -0.6469 -0.7202
21596SOL     OW66464   1.916   1.360   6.380  0.0710  0.7940  0.3063
21596SOL    HW166465   1.840   1.355   6.438 -2.0263  0.3612 -2.3712
21596SOL    HW266466   1.901   1.291   6.315  2.3106  1.3066 -0.7827
21597SOL     OW66467   8.329   4.426   6.126 -0.1502  0.3288 -0.0884
21597SOL    HW166468   8.401   4.415   6.064 -0.5065  0.0440 -0.4524
21597SOL    HW266469   8.372   4.432   6.212  0.4443  1.9774 -0.4806
21598SOL     OW66470   6.778   6.190   7.194  0.3008  0.6590  0.3028
21598SOL    HW166471   6.811   6.209   7.106  0.2465  2.4192  0.6380
21598SOL    HW266472   6.851   6.211   7.252  0.1755 -0.0381  0.7208
21599SOL     OW66473   8.394   5.967   6.414 -0.0524  0.6495  0.0847
21599SOL    HW166474   8.457   6.039   6.407  1.3821 -0.5865  0.2825
21599SOL    HW266475   8.394   5.927   6.327  1.3904 -0.9639  0.7948
21600SOL     OW66476   8.922   4.713   7.915 -0.1569 -0.0202 -0.1826
21600SOL    HW166477   8.965   4.786   7.960  1.8719 -1.1145 -0.2715
21600SOL    HW266478   8.994   4.660   7.881 -1.5325 -2.6576  0.8081
21601SOL     OW66479   4.209   1.083   8.750  0.2062 -0.1320  0.3083
21601SOL    HW166480   4.140   1.029   8.711  2.2315 -1.9797 -0.8408
21601SOL    HW266481   4.211   1.055   8.842  0.8756 -1.7263 -0.1554
21602SOL     OW66482   0.253   2.994   0.382  0.1006  0.2786  0.1916
21602SOL    HW166483   0.160   3.015   0.384 -0.2291 -1.0964  0.0005
21602SOL    HW266484   0.290   3.041   0.457 -0.6081  1.4046 -0.1503
21603SOL     OW66485   5.433   6.837   8.776 -0.2166  0.4106 -0.2159
21603SOL    HW166486   5.353   6.788   8.759  0.0348 -0.3882  0.9188
21603SOL    HW266487   5.417   6.882   8.859  0.9461 -0.6715  0.6018
21604SOL     OW66488   0.470   2.179   8.899  0.2168  0.3473  0.6168
21604SOL    HW166489   0.397   2.122   8.922  0.9124  0.0605  2.2054
21604SOL    HW266490   0.505   2.144   8.818 -0.2114 -0.6578  0.8684
21605SOL     OW66491   1.765   9.256   3.892  0.2565  0.6193  0.4526
21605SOL    HW166492   1.779   9.329   3.832 -1.3315 -0.0935 -0.8150
21605SOL    HW266493   1.854   9.230   3.919  1.0885  0.3187 -2.3635
21606SOL     OW66494   7.795   1.833   9.222  0.7555 -0.2477  0.1082
21606SOL    HW166495   7.788   1.776   9.146  0.0905 -0.1268  0.0668
21606SOL    HW266496   7.756   1.782   9.294  0.3872  0.0523  0.1243
21607SOL     OW66497   7.021   7.648   0.669  0.1868 -0.5985  0.3459
21607SOL    HW166498   6.965   7.584   0.626  0.4357  0.4725 -1.5897
21607SOL    HW266499   6.961   7.704   0.718 -0.3940  0.1440 -1.1960
21608SOL     OW66500   4.368   8.652   0.823 -0.0250 -0.0469 -0.1209
21608SOL    HW166501   4.290   8.683   0.776 -0.4507  0.1333  0.6805
21608SOL    HW266502   4.438   8.652   0.758 -0.4997  0.6332 -0.6334
21609SOL     OW66503   6.459   0.036   2.122  0.1213 -0.0771 -0.0580
21609SOL    HW166504   6.458  -0.031   2.054 -1.9203  0.1480 -0.3043
21609SOL    HW266505   6.443   0.118   2.075  0.4457  0.3033  0.4871
21610SOL     OW66506   3.817   1.259   8.012 -0.4398 -0.0281 -0.0830
21610SOL    HW166507   3.729   1.293   8.023 -0.0179  1.1247 -0.1932
21610SOL    HW266508   3.862   1.281   8.093 -1.0202 -3.0835  1.1350
21611SOL     OW66509   4.574   4.076   7.626 -0.0116 -0.0006 -0.1034
21611SOL    HW166510   4.598   4.142   7.561  0.9720 -0.2003  0.0472
21611SOL    HW266511   4.519   4.014   7.579 -1.6484  1.3832 -0.0346
21612SOL     OW66512   0.232   0.207   7.542 -0.0245 -0.0056 -0.4843
21612SOL    HW166513   0.229   0.146   7.469 -0.0517  0.8739 -1.2390
21612SOL    HW266514   0.294   0.169   7.604 -1.3021 -1.6349 -0.1577
21613SOL     OW66515   8.593   9.011   1.027  0.2223  0.0664 -1.0231
21613SOL    HW166516   8.578   8.917   1.020  0.0110  0.1040 -1.0746
21613SOL    HW266517   8.659   9.020   1.096 -1.6954  0.0669  0.8374
21614SOL     OW66518   4.347   2.350   3.949  0.4473 -0.6938 -0.1555
21614SOL    HW166519   4.435   2.380   3.925  0.9725 -2.1929 -0.1574
21614SOL    HW266520   4.304   2.335   3.864  0.6433 -1.2506 -0.1573
21615SOL     OW66521   4.341   3.592   8.739 -0.5440  0.3646 -0.4330
21615SOL    HW166522   4.431   3.615   8.760 -0.0144 -0.2722 -1.9348
21615SOL    HW266523   4.299   3.580   8.824  0.5068  1.6842  0.2869
21616SOL     OW66524   8.577   0.379   9.193 -0.5819 -0.2156  0.0779
21616SOL    HW166525   8.633   0.315   9.148  0.9090  0.5022  0.8834
21616SOL    HW266526   8.541   0.433   9.122 -0.3380 -0.7486 -0.4614
21617SOL     OW66527   8.214   6.404   5.740  0.1880 -0.3035  0.2582
21617SOL    HW166528   8.233   6.407   5.646  1.6642 -0.9569  0.5251
21617SOL    HW266529   8.171   6.488   5.758 -0.5963 -0.3950 -1.0922
21618SOL     OW66530   3.087   7.671   7.813 -0.0430  0.2910 -0.3251
21618SOL    HW166531   3.081   7.712   7.727 -0.5247  0.0310 -0.4165
21618SOL    HW266532   3.072   7.743   7.875 -1.6996  0.1201 -0.5009
21619SOL     OW66533   2.437   3.897   1.208 -0.4141 -0.2053 -0.1078
21619SOL    HW166534   2.409   3.946   1.285  0.1450  1.3425 -0.8739
21619SOL    HW266535   2.410   3.951   1.134 -1.4612 -1.9583 -1.0331
21620SOL     OW66536   5.635   2.810   6.965 -0.1400  0.0178  0.0612
21620SOL    HW166537   5.719   2.841   6.934 -0.5037  0.3054 -0.6477
21620SOL    HW266538   5.571   2.868   6.924 -0.7035 -0.4181  0.3136
21621SOL     OW66539   3.167   8.417   0.798  0.0396  0.5928 -0.6621
21621SOL    HW166540   3.235   8.367   0.753 -0.5622  1.6349 -2.7370
21621SOL    HW266541   3.086   8.396   0.752 -0.7908  0.7775  0.6617
21622SOL     OW66542   2.842   1.075   6.196 -0.0421 -0.5140  0.0965
21622SOL    HW166543   2.812   1.052   6.108 -0.8622  0.8184 -0.0023
21622SOL    HW266544   2.936   1.060   6.195  0.1431  0.6507 -1.4134
21623SOL     OW66545   1.953   5.814   3.126  0.2945  0.2964  0.0764
21623SOL    HW166546   1.910   5.896   3.152 -1.8115 -0.8679  0.4341
21623SOL    HW266547   1.931   5.804   3.034  1.7098  0.8001 -0.3300
21624SOL     OW66548   7.334   7.266   2.280  0.0913  0.3141 -0.2976
21624SOL    HW166549   7.418   7.294   2.244  0.5487 -0.9212 -0.2301
21624SOL    HW266550   7.270   7.293   2.214  0.6956  0.0008 -1.0231
21625SOL     OW66551   5.927   7.614   5.436 -0.8842  0.2496  0.1770
21625SOL    HW166552   5.986   7.627   5.510 -2.1571 -2.7739  1.8021
21625SOL    HW266553   5.850   7.666   5.457 -0.0038  1.8749 -0.5499
21626SOL     OW66554   9.117   8.654   8.524 -0.4121  0.0864  0.2271
21626SOL    HW166555   9.156   8.699   8.599  0.6948  0.1160 -0.3568
21626SOL    HW266556   9.060   8.720   8.484  0.3205  0.6151  0.0419
21627SOL     OW66557   8.839   7.241   5.199 -0.0615 -0.0105  0.1163
21627SOL    HW166558   8.831   7.329   5.162  0.7940 -0.3807 -0.9640
21627SOL    HW266559   8.914   7.247   5.259 -0.2074  0.0761  0.2917
21628SOL     OW66560   0.777   3.676   5.633  0.2498  0.3152 -0.1539
21628SOL    HW166561   0.847   3.664   5.698 -1.5506 -0.5574  1.6697
21628SOL    HW266562   0.765   3.771   5.629  1.5319  0.4707 -0.4810
21629SOL     OW66563   2.375   4.542   4.607  0.4525  0.2531 -0.1544
21629SOL    HW166564   2.397   4.449   4.613  2.2552  0.5996 -1.0356
21629SOL    HW266565   2.447   4.580   4.557 -1.0350  1.8545 -1.1364
21630SOL     OW66566   3.110   7.390   7.802 -0.2947  0.5716 -0.0365
21630SOL    HW166567   3.070   7.476   7.816 -0.5034  0.5219 -0.3220
21630SOL    HW266568   3.078   7.337   7.875 -0.3482  0.6748  0.0158
21631SOL     OW66569   7.107   2.434   7.656 -0.0937  0.0556  0.0858
21631SOL    HW166570   7.087   2.512   7.708  1.5377  0.2539  0.4639
21631SOL    HW266571   7.038   2.430   7.590 -0.6947  1.3122  0.6309
21632SOL     OW66572   9.119   7.862   1.561 -0.2844  0.3959  0.1578
21632SOL    HW166573   9.081   7.774   1.567  0.9470 -0.2473 -1.1810
21632SOL    HW266574   9.106   7.899   1.648 -1.5141 -0.8208  0.5161
21633SOL     OW66575   0.714   6.898   8.221  0.2761  0.0705 -0.1727
21633SOL    HW166576   0.763   6.827   8.180 -0.5309 -0.5707 -0.0368
21633SOL    HW266577   0.674   6.945   8.147 -0.9968 -0.9535 -0.1725
21634SOL     OW66578   1.818   1.103   3.238  0.4212  0.6398 -0.1235
21634SOL    HW166579   1.879   1.112   3.164 -0.8867  0.4624 -1.2481
21634SOL    HW266580   1.749   1.167   3.220 -1.0292 -0.8937 -0.2014
21635SOL     OW66581   4.687   8.149   9.013  0.5663  0.1949 -0.1822
21635SOL    HW166582   4.656   8.140   9.103  1.8909 -0.3004  0.2427
21635SOL    HW266583   4.614   8.118   8.959 -0.4568  1.0503  0.6909
21636SOL     OW66584   2.170   8.696   4.710 -0.1644  0.1915  0.4679
21636SOL    HW166585   2.136   8.705   4.799 -0.7413  0.2168  0.2525
21636SOL    HW266586   2.163   8.784   4.673 -1.7369 -0.2050 -0.2264
21637SOL     OW66587   3.459   8.890   4.504 -0.1683 -0.3431  0.7461
21637SOL    HW166588   3.451   8.954   4.575  0.6370 -0.4956  0.9811
21637SOL    HW266589   3.440   8.939   4.424  1.3729  0.4248  0.8338
21638SOL     OW66590   6.606   1.040   3.702  0.3462  0.0733  0.1926
21638SOL    HW166591   6.523   0.994   3.714  0.0752  0.3957 -0.3961
21638SOL    HW266592   6.611   1.101   3.776  0.4598 -0.5407  0.6889
21639SOL     OW66593   1.875   6.913   2.993  0.6302  0.3545 -0.0363
21639SOL    HW166594   1.962   6.876   3.007 -0.0779 -1.8441 -1.2611
21639SOL    HW266595   1.848   6.882   2.907 -1.7309  0.2266  0.6925
21640SOL     OW66596   4.734   7.759   4.627  0.7160 -0.6120  0.0273
21640SOL    HW166597   4.767   7.826   4.688  0.6365 -0.9306  0.4194
21640SOL    HW266598   4.754   7.676   4.670  0.9254 -0.8436 -0.5213
21641SOL     OW66599   8.132   1.576   7.818 -0.8568 -0.4810 -0.2782
21641SOL    HW166600   8.147   1.495   7.866  1.8966  1.2041  1.8653
21641SOL    HW266601   8.087   1.633   7.881 -0.0376  0.6824 -0.7426
21642SOL     OW66602   5.808   2.597   6.518  0.0955 -0.0152  0.6741
21642SOL    HW166603   5.799   2.685   6.482 -2.2805 -0.1178  0.9004
21642SOL    HW266604   5.755   2.542   6.460 -0.2582 -0.8847  1.8029
21643SOL     OW66605   5.642   4.095   3.399  0.0590 -0.3091 -0.2082
21643SOL    HW166606   5.598   4.078   3.316  0.0391  1.1107 -0.4997
21643SOL    HW266607   5.578   4.068   3.465 -0.2900 -0.5601 -0.6364
21644SOL     OW66608   6.841   1.296   1.086 -0.1457 -0.6636  0.2916
21644SOL    HW166609   6.917   1.245   1.055 -0.5196 -0.5380 -0.8677
21644SOL    HW266610   6.772   1.277   1.022 -0.8481 -0.1486  0.8918
21645SOL     OW66611   2.586   8.260   2.437 -0.1734  0.1016 -0.1970
21645SOL    HW166612   2.587   8.226   2.526  0.2242  2.6093  0.8005
21645SOL    HW266613   2.633   8.195   2.386 -0.4767 -1.4051  1.3966
21646SOL     OW66614   0.971   3.751   6.874 -0.0016  0.3569  0.6373
21646SOL    HW166615   1.034   3.727   6.942 -1.2291  0.8020  1.9713
21646SOL    HW266616   1.011   3.824   6.828  1.2360 -0.5259  0.3010
21647SOL     OW66617   7.228   4.054   1.989 -0.0427 -0.0893 -0.5174
21647SOL    HW166618   7.145   4.089   1.956  0.4862  1.2920 -0.4079
21647SOL    HW266619   7.253   3.987   1.925 -1.0239 -0.2004 -0.7859
21648SOL     OW66620   3.978   1.724   7.229  0.4906 -0.1520  0.2596
21648SOL    HW166621   4.036   1.781   7.279 -0.1124  0.4453  0.2819
21648SOL    HW266622   3.974   1.764   7.142  0.0396 -0.1427  0.2858
21649SOL     OW66623   4.686   7.207   8.866 -0.7415 -0.1910 -0.1197
21649SOL    HW166624   4.593   7.191   8.846 -1.0171  0.4259  0.6512
21649SOL    HW266625   4.701   7.162   8.949 -0.5825  0.4716  0.2112
21650SOL     OW66626   6.439   0.149   2.475 -0.1911 -0.3571  0.2679
21650SOL    HW166627   6.508   0.093   2.439 -0.8385 -0.7406 -0.4036
21650SOL    HW266628   6.484   0.205   2.538  0.6894 -0.7667  0.0174
21651SOL     OW66629   4.296   1.654   1.231  0.2920 -0.6426 -0.2723
21651SOL    HW166630   4.375   1.620   1.189  0.8093 -0.4013  0.5053
21651SOL    HW266631   4.325   1.687   1.316 -0.3482  0.9080 -0.6292
21652SOL     OW66632   5.754   6.346   0.709  0.0790 -0.2101  0.3121
21652SOL    HW166633   5.809   6.307   0.776 -0.4070 -1.1493  0.1728
21652SOL    HW266634   5.666   6.348   0.748 -0.3674 -1.5277 -0.5888
21653SOL     OW66635   9.196   5.412   3.255 -0.2309  0.0502  0.1362
21653SOL    HW166636   9.177   5.477   3.323  0.1350 -0.1410  0.4227
21653SOL    HW266637   9.263   5.454   3.201 -0.8488  0.3829 -0.3752
21654SOL     OW66638   0.587   7.524   0.079  0.2411  0.0511  0.4073
21654SOL    HW166639   0.640   7.585   0.132 -0.4367 -0.7074  2.0004
21654SOL    HW266640   0.570   7.571  -0.002 -0.5437  2.1472  1.7362
21655SOL     OW66641   2.170   8.141   6.418  0.0911  0.0065 -0.0596
21655SOL    HW166642   2.232   8.191   6.365  0.5303  0.5813  0.9787
21655SOL    HW266643   2.089   8.143   6.368  0.5049  0.5234 -0.7234
21656SOL     OW66644   9.237   8.840   5.607  0.6829 -0.2581 -0.7846
21656SOL    HW166645   9.304   8.796   5.659  0.9368 -0.0593 -0.9389
21656SOL    HW266646   9.246   8.933   5.629 -1.1463 -0.4730  1.0037
21657SOL     OW66647   7.744   1.383   7.875 -0.3284  0.4803 -0.2969
21657SOL    HW166648   7.754   1.394   7.780  1.2926 -0.5590 -0.2746
21657SOL    HW266649   7.825   1.418   7.912  0.3800 -1.8369  0.4577
21658SOL     OW66650   7.663   4.412   7.757 -0.3593 -0.3450 -0.4582
21658SOL    HW166651   7.583   4.375   7.717 -1.1602  1.3177 -0.4109
21658SOL    HW266652   7.634   4.447   7.841  0.8425 -1.5379  0.4832
21659SOL     OW66653   3.584   1.810   8.356 -0.0203 -0.0722  0.3224
21659SOL    HW166654   3.575   1.893   8.311 -1.5603  0.1656  1.0507
21659SOL    HW266655   3.520   1.813   8.427  0.7124 -1.3987  1.0824
21660SOL     OW66656   3.182   3.440   6.610 -0.1579 -0.4609 -0.6613
21660SOL    HW166657   3.116   3.453   6.678  0.5472  0.1831 -0.0898
21660SOL    HW266658   3.219   3.354   6.630 -0.5921 -0.6805 -0.7871
21661SOL     OW66659   2.953   5.281   5.737 -0.1895  0.9487  0.0202
21661SOL    HW166660   2.919   5.370   5.727 -2.0395  0.3359  0.5369
21661SOL    HW266661   2.900   5.244   5.808  0.0404 -0.8084 -0.7128
21662SOL     OW66662   3.662   5.988   7.597 -0.0988 -0.4576  0.2821
21662SOL    HW166663   3.588   6.047   7.613  1.3019  1.5753 -0.6211
21662SOL    HW266664   3.739   6.044   7.601  1.1529 -1.9013 -2.1670
21663SOL     OW66665   1.869   6.438   2.104 -0.1980 -0.3568 -0.4091
21663SOL    HW166666   1.951   6.387   2.110 -0.0362  0.0256  0.8795
21663SOL    HW266667   1.800   6.372   2.112  0.0132 -0.3748  1.5210
21664SOL     OW66668   5.860   4.550   2.843  0.2337 -0.4965  0.6276
21664SOL    HW166669   5.837   4.486   2.910 -0.5087 -1.8779 -0.9249
21664SOL    HW266670   5.925   4.505   2.788  0.4290  0.4310  0.0793
21665SOL     OW66671   8.563   8.042   5.220  0.1625 -0.3311 -0.1961
21665SOL    HW166672   8.619   8.120   5.222 -1.0552  0.5370  0.9143
21665SOL    HW266673   8.614   7.976   5.266  0.3237  0.4456  0.7787
21666SOL     OW66674   2.226   4.008   6.638 -0.2298 -0.7246 -0.1728
21666SOL    HW166675   2.164   3.939   6.662 -0.0965 -0.8174 -0.0997
21666SOL    HW266676   2.299   3.962   6.597  1.0459 -0.8558  2.1927
21667SOL     OW66677   4.234   2.424   5.241 -0.2847 -0.6145 -0.4062
21667SOL    HW166678   4.193   2.337   5.244 -0.5851 -0.4563  0.5536
21667SOL    HW266679   4.184   2.472   5.175 -0.5068 -0.9828 -0.5090
21668SOL     OW66680   5.848   5.780   6.656 -0.0771 -0.0341 -0.0669
21668SOL    HW166681   5.871   5.706   6.712  0.3953 -0.2031 -0.4824
21668SOL    HW266682   5.766   5.813   6.693 -0.6501 -1.1772 -0.2755
21669SOL     OW66683   3.501   3.444   1.514  0.0918 -0.4411  0.3486
21669SOL    HW166684   3.461   3.518   1.558 -0.4767 -1.4838  1.5962
21669SOL    HW266685   3.589   3.474   1.491  0.0367  0.4410  1.2885
21670SOL     OW66686   2.028   5.066   5.188  0.1930  0.2102 -0.0442
21670SOL    HW166687   2.080   5.062   5.269 -0.8655  3.2708  0.8676
21670SOL    HW266688   2.092   5.058   5.118  1.4394  0.0485  1.0848
21671SOL     OW66689   0.176   0.288   2.769 -0.6375  0.6543 -0.3925
21671SOL    HW166690   0.158   0.194   2.761 -0.4228  0.6781 -1.2337
21671SOL    HW266691   0.231   0.296   2.847 -3.0172  0.4148  1.3608
21672SOL     OW66692   1.450   5.641   8.105 -0.6736 -0.3811  0.3733
21672SOL    HW166693   1.385   5.631   8.035 -0.3017 -0.3682  0.0209
21672SOL    HW266694   1.487   5.554   8.116  0.3821 -0.0648 -0.5484
21673SOL     OW66695   7.341   5.109   4.347  0.0922 -0.8948  0.3718
21673SOL    HW166696   7.281   5.142   4.413 -0.1753  1.0844 -0.7912
21673SOL    HW266697   7.428   5.125   4.383 -0.0561 -1.7592  1.1264
21674SOL     OW66698   4.263   5.079   1.482 -0.0359  0.6904  0.5376
21674SOL    HW166699   4.265   5.055   1.389 -1.7167  3.7484 -0.3607
21674SOL    HW266700   4.352   5.065   1.512  0.7904  0.6638 -1.8149
21675SOL     OW66701   2.732   4.249   3.981  0.1770 -0.4184  0.0498
21675SOL    HW166702   2.695   4.287   4.061  1.7660 -1.0252  1.0858
21675SOL    HW266703   2.696   4.160   3.978  0.5679 -0.5887  0.3952
21676SOL     OW66704   7.893   6.319   2.465 -0.0874 -0.1750  0.4235
21676SOL    HW166705   7.982   6.295   2.438  0.9886  2.2396  1.5793
21676SOL    HW266706   7.907   6.387   2.531 -2.8505  1.6805 -0.8215
21677SOL     OW66707   4.817   4.377   1.043 -0.8382  0.2472 -0.2180
21677SOL    HW166708   4.766   4.429   0.980 -0.4091  0.8216 -0.0948
21677SOL    HW266709   4.908   4.400   1.025 -0.6937  0.1605  0.3968
21678SOL     OW66710   8.010   5.167   4.630  0.2140  0.5000 -0.4931
21678SOL    HW166711   7.915   5.180   4.641  0.1901  0.4732 -0.6848
21678SOL    HW266712   8.037   5.237   4.571  0.1978  0.1055 -0.9741
21679SOL     OW66713   5.079   7.596   4.058  0.1364 -0.3554 -0.2134
21679SOL    HW166714   5.146   7.530   4.078  0.4576  0.8137  2.8418
21679SOL    HW266715   4.996   7.550   4.069  0.3778 -0.5571  0.8481
21680SOL     OW66716   5.620   7.179   6.117  0.3947  0.2308 -0.2774
21680SOL    HW166717   5.710   7.190   6.148 -0.7183  3.3909  2.1284
21680SOL    HW266718   5.627   7.184   6.022  2.8930 -0.7337 -0.1777
21681SOL     OW66719   7.631   3.612   5.664  0.2175 -0.1106 -0.6765
21681SOL    HW166720   7.585   3.636   5.583  1.1264 -0.3378 -1.2588
21681SOL    HW266721   7.640   3.695   5.711  2.2265  0.5219 -2.1202
21682SOL     OW66722   6.146   5.209   5.697  0.3731  0.1407 -0.2878
21682SOL    HW166723   6.130   5.285   5.753  1.6097 -1.0783  1.7823
21682SOL    HW266724   6.061   5.188   5.660 -0.2485  1.6698  0.2392
21683SOL     OW66725   2.491   4.416   2.489 -0.5280 -0.0837 -0.3198
21683SOL    HW166726   2.577   4.455   2.473 -1.0470  0.1826 -2.4973
21683SOL    HW266727   2.488   4.338   2.433 -2.0085  0.3508 -0.8793
21684SOL     OW66728   9.178   3.588   6.891  0.0468  0.3034  0.3813
21684SOL    HW166729   9.148   3.622   6.806 -2.3197 -1.6976  0.3402
21684SOL    HW266730   9.197   3.495   6.873 -0.6278 -0.1685  2.0630
21685SOL     OW66731   6.965   2.851   8.735 -0.2488 -0.3744 -0.3751
21685SOL    HW166732   7.042   2.820   8.783 -0.7768 -1.2080 -0.0442
21685SOL    HW266733   6.996   2.861   8.645  0.2383 -0.7531 -0.2573
21686SOL     OW66734   6.485   6.489   3.915 -0.1383  0.2463  0.1549
21686SOL    HW166735   6.479   6.425   3.845  1.3470  0.2086  0.0438
21686SOL    HW266736   6.533   6.563   3.877 -0.0307  0.5611  0.8804
21687SOL     OW66737   3.871   7.310   1.455  0.1874 -0.1927 -0.0426
21687SOL    HW166738   3.841   7.305   1.364  1.0483  0.3877 -0.3690
21687SOL    HW266739   3.808   7.259   1.504  0.7371 -2.0646 -1.2204
21688SOL     OW66740   0.993   5.172   2.408  0.2307 -0.0382 -0.0086
21688SOL    HW166741   0.898   5.177   2.406  0.1912  1.3726  2.5005
21688SOL    HW266742   1.022   5.241   2.349 -0.3311  0.5293  0.3666
21689SOL     OW66743   6.927   3.497   9.115 -0.6285 -0.5458  0.3902
21689SOL    HW166744   6.944   3.591   9.126  0.0538 -0.6342  0.1241
21689SOL    HW266745   6.857   3.493   9.050 -0.3124 -0.2360  0.0296
21690SOL     OW66746   0.332   4.607   4.408 -0.0159 -0.3819 -0.5924
21690SOL    HW166747   0.365   4.647   4.328  1.5581 -0.7095 -0.1193
21690SOL    HW266748   0.368   4.518   4.408  1.3379  0.1291  1.2532
21691SOL     OW66749   2.028   8.528   8.627  0.1196  0.3720  0.0900
21691SOL    HW166750   1.974   8.561   8.556  2.4355  1.5706 -1.1809
21691SOL    HW266751   2.103   8.488   8.584  0.6754 -0.5161  1.8295
21692SOL     OW66752   7.096   1.500   5.092  0.0281 -0.3382 -0.4259
21692SOL    HW166753   7.173   1.523   5.144 -0.5057 -0.3954  0.3947
21692SOL    HW266754   7.024   1.497   5.155 -0.6733 -0.1523 -1.2106
21693SOL     OW66755   4.348   7.997   8.069  0.5475  0.1677  0.0434
21693SOL    HW166756   4.337   7.964   7.980 -0.2177  0.0540  0.1729
21693SOL    HW266757   4.278   8.061   8.079  0.4751 -0.0079  0.6531
21694SOL     OW66758   6.460   5.162   8.650 -0.1337  0.0383 -0.0335
21694SOL    HW166759   6.457   5.256   8.629  3.2975  0.3693  0.7008
21694SOL    HW266760   6.422   5.156   8.737  0.0562  0.8216  0.1123
21695SOL     OW66761   4.061   5.226   2.581 -0.5097 -0.2665 -0.5519
21695SOL    HW166762   4.149   5.238   2.615 -1.2875  0.8553  1.1334
21695SOL    HW266763   4.073   5.204   2.488  1.5217 -0.2883 -0.2946
21696SOL     OW66764   5.766   7.288   2.336 -0.5509 -0.5505 -0.3332
21696SOL    HW166765   5.772   7.193   2.326 -1.2353 -0.6694  0.3013
21696SOL    HW266766   5.741   7.300   2.428 -1.5927  0.1923 -0.7074
21697SOL     OW66767   1.460   0.541   6.403  0.4173  0.3750 -0.2758
21697SOL    HW166768   1.453   0.458   6.450 -0.0422 -0.1959 -1.3251
21697SOL    HW266769   1.450   0.609   6.470  0.8983 -0.4153  0.6007
21698SOL     OW66770   9.155   0.834   0.454  0.0193 -0.1260 -0.0165
21698SOL    HW166771   9.120   0.795   0.374  0.8760 -0.1385 -0.3889
21698SOL    HW266772   9.089   0.898   0.481 -0.0911  0.1574 -0.9529
21699SOL     OW66773   4.620   7.737   1.815  0.3862 -0.0191 -0.0894
21699SOL    HW166774   4.644   7.807   1.875 -0.3287 -0.6290  0.9314
21699SOL    HW266775   4.535   7.763   1.780  1.3182  0.8961 -1.7482
21700SOL     OW66776   2.689   6.010   7.497  0.0683 -0.2775  0.4744
21700SOL    HW166777   2.716   6.009   7.405 -0.3388 -2.5967  0.3635
21700SOL    HW266778   2.677   6.103   7.517 -0.2887  0.2364 -1.9561
21701SOL     OW66779   6.160   4.797   4.992  0.1731  0.1609 -0.1482
21701SOL    HW166780   6.170   4.889   4.971  0.6451  0.0732 -0.3011
21701SOL    HW266781   6.078   4.771   4.950  1.5277 -0.2382 -2.6451
21702SOL     OW66782   0.640   0.150   7.882 -0.0461 -0.6142 -0.3115
21702SOL    HW166783   0.712   0.210   7.901  1.1082 -1.8659 -0.6599
21702SOL    HW266784   0.621   0.109   7.967 -0.4710 -0.1681 -0.1856
21703SOL     OW66785   0.948   7.763   4.650 -0.8204 -0.4409  0.0655
21703SOL    HW166786   0.866   7.729   4.687 -0.3864 -1.1489  0.3690
21703SOL    HW266787   1.017   7.713   4.694 -0.1779  0.9031  0.6050
21704SOL     OW66788   0.666   7.646   1.883  0.5154  0.2753  0.8733
21704SOL    HW166789   0.658   7.553   1.861  0.2408  0.0218  2.0565
21704SOL    HW266790   0.645   7.691   1.801 -0.5498 -0.6794  0.6100
21705SOL     OW66791   0.076   2.008   1.965  0.2570  0.2898  0.0846
21705SOL    HW166792   0.003   2.058   2.001 -0.2689  0.3277 -1.0245
21705SOL    HW266793   0.061   1.918   1.996 -0.1692  0.3281 -0.0041
21706SOL     OW66794   7.997   5.703   8.719  0.7631 -0.5778  0.4207
21706SOL    HW166795   8.063   5.772   8.710  2.0792 -1.8777 -0.0632
21706SOL    HW266796   7.920   5.738   8.674  1.2305  0.8011  0.6639
21707SOL     OW66797   1.698   4.635   6.122 -0.2992 -0.5673  0.0262
21707SOL    HW166798   1.692   4.708   6.061 -0.0111 -1.7556 -1.4643
21707SOL    HW266799   1.651   4.664   6.200  0.8052  1.6236 -0.1035
21708SOL     OW66800   7.665   4.707   7.612  0.2982 -0.2421  0.5851
21708SOL    HW166801   7.626   4.795   7.608 -0.1079 -0.4646 -1.1574
21708SOL    HW266802   7.590   4.648   7.617  0.5077 -0.5540  0.1122
21709SOL     OW66803   5.759   1.969   3.041  0.0218 -0.1212  0.1253
21709SOL    HW166804   5.847   2.000   3.020  0.6284 -2.2149 -0.6493
21709SOL    HW266805   5.731   2.023   3.115  0.9245  2.2693 -1.2270
21710SOL     OW66806   3.665   1.563   1.955 -0.4840  0.1263  0.1831
21710SOL    HW166807   3.689   1.558   1.863  0.5153  0.9470  0.3855
21710SOL    HW266808   3.747   1.542   2.002 -1.0522 -0.5709  0.8738
21711SOL     OW66809   5.973   5.916   5.695  0.5124 -0.5652  0.0494
21711SOL    HW166810   5.901   5.923   5.758  1.8278 -3.0391  1.9031
21711SOL    HW266811   6.019   5.836   5.719  2.5389 -0.2676 -2.5516
21712SOL     OW66812   8.777   4.055   6.316  0.8715  0.0856  0.3148
21712SOL    HW166813   8.836   3.984   6.291  0.7873  0.4227 -0.8878
21712SOL    HW266814   8.730   4.077   6.235 -1.6161 -0.8219  1.4495
21713SOL     OW66815   5.555   7.429   6.199  0.2033  0.1268  0.4629
21713SOL    HW166816   5.553   7.472   6.113 -0.9515  1.3130  1.0593
21713SOL    HW266817   5.528   7.339   6.181  1.1339  0.0480 -0.5913
21714SOL     OW66818   4.715   3.475   0.009 -0.1147  0.6585 -0.5271
21714SOL    HW166819   4.783   3.528  -0.035  1.5183  0.8026  2.0703
21714SOL    HW266820   4.747   3.385   0.004 -0.9975  0.3892 -1.5220
21715SOL     OW66821   1.304   7.891   2.307 -0.0479 -0.2492 -0.0726
21715SOL    HW166822   1.227   7.935   2.343 -1.2852 -1.8826 -0.6886
21715SOL    HW266823   1.273   7.849   2.227  1.2362 -1.7890  0.2139
21716SOL     OW66824   1.829   1.379   0.058 -0.0938  0.1435  0.0754
21716SOL    HW166825   1.745   1.367   0.014  1.4058 -2.9310 -2.1423
21716SOL    HW266826   1.866   1.459   0.020 -0.5581 -0.3305 -1.3976
21717SOL     OW66827   6.544   5.109   1.662 -0.2173 -0.0058 -0.0194
21717SOL    HW166828   6.588   5.154   1.733 -1.8029 -0.0153  1.0075
21717SOL    HW266829   6.455   5.093   1.695 -0.5717 -1.2291 -1.4778
21718SOL     OW66830   7.318   3.620   1.046 -0.7090  0.1059 -1.0061
21718SOL    HW166831   7.308   3.713   1.024 -0.0266  0.5600  0.5293
21718SOL    HW266832   7.280   3.612   1.133  0.2207 -0.8460 -0.6851
21719SOL     OW66833   0.420   1.000   0.315 -0.3438  0.1704  0.0086
21719SOL    HW166834   0.330   1.009   0.285 -0.4383  0.1025  0.2641
21719SOL    HW266835   0.468   0.965   0.240 -0.8101 -1.0827  0.2880
21720SOL     OW66836   0.378   5.394   6.049  0.0923 -0.1993  0.7727
21720SOL    HW166837   0.441   5.444   6.101 -0.3309 -0.7698  1.8438
21720SOL    HW266838   0.420   5.384   5.964  0.8674  0.5950  1.0560
21721SOL     OW66839   9.275   7.793   8.565  0.6252  0.5919  0.2313
21721SOL    HW166840   9.370   7.785   8.560  0.4283 -0.6827 -2.5684
21721SOL    HW266841   9.245   7.779   8.475 -2.3609 -1.5378  1.4765
21722SOL     OW66842   3.439   7.932   6.262 -0.5416  0.3577  1.0591
21722SOL    HW166843   3.396   7.884   6.332  0.1273 -1.0820  0.4965
21722SOL    HW266844   3.376   7.931   6.190  0.0084 -0.8780  0.5810
21723SOL     OW66845   2.890   4.768   7.638  0.4039  0.6200  0.9074
21723SOL    HW166846   2.877   4.786   7.731  0.1650  3.3182  0.3847
21723SOL    HW266847   2.805   4.789   7.598  0.4648 -0.6477  0.0818
21724SOL     OW66848   6.040   3.135   1.412 -0.0922  0.0903 -0.4481
21724SOL    HW166849   5.961   3.083   1.421  1.4028 -2.0337  0.8435
21724SOL    HW266850   6.082   3.131   1.498  1.3607  1.2774 -1.0659
21725SOL     OW66851   3.512   1.826   0.369 -0.1907 -0.0312 -0.3671
21725SOL    HW166852   3.445   1.879   0.412 -0.3404  0.1609 -0.8321
21725SOL    HW266853   3.579   1.890   0.342  0.5534 -0.3118  0.7832
21726SOL     OW66854   6.001   0.168   0.582 -0.3496 -0.1558 -0.1269
21726SOL    HW166855   5.972   0.259   0.577 -1.6776 -0.6743 -2.7253
21726SOL    HW266856   6.095   0.172   0.565 -0.7122  0.5734 -2.0728
21727SOL     OW66857   0.957   7.247   4.344 -0.3447 -0.0509 -0.0530
21727SOL    HW166858   0.874   7.290   4.324  0.6773  1.1740 -1.8846
21727SOL    HW266859   1.013   7.317   4.376  1.0895 -0.0962 -2.3153
21728SOL     OW66860   8.643   6.569   6.909 -0.5796 -0.0024  0.0313
21728SOL    HW166861   8.611   6.655   6.883  0.7476  0.0746 -1.4137
21728SOL    HW266862   8.738   6.574   6.898 -0.5641 -1.9233 -0.9102
21729SOL     OW66863   3.710   4.530   2.156  0.6612  0.2889 -0.0746
21729SOL    HW166864   3.667   4.557   2.074  1.7354  1.0985 -0.3873
21729SOL    HW266865   3.694   4.603   2.216  0.4937  0.0156  0.2158
21730SOL     OW66866   0.721   6.271   4.981 -0.0556  0.1444 -0.4777
21730SOL    HW166867   0.686   6.320   5.055  0.6843  1.3064 -0.8871
21730SOL    HW266868   0.812   6.299   4.974  0.5738 -1.7905 -0.3120
21731SOL     OW66869   1.887   8.586   3.214  0.4769 -0.3424 -0.1780
21731SOL    HW166870   1.885   8.676   3.247  0.0472  0.4546 -2.2425
21731SOL    HW266871   1.963   8.585   3.155  2.0963 -2.1164  1.8556
21732SOL     OW66872   0.600   0.979   9.043  0.1851  0.7646 -0.1475
21732SOL    HW166873   0.546   0.965   8.965  1.2229  0.4327 -0.8166
21732SOL    HW266874   0.656   1.054   9.020  1.0730  0.1364 -0.0350
21733SOL     OW66875   3.721   2.037   4.790  0.3180 -0.1047 -0.0716
21733SOL    HW166876   3.811   2.068   4.786 -0.1225  1.4278  1.2122
21733SOL    HW266877   3.668   2.112   4.761 -0.6399 -0.3871  0.8912
21734SOL     OW66878   1.280   3.512   7.220 -0.0819 -0.1221 -0.4011
21734SOL    HW166879   1.362   3.536   7.263  1.3350 -0.9159 -2.6034
21734SOL    HW266880   1.264   3.422   7.249 -0.4438  0.1922  0.3990
21735SOL     OW66881   5.493   4.357   2.996  0.4123 -0.4943 -1.2116
21735SOL    HW166882   5.572   4.401   3.027 -1.0540  1.4530 -0.1090
21735SOL    HW266883   5.470   4.404   2.915 -0.8755  0.4615 -0.3078
21736SOL     OW66884   0.600   1.212   7.250 -0.6488  0.2660  0.5650
21736SOL    HW166885   0.568   1.232   7.162  1.1637 -1.1413 -0.4665
21736SOL    HW266886   0.542   1.142   7.281 -1.6583  1.1697  0.7386
21737SOL     OW66887   3.586   3.235   0.890 -0.0461 -0.2077  0.3032
21737SOL    HW166888   3.589   3.140   0.876  0.3985 -0.4494  1.9483
21737SOL    HW266889   3.493   3.256   0.898 -0.0973 -0.6901  1.0598
21738SOL     OW66890   4.192   1.723   8.296 -0.0995 -0.0198  0.2484
21738SOL    HW166891   4.170   1.678   8.378  0.8582  0.5930  0.8414
21738SOL    HW266892   4.222   1.809   8.323  0.7118  0.0081 -0.7209
21739SOL     OW66893   7.035   3.269   4.814  0.1712  0.9076  0.8229
21739SOL    HW166894   7.090   3.270   4.736 -0.5733 -0.9319  0.2599
21739SOL    HW266895   7.026   3.361   4.838  1.4188  1.4019 -0.5290
21740SOL     OW66896   0.674   7.849   8.142 -0.5785  0.1935 -0.3248
21740SOL    HW166897   0.597   7.906   8.134  0.5161  1.5553 -1.2002
21740SOL    HW266898   0.749   7.908   8.142  0.5618 -1.2216 -0.9421
21741SOL     OW66899   1.422   0.592   7.317 -0.3223  0.7247 -0.8704
21741SOL    HW166900   1.481   0.577   7.243  0.2266 -0.2884 -0.2384
21741SOL    HW266901   1.415   0.688   7.323  1.2791  0.8490 -0.9276
21742SOL     OW66902   2.226   3.629   6.094 -0.6407  0.7295  0.3065
21742SOL    HW166903   2.210   3.567   6.023  0.8959 -1.0541  1.4757
21742SOL    HW266904   2.296   3.685   6.060 -0.5413  0.4571  0.0575
21743SOL     OW66905   4.987   6.906   0.122 -0.1300  0.6683  0.0997
21743SOL    HW166906   5.067   6.950   0.152  0.3296 -0.4286  0.5206
21743SOL    HW266907   4.978   6.831   0.181 -1.5721  0.8787  0.1628
21744SOL     OW66908   5.255   5.753   6.484  0.1647 -0.5686  0.2738
21744SOL    HW166909   5.169   5.796   6.493 -1.1454 -2.5998 -1.8438
21744SOL    HW266910   5.256   5.722   6.393  2.8906 -1.1572  0.4836
21745SOL     OW66911   7.541   2.387   4.807  0.1043  0.0956 -0.5840
21745SOL    HW166912   7.614   2.342   4.849  0.4289  2.1857  1.1461
21745SOL    HW266913   7.578   2.424   4.727  1.1030  1.5553  0.5229
21746SOL     OW66914   1.043   9.287   6.832  0.2790 -0.1885 -0.5715
21746SOL    HW166915   1.118   9.231   6.852  0.8742  0.2820 -1.4490
21746SOL    HW266916   1.052   9.362   6.891 -1.9405 -2.1846  2.4567
21747SOL     OW66917   4.125   7.204   3.136  0.1395  0.4349 -0.1724
21747SOL    HW166918   4.106   7.247   3.219  1.3207 -0.4110  0.5476
21747SOL    HW266919   4.203   7.151   3.153 -0.0053 -0.2818 -1.6314
21748SOL     OW66920   3.428   6.675   7.768  0.0749  0.2557  0.0298
21748SOL    HW166921   3.456   6.761   7.801  0.6917  0.1091 -0.1096
21748SOL    HW266922   3.498   6.648   7.709  0.5365 -0.9516  1.1111
21749SOL     OW66923   5.465   3.325   2.848  0.1286 -0.0436  0.0504
21749SOL    HW166924   5.373   3.309   2.825 -0.0061  0.5218  0.1804
21749SOL    HW266925   5.509   3.334   2.763  0.0198 -0.0962 -0.0123
21750SOL     OW66926   1.218   6.481   7.362 -0.4680 -0.2574 -0.1930
21750SOL    HW166927   1.261   6.471   7.447 -0.4588 -0.4925 -0.2243
21750SOL    HW266928   1.129   6.448   7.377  0.2875 -2.7617 -0.9419
21751SOL     OW66929   2.186   8.822   7.830 -0.1096  0.3610  0.0409
21751SOL    HW166930   2.161   8.892   7.769 -0.1108  0.5906  0.2997
21751SOL    HW266931   2.141   8.744   7.798  0.8197  0.2122 -0.9345
21752SOL     OW66932   2.665   7.220   9.105 -0.8982  0.5528 -0.0170
21752SOL    HW166933   2.591   7.206   9.164 -1.4002  0.6824 -0.6109
21752SOL    HW266934   2.700   7.305   9.130  0.4795 -0.5297  1.7971
21753SOL     OW66935   1.010   1.759   7.181  0.3184  0.0796 -0.6944
21753SOL    HW166936   0.978   1.728   7.265 -0.5078 -1.0876 -1.4224
21753SOL    HW266937   1.102   1.781   7.196  0.2182 -0.2996  0.4552
21754SOL     OW66938   5.809   2.488   2.596 -0.2690  0.0335  0.4740
21754SOL    HW166939   5.859   2.563   2.627  1.6823 -0.7408 -0.7067
21754SOL    HW266940   5.807   2.498   2.500 -2.2123 -0.0718  0.4732
21755SOL     OW66941   2.829   2.339   8.251  0.6009  0.4555 -0.0134
21755SOL    HW166942   2.745   2.312   8.288  2.0980 -1.5466  2.1217
21755SOL    HW266943   2.813   2.425   8.214 -2.4265  0.0297  0.1689
21756SOL     OW66944   0.021   5.896   7.557  0.4747  0.3755 -0.5927
21756SOL    HW166945  -0.050   5.953   7.586  0.8824  1.1998 -1.2087
21756SOL    HW266946  -0.021   5.811   7.544 -0.5022  0.9817 -1.4503
21757SOL     OW66947   4.890   6.646   7.806  0.2377 -0.6758  0.1381
21757SOL    HW166948   4.956   6.624   7.740  0.9947 -1.0129  1.0005
21757SOL    HW266949   4.930   6.622   7.889 -0.1212  1.1270  0.8574
21758SOL     OW66950   3.286   5.112   6.448 -0.1249  0.1285 -0.4239
21758SOL    HW166951   3.223   5.045   6.423  1.0789 -0.9895 -0.4927
21758SOL    HW266952   3.243   5.195   6.425 -0.9233 -0.6778 -1.9162
21759SOL     OW66953   3.787   7.408   8.463 -0.5098 -0.3046 -0.2409
21759SOL    HW166954   3.792   7.324   8.508 -1.9493 -0.8214 -1.0064
21759SOL    HW266955   3.776   7.472   8.534  0.2082 -0.7820  0.3166
21760SOL     OW66956   3.101   0.460   7.075 -0.5142  0.2168 -0.5078
21760SOL    HW166957   3.184   0.420   7.100 -0.6977 -0.7758 -1.4292
21760SOL    HW266958   3.035   0.393   7.093 -1.0044  0.6414 -0.6889
21761SOL     OW66959   3.839   7.606   7.729 -0.0914  0.0156 -0.5124
21761SOL    HW166960   3.885   7.536   7.681  0.1707 -1.4302  1.7653
21761SOL    HW266961   3.875   7.600   7.818 -1.5508  1.7497  0.1989
21762SOL     OW66962   6.379   4.846   8.724  0.1231  0.2963  0.2012
21762SOL    HW166963   6.434   4.779   8.764 -0.6136 -0.6505 -0.3253
21762SOL    HW266964   6.370   4.913   8.791  0.4306 -0.3931  0.9443
21763SOL     OW66965   9.241   2.308   1.229 -0.2614  0.0877 -0.4626
21763SOL    HW166966   9.157   2.322   1.186 -0.1745 -0.1611 -0.7124
21763SOL    HW266967   9.234   2.358   1.311 -1.1665 -1.0288  0.1532
21764SOL     OW66968   6.101   3.916   1.998  0.4042 -0.2708  0.9841
21764SOL    HW166969   6.105   3.825   1.967  1.1372 -0.5596  1.8847
21764SOL    HW266970   6.185   3.930   2.042  0.2736  0.8307  0.8965
21765SOL     OW66971   2.672   5.875   2.750 -0.0542 -0.2048 -0.0904
21765SOL    HW166972   2.737   5.828   2.802  0.5971  1.2252  0.4163
21765SOL    HW266973   2.651   5.952   2.802  0.3211  1.0594 -1.7373
21766SOL     OW66974   3.224   8.228   7.921 -0.3860  0.0572  0.2371
21766SOL    HW166975   3.163   8.207   7.850  0.0558  1.4915 -0.5721
21766SOL    HW266976   3.207   8.320   7.941  1.1118  0.2985  0.4067
21767SOL     OW66977   0.125   3.441   4.484  0.2255  0.5215 -0.3279
21767SOL    HW166978   0.094   3.442   4.394  0.7993  1.4318 -0.5262
21767SOL    HW266979   0.218   3.460   4.478  0.1574  1.1663  0.4901
21768SOL     OW66980   6.031   5.349   9.174  0.6924  0.2634  0.1372
21768SOL    HW166981   6.124   5.326   9.170  0.7493  0.6124 -0.7425
21768SOL    HW266982   5.993   5.285   9.234  1.7474  0.9804  1.5965
21769SOL     OW66983   7.543   1.419   1.521 -0.1023  0.0665 -1.0547
21769SOL    HW166984   7.582   1.489   1.469 -1.1750  0.7464 -0.9775
21769SOL    HW266985   7.617   1.377   1.565  0.6230  0.7037 -1.6582
21770SOL     OW66986   2.377   1.475   8.493 -0.2118 -0.1643  0.3917
21770SOL    HW166987   2.284   1.498   8.488 -0.8076 -2.7178 -1.2613
21770SOL    HW266988   2.423   1.558   8.477 -2.1920  0.9513  0.2892
21771SOL     OW66989   2.130   3.893   3.502 -0.4728 -0.0180 -0.1207
21771SOL    HW166990   2.129   3.798   3.510  0.9559  0.0673  1.4305
21771SOL    HW266991   2.050   3.922   3.545 -1.1790 -0.5429 -1.0737
21772SOL     OW66992   5.289   5.213   8.857 -0.9112  0.6418  0.0634
21772SOL    HW166993   5.259   5.129   8.893  0.6055 -0.9210 -2.1618
21772SOL    HW266994   5.226   5.233   8.787 -0.5652  0.7107 -0.2285
21773SOL     OW66995   3.262   2.032   7.855  0.6245  0.7213  0.2063
21773SOL    HW166996   3.281   1.939   7.866 -0.0385  0.6155  0.4698
21773SOL    HW266997   3.202   2.053   7.926 -1.3331  0.7196 -1.3928
21774SOL     OW66998   5.381   7.021   0.976 -0.3162 -0.3078  0.1905
21774SOL    HW166999   5.354   7.113   0.986 -0.0588 -0.1972 -0.1125
21774SOL    HW267000   5.452   7.011   1.039 -1.9034 -0.9622  1.9463
21775SOL     OW67001   7.425   2.918   3.322 -0.3367  0.1967 -0.7206
21775SOL    HW167002   7.461   2.829   3.325 -3.2156 -0.9866  0.9717
21775SOL    HW267003   7.473   2.965   3.391  0.1126 -0.4597 -0.5785
21776SOL     OW67004   7.242   2.377   6.828 -0.0062 -0.7745 -0.2787
21776SOL    HW167005   7.149   2.401   6.822  0.7788  2.4489 -0.4649
21776SOL    HW267006   7.282   2.418   6.751  1.9785 -0.0690  1.1036
21777SOL     OW67007   2.829   8.044   7.040  0.1549  0.6025  0.2686
21777SOL    HW167008   2.893   8.018   6.974  0.1326 -0.6066  0.7206
21777SOL    HW267009   2.770   8.104   6.994 -1.0800 -1.8259 -1.3666
21778SOL     OW67010   6.821   4.857   0.891  1.0082  0.3904 -0.2542
21778SOL    HW167011   6.730   4.855   0.863  0.7661 -0.9202  0.5640
21778SOL    HW267012   6.866   4.796   0.832  1.0837 -0.0003  0.1968
21779SOL     OW67013   7.159   6.004   7.019  0.2091 -0.1691  0.4541
21779SOL    HW167014   7.201   6.001   7.105 -0.4373  2.5225  0.9009
21779SOL    HW267015   7.229   5.981   6.958  0.7246 -1.9100  1.6514
21780SOL     OW67016   6.119   1.671   7.439  0.0551 -0.2053 -0.0066
21780SOL    HW167017   6.195   1.624   7.404 -0.1171  0.1755 -0.8954
21780SOL    HW267018   6.051   1.604   7.447 -0.3257 -0.0300 -1.6754
21781SOL     OW67019   1.799   5.506   3.117  0.6160 -0.2242 -0.0644
21781SOL    HW167020   1.877   5.451   3.107  2.0773  1.9275 -1.0019
21781SOL    HW267021   1.801   5.564   3.041 -1.5877  0.2811  0.2253
21782SOL     OW67022   6.201   1.378   6.557 -0.4342  0.4903 -0.3217
21782SOL    HW167023   6.156   1.343   6.633 -0.2588  0.5169 -0.2068
21782SOL    HW267024   6.233   1.463   6.584  1.2090 -0.2695  0.1524
21783SOL     OW67025   4.278   4.753   0.627 -0.1721 -0.0341  0.8123
21783SOL    HW167026   4.255   4.824   0.686  2.5985  0.8434  0.9258
21783SOL    HW267027   4.225   4.769   0.548 -1.9660  0.2529  2.0542
21784SOL     OW67028   6.523   6.254   1.711 -0.1394  0.2608 -0.2824
21784SOL    HW167029   6.444   6.219   1.671 -0.0649  0.3411 -0.5026
21784SOL    HW267030   6.558   6.181   1.763  0.6159 -0.3613 -1.6169
21785SOL     OW67031   4.914   2.992   1.710  0.0687 -0.2715 -0.1868
21785SOL    HW167032   4.870   2.964   1.630  1.2858  0.1179 -1.0001
21785SOL    HW267033   4.950   2.911   1.747 -0.2005 -0.4049 -0.2170
21786SOL     OW67034   4.077   4.304   1.243  0.2675 -0.5223 -0.5905
21786SOL    HW167035   4.077   4.220   1.197  0.5294 -0.4852 -0.6596
21786SOL    HW267036   3.989   4.339   1.230  0.8561  0.2667 -2.4802
21787SOL     OW67037   7.968   5.593   4.326 -0.1503  0.0098  0.4150
21787SOL    HW167038   8.050   5.640   4.315 -1.2373  1.5484 -1.4271
21787SOL    HW267039   7.931   5.588   4.238 -1.2544 -2.0974  0.9629
21788SOL     OW67040   4.621   6.948   2.881 -0.2754 -0.1030 -0.5718
21788SOL    HW167041   4.575   6.872   2.845 -1.9051  0.5665  0.0189
21788SOL    HW267042   4.606   6.943   2.975 -1.3536  1.5383 -0.6348
21789SOL     OW67043   4.804   5.981   0.480  0.0406 -0.8158  0.8693
21789SOL    HW167044   4.797   5.972   0.385  1.1776 -0.1841  0.7194
21789SOL    HW267045   4.874   6.045   0.493  0.3510 -1.3948  2.1431
21790SOL     OW67046   0.161   1.696   1.323  0.2070  0.3356  0.2227
21790SOL    HW167047   0.192   1.609   1.296  0.7594  0.3321  0.8730
21790SOL    HW267048   0.139   1.686   1.415  1.0610  1.1025  0.5134
21791SOL     OW67049   5.478   5.952   2.287 -0.6260  0.1129  0.0382
21791SOL    HW167050   5.465   5.912   2.372 -0.2884 -0.9371 -0.4003
21791SOL    HW267051   5.533   6.029   2.305  0.5779 -0.8581  0.5965
21792SOL     OW67052   2.033   1.335   3.264 -0.4924  0.2676  0.3079
21792SOL    HW167053   1.947   1.376   3.260  0.0525  1.3952  0.0169
21792SOL    HW267054   2.095   1.406   3.248  0.5190 -0.4488  0.9421
21793SOL     OW67055   1.280   0.904   7.866  0.5511 -0.2152 -0.5847
21793SOL    HW167056   1.307   0.969   7.931 -0.7103  1.1653 -1.4010
21793SOL    HW267057   1.329   0.825   7.889  0.7526  0.4962  1.5169
21794SOL     OW67058   8.523   8.683   4.611  0.1304  0.0968  0.3443
21794SOL    HW167059   8.606   8.642   4.587 -0.0978 -0.7950  1.0932
21794SOL    HW267060   8.467   8.670   4.534 -0.9770 -3.7771  1.6935
21795SOL     OW67061   8.378   2.813   0.567 -0.8252  0.3236  0.0878
21795SOL    HW167062   8.451   2.873   0.552 -1.9477  1.5362 -0.5990
21795SOL    HW267063   8.300   2.865   0.548 -1.8266 -1.2713 -0.2326
21796SOL     OW67064   6.617   0.048   7.696 -0.3442  0.4117 -0.0452
21796SOL    HW167065   6.587   0.044   7.605  0.7894  1.2216 -0.4781
21796SOL    HW267066   6.539   0.031   7.748 -0.7827 -1.1766 -1.1866
21797SOL     OW67067   1.892   1.094   9.104 -0.1607  0.0880 -0.7421
21797SOL    HW167068   1.857   1.111   9.191 -0.9896  0.6669 -1.1822
21797SOL    HW267069   1.949   1.018   9.115 -2.4515 -1.5746 -0.2291
21798SOL     OW67070   2.327   8.741   8.665  0.0775  0.7832 -0.2906
21798SOL    HW167071   2.332   8.837   8.658  0.8107  0.6903 -1.0820
21798SOL    HW267072   2.296   8.725   8.754  1.3756  1.7133  0.3358
21799SOL     OW67073   6.143   1.519   0.537 -0.3445  0.6133 -0.7967
21799SOL    HW167074   6.047   1.526   0.536 -0.2937  1.4367 -0.1686
21799SOL    HW267075   6.174   1.604   0.507  0.2086  0.9391  0.6432
21800SOL     OW67076   1.814   6.247   8.760 -0.3831 -0.4162 -0.6197
21800SOL    HW167077   1.765   6.240   8.842 -0.0616 -1.4784 -0.5035
21800SOL    HW267078   1.843   6.338   8.757 -1.6531  0.0133 -0.2874
21801SOL     OW67079   7.386   1.947   5.177 -0.0564 -0.2136 -0.0810
21801SOL    HW167080   7.325   1.963   5.106 -0.8653  0.9707  0.8563
21801SOL    HW267081   7.345   1.877   5.229 -0.7399  0.7061  0.6506
21802SOL     OW67082   6.291   1.316   2.420 -0.0306 -0.6554  0.4717
21802SOL    HW167083   6.344   1.324   2.499  0.9090 -2.7952  0.1157
21802SOL    HW267084   6.351   1.280   2.355 -0.8646  0.8200 -1.1580
21803SOL     OW67085   3.168   5.610   3.686 -0.1720  0.5352 -0.0540
21803SOL    HW167086   3.186   5.603   3.592  1.4010 -1.0556  0.3375
21803SOL    HW267087   3.154   5.704   3.700 -0.0351  0.8436 -1.8006
21804SOL     OW67088   2.318   3.987   4.064  0.0592 -0.4773 -0.1358
21804SOL    HW167089   2.308   4.082   4.056 -0.9540 -0.5773 -0.1833
21804SOL    HW267090   2.326   3.971   4.158  0.8173 -0.2955 -0.1666
21805SOL     OW67091   1.748   8.253   4.105 -0.1187 -0.0017 -0.1374
21805SOL    HW167092   1.652   8.251   4.110 -0.1492 -0.9089 -0.9859
21805SOL    HW267093   1.776   8.171   4.147  0.2732  0.1899 -0.0249
21806SOL     OW67094   8.545   7.454   0.820  0.6477  0.1304  0.0673
21806SOL    HW167095   8.598   7.526   0.785 -0.6097  1.7189  1.3627
21806SOL    HW267096   8.552   7.464   0.915 -1.0752 -0.3226  0.2471
21807SOL     OW67097   4.152   5.712   0.055  0.2621 -0.6589 -0.1598
21807SOL    HW167098   4.145   5.732  -0.038 -0.6927 -3.2014 -0.6822
21807SOL    HW267099   4.220   5.644   0.059 -0.1168 -0.9783  0.9319
21808SOL     OW67100   7.582   7.242   3.845 -0.2404 -0.1383 -0.4065
21808SOL    HW167101   7.500   7.276   3.883 -0.1093 -0.1147 -0.1451
21808SOL    HW267102   7.611   7.175   3.906  1.7851  2.2823  1.3540
21809SOL     OW67103   0.697   3.119   7.765 -0.1032 -0.0090  0.0399
21809SOL    HW167104   0.677   3.188   7.828  2.4529  0.6665  0.1640
21809SOL    HW267105   0.751   3.057   7.814 -0.1428 -0.7225 -0.8110
21810SOL     OW67106   4.591   6.481   2.817 -0.0979 -0.0500  0.4587
21810SOL    HW167107   4.578   6.564   2.771 -0.0089  0.4940  1.3882
21810SOL    HW267108   4.624   6.421   2.750 -0.9844  0.4197 -0.4158
21811SOL     OW67109   8.707   4.324   3.828 -0.3574 -0.1530 -0.1432
21811SOL    HW167110   8.775   4.363   3.773  0.4622  0.5046  1.3156
21811SOL    HW267111   8.710   4.230   3.807  1.8368 -0.3094  0.7981
21812SOL     OW67112   5.109   0.485   2.400 -0.2574  0.3997 -0.0703
21812SOL    HW167113   5.014   0.482   2.398 -0.2611  0.4444  0.1065
21812SOL    HW267114   5.135   0.421   2.466 -0.2056  1.2438  0.7295
21813SOL     OW67115   3.429   8.629   4.090 -0.0941  0.3482 -0.2887
21813SOL    HW167116   3.419   8.712   4.044 -0.2316  1.0940  1.0443
21813SOL    HW267117   3.357   8.629   4.153 -0.4087 -1.0315 -0.6514
21814SOL     OW67118   8.456   0.724   8.082 -0.3023 -0.0128 -0.5109
21814SOL    HW167119   8.506   0.770   8.150 -0.7414 -0.7731  0.3311
21814SOL    HW267120   8.507   0.645   8.063  1.8617  2.0339 -3.8686
21815SOL     OW67121   6.190   7.961   9.265 -0.3299  0.0865  0.1153
21815SOL    HW167122   6.130   7.910   9.319  0.9253 -2.2341 -0.5901
21815SOL    HW267123   6.145   7.971   9.182 -0.6463  0.2455  0.3067
21816SOL     OW67124   1.393   3.341   2.865 -0.2130  0.5353 -0.3543
21816SOL    HW167125   1.425   3.318   2.953  1.1251 -0.9097 -1.1819
21816SOL    HW267126   1.392   3.258   2.818 -1.8923  1.1377 -1.4308
21817SOL     OW67127   2.130   5.581   8.110  0.9864  0.1062  0.0463
21817SOL    HW167128   2.069   5.654   8.100  0.2980 -0.4947 -0.1615
21817SOL    HW267129   2.094   5.528   8.180  0.8118 -0.7057 -0.6503
21818SOL     OW67130   7.251   7.404   8.123 -0.1413 -0.2718  0.1096
21818SOL    HW167131   7.284   7.317   8.102 -0.6685 -0.5587  0.4507
21818SOL    HW267132   7.251   7.451   8.040 -0.0276 -0.6603 -0.1099
21819SOL     OW67133   5.535   6.938   6.456 -0.0426  0.2446  0.1093
21819SOL    HW167134   5.448   6.955   6.420  0.4833  0.3890 -1.1377
21819SOL    HW267135   5.582   7.021   6.446  0.3049  0.1033  0.5604
21820SOL     OW67136   2.932   0.107   3.579 -0.0432  0.0305 -0.5597
21820SOL    HW167137   2.905   0.020   3.606 -0.6322  0.0801 -0.9732
21820SOL    HW267138   3.021   0.096   3.546  0.4498 -0.1374  0.8230
21821SOL     OW67139   8.423   3.368   3.692  0.1967 -0.2114 -0.2605
21821SOL    HW167140   8.485   3.419   3.640 -0.7512  0.1087 -1.0931
21821SOL    HW267141   8.476   3.299   3.732  0.9470 -0.4328 -1.6021
21822SOL     OW67142   4.148   5.658   1.404  0.8248 -0.2549  0.4887
21822SOL    HW167143   4.095   5.618   1.334 -0.3878  0.4963  0.9679
21822SOL    HW267144   4.184   5.583   1.452 -1.3678 -0.8042  1.3199
21823SOL     OW67145   5.264   1.512   0.270  0.1955  0.4567 -0.0047
21823SOL    HW167146   5.184   1.473   0.235  0.2189 -0.5899  1.0943
21823SOL    HW267147   5.239   1.602   0.291 -0.6945  0.1348  0.3377
21824SOL     OW67148   6.548   7.197   8.877 -0.1155  0.2539 -0.4643
21824SOL    HW167149   6.559   7.231   8.966  0.7786 -2.2299  0.4276
21824SOL    HW267150   6.481   7.128   8.886  0.3031 -0.3226 -1.6102
21825SOL     OW67151   8.611   6.412   1.246  0.1397 -0.4527  0.3333
21825SOL    HW167152   8.644   6.419   1.156 -2.3792 -0.8037 -0.6658
21825SOL    HW267153   8.611   6.319   1.265 -0.1880 -0.4518  0.3505
21826SOL     OW67154   6.781   7.986   8.509  0.2885 -0.2426 -0.0175
21826SOL    HW167155   6.831   8.022   8.582  2.5227 -2.1357 -0.5561
21826SOL    HW267156   6.764   7.895   8.532 -1.7425 -0.0213 -0.4869
21827SOL     OW67157   0.232   7.754   0.657  0.3759  0.3227  0.6061
21827SOL    HW167158   0.157   7.700   0.635  1.6028 -1.4315  0.5765
21827SOL    HW267159   0.305   7.714   0.609  1.5288  1.2791  1.5369
21828SOL     OW67160   1.691   1.732   8.867 -0.3833 -0.2432  0.0191
21828SOL    HW167161   1.774   1.692   8.841  0.1727  1.1742 -0.4633
21828SOL    HW267162   1.641   1.740   8.786 -0.3185  0.4098  0.0395
21829SOL     OW67163   4.611   7.953   8.361  0.3737 -0.0015  0.1042
21829SOL    HW167164   4.676   7.958   8.290  0.8382  3.1007  0.6691
21829SOL    HW267165   4.543   7.895   8.327  1.9374 -0.8038 -1.7637
21830SOL     OW67166   5.525   7.280   0.161 -0.1695  0.0406 -0.3550
21830SOL    HW167167   5.570   7.292   0.078  0.3252 -0.2829 -0.1311
21830SOL    HW267168   5.551   7.193   0.190 -0.2679  0.1935  0.1879
21831SOL     OW67169   1.252   2.306   1.673 -0.2213  0.6224  1.0520
21831SOL    HW167170   1.300   2.252   1.736  0.2736  1.3939  1.3400
21831SOL    HW267171   1.183   2.348   1.725  1.4790  2.8967  1.5257
21832SOL     OW67172   4.121   6.126   0.525  0.1555  0.5051  0.0455
21832SOL    HW167173   4.177   6.171   0.588 -0.1816  0.7016  0.2042
21832SOL    HW267174   4.173   6.051   0.496  0.9456  1.3040 -0.6401
21833SOL     OW67175   8.865   6.673   0.490 -0.0608  0.3280  0.1555
21833SOL    HW167176   8.865   6.767   0.473 -2.0245  0.0346 -1.5853
21833SOL    HW267177   8.852   6.633   0.404  0.1786 -1.5104  0.9618
21834SOL     OW67178   5.354   6.663   1.021 -0.4674 -0.1913 -0.1453
21834SOL    HW167179   5.441   6.635   1.048  0.0011  2.0911  0.7867
21834SOL    HW267180   5.356   6.659   0.925  2.1515  4.0334 -0.3585
21835SOL     OW67181   4.383   9.121   0.466 -0.1705  0.0943  0.1335
21835SOL    HW167182   4.339   9.154   0.545  0.1606  1.3520 -0.2012
21835SOL    HW267183   4.359   9.028   0.463  0.5801 -0.2195  2.2471
21836SOL     OW67184   3.088   0.298   4.454 -0.3215 -0.0402  1.0520
21836SOL    HW167185   3.079   0.274   4.361 -0.6974  2.1154  0.5103
21836SOL    HW267186   3.181   0.288   4.472 -0.2825 -0.7218  0.5342
21837SOL     OW67187   0.577   3.862   5.143 -0.4020 -0.2071  0.5988
21837SOL    HW167188   0.618   3.819   5.218 -0.7717  0.1434  1.0031
21837SOL    HW267189   0.494   3.816   5.130 -0.3576 -0.2409  0.4311
21838SOL     OW67190   4.062   3.178   4.256  0.4062 -0.4586  0.3834
21838SOL    HW167191   4.065   3.236   4.181  1.6365  0.7359  1.3185
21838SOL    HW267192   3.980   3.199   4.300 -0.0756 -0.8078 -0.3428
21839SOL     OW67193   6.423   0.607   2.249  0.4898 -0.5817  0.1107
21839SOL    HW167194   6.496   0.610   2.188  0.9974  0.4285  0.7513
21839SOL    HW267195   6.448   0.666   2.320 -1.2907  0.4182 -0.0508
21840SOL     OW67196   5.926   0.104   7.819 -0.2224  0.2436 -0.9351
21840SOL    HW167197   5.928   0.161   7.896  0.7899 -0.8530 -0.1207
21840SOL    HW267198   5.880   0.025   7.850 -1.9982  0.7848 -2.1655
21841SOL     OW67199   0.640   6.911   0.866 -0.0696  0.5832  0.0527
21841SOL    HW167200   0.611   6.966   0.793  1.0364  1.1186  0.0103
21841SOL    HW267201   0.669   6.974   0.932 -0.0079  0.0699  0.5151
21842SOL     OW67202   5.989   0.587   8.390 -0.5965 -0.3625  0.5513
21842SOL    HW167203   5.899   0.600   8.360 -0.0302  3.3985  0.2157
21842SOL    HW267204   6.039   0.573   8.310 -0.4397  0.7189  0.4488
21843SOL     OW67205   4.809   3.458   5.553  0.0496  0.4754 -0.1491
21843SOL    HW167206   4.869   3.459   5.627  0.5098 -1.0362 -0.4823
21843SOL    HW267207   4.842   3.388   5.496 -1.4278  0.3006 -0.8196
21844SOL     OW67208   6.396   8.922   0.673 -0.2416  0.2644 -0.1821
21844SOL    HW167209   6.466   8.971   0.716  0.5176 -0.6369 -0.3550
21844SOL    HW267210   6.316   8.951   0.716  0.1570  1.8310 -0.4591
21845SOL     OW67211   0.120   5.481   6.082 -0.3426  0.1217 -0.6976
21845SOL    HW167212   0.139   5.548   6.147 -0.7483 -0.6231  0.2165
21845SOL    HW267213   0.205   5.452   6.051 -0.1306  0.3078 -0.2965
21846SOL     OW67214   4.351   1.851   5.435 -0.7325 -0.1813  0.4758
21846SOL    HW167215   4.352   1.943   5.407  2.0134  0.2839  1.8737
21846SOL    HW267216   4.325   1.802   5.357 -0.7416  1.6808 -0.7144
21847SOL     OW67217   3.366   7.687   2.762  0.2554  0.0040  0.2790
21847SOL    HW167218   3.350   7.778   2.735  0.1659 -0.0699  0.0876
21847SOL    HW267219   3.446   7.662   2.717  1.4759  0.7008  1.9993
21848SOL     OW67220   0.672   4.001   4.642  0.2903 -0.7682  0.3604
21848SOL    HW167221   0.678   3.961   4.728  1.3646 -0.4539  0.4388
21848SOL    HW267222   0.681   3.928   4.581 -2.9463 -1.3448  0.4865
21849SOL     OW67223   1.782   6.036   0.373 -0.4582 -0.1092 -0.0528
21849SOL    HW167224   1.861   5.989   0.346 -0.1971 -0.1846  0.8538
21849SOL    HW267225   1.748   5.986   0.447 -0.6772  0.6238  0.3450
21850SOL     OW67226   6.786   6.738   3.182 -0.1993 -0.1603  0.4779
21850SOL    HW167227   6.868   6.778   3.155  0.6727 -2.7560 -0.8744
21850SOL    HW267228   6.727   6.812   3.197  2.2423  1.7215  1.0875
21851SOL     OW67229   2.337   7.036   2.015 -0.3167  0.3716 -0.0093
21851SOL    HW167230   2.258   6.995   2.050 -1.3178  1.8613 -0.4982
21851SOL    HW267231   2.393   6.962   1.990 -0.7809 -0.7147  1.9972
21852SOL     OW67232   2.620   8.057   5.754 -0.0163 -0.2980  0.0467
21852SOL    HW167233   2.551   8.076   5.690 -0.2241 -1.1107  0.0303
21852SOL    HW267234   2.699   8.047   5.702 -0.2091 -1.0895 -0.0975
21853SOL     OW67235   8.706   7.889   1.675  0.3143  0.0138  0.4100
21853SOL    HW167236   8.752   7.820   1.724 -1.5379 -1.6524 -0.1133
21853SOL    HW267237   8.671   7.947   1.742 -0.8163 -1.3468  1.0229
21854SOL     OW67238   3.326   5.518   2.112 -0.2982 -0.3660 -0.2830
21854SOL    HW167239   3.365   5.507   2.025 -2.3417 -2.3448 -1.0077
21854SOL    HW267240   3.238   5.553   2.093  0.4880  2.5637  1.2127
21855SOL     OW67241   8.564   6.003   4.189  0.4492 -0.1565  0.3421
21855SOL    HW167242   8.590   6.026   4.278 -2.6092  0.8828  1.0589
21855SOL    HW267243   8.556   6.087   4.144  1.2926 -0.6340 -0.6855
21856SOL     OW67244   6.473   4.033   1.116  0.2548 -0.2665  0.4200
21856SOL    HW167245   6.454   4.079   1.198  1.3956  0.6567  0.1787
21856SOL    HW267246   6.387   4.014   1.079 -0.2510  0.5557  1.1528
21857SOL     OW67247   0.741   0.726   5.071 -0.2909 -0.5365  0.7155
21857SOL    HW167248   0.752   0.804   5.016 -1.5397  0.2702  1.5706
21857SOL    HW267249   0.812   0.668   5.045  0.3509  0.6761 -0.3087
21858SOL     OW67250   1.714   3.400   8.905 -0.5343 -0.8185 -0.3928
21858SOL    HW167251   1.799   3.445   8.910 -0.3961 -1.2243  1.8950
21858SOL    HW267252   1.692   3.399   8.812  1.4325  0.3026 -0.9033
21859SOL     OW67253   8.351   7.066   6.247  0.5328 -0.0868 -0.8543
21859SOL    HW167254   8.302   7.145   6.225  2.1211  0.5690 -2.0887
21859SOL    HW267255   8.286   7.007   6.285 -0.6779  1.7979  0.0536
21860SOL     OW67256   2.212   6.970   6.029 -0.2703  0.1612 -0.0697
21860SOL    HW167257   2.159   7.016   5.963 -0.3297 -0.7899 -0.7066
21860SOL    HW267258   2.171   6.991   6.112 -0.8246  0.5453 -0.4360
21861SOL     OW67259   7.462   0.175   0.412 -0.0462  0.5770  0.1489
21861SOL    HW167260   7.405   0.190   0.488 -0.6176  1.0038 -0.3600
21861SOL    HW267261   7.536   0.233   0.426  0.2268  0.0977  0.7617
21862SOL     OW67262   8.483   9.242   1.734 -0.0183 -0.8381 -0.0941
21862SOL    HW167263   8.448   9.162   1.773  1.1957 -2.3653 -2.0787
21862SOL    HW267264   8.449   9.244   1.645  2.9335 -1.1105 -1.2837
21863SOL     OW67265   7.376   8.702   9.008 -0.0409  0.5013  0.6971
21863SOL    HW167266   7.389   8.796   9.017  2.3072  0.5852 -2.5679
21863SOL    HW267267   7.291   8.694   8.965  0.1969  1.1726  0.0921
21864SOL     OW67268   9.011   1.691   5.049  0.0952 -0.2321  0.0136
21864SOL    HW167269   9.092   1.741   5.045 -0.0330  0.1179  1.4016
21864SOL    HW267270   9.032   1.608   5.007  1.0514  0.0299 -0.0416
21865SOL     OW67271   0.341   6.077   7.966  0.3616  0.1034 -0.4912
21865SOL    HW167272   0.274   6.062   8.032  2.7068 -1.7571  1.5578
21865SOL    HW267273   0.345   5.994   7.918  1.1348  0.2351 -0.6553
21866SOL     OW67274   6.847   7.747   2.957 -0.1017 -0.0108  0.1418
21866SOL    HW167275   6.865   7.653   2.959 -2.4062 -0.4776  1.0290
21866SOL    HW267276   6.821   7.765   2.867  1.1143 -0.0607 -0.2228
21867SOL     OW67277   1.096   2.714   4.181  0.2146  0.1906  0.0082
21867SOL    HW167278   1.190   2.725   4.172  0.5198 -0.7079  1.9191
21867SOL    HW267279   1.085   2.630   4.226 -1.3979  1.2791  1.7425
21868SOL     OW67280   3.928   8.877   4.310 -0.3979  0.4875 -0.0547
21868SOL    HW167281   3.934   8.782   4.299 -1.4101  0.3412  0.6064
21868SOL    HW267282   3.926   8.911   4.221  1.3412  0.0020 -0.3126
21869SOL     OW67283   3.863   4.757   2.304 -0.4123  0.4672  0.6782
21869SOL    HW167284   3.921   4.711   2.244 -1.3666 -0.5351  0.5049
21869SOL    HW267285   3.919   4.781   2.378  0.4813  0.5856 -0.0366
21870SOL     OW67286   1.638   8.730   5.034  0.2594 -0.3666  0.3805
21870SOL    HW167287   1.713   8.785   5.013 -0.7936  1.7270  1.8682
21870SOL    HW267288   1.578   8.742   4.960  0.0536  0.4965  0.6759
21871SOL     OW67289   8.777   3.818   1.081 -0.1986  0.3608  0.0907
21871SOL    HW167290   8.849   3.768   1.120 -0.2309  0.7216  0.6173
21871SOL    HW267291   8.713   3.752   1.054 -0.4092  0.1282  1.1274
21872SOL     OW67292   9.028   5.086   9.114 -0.0055 -0.0235 -0.0964
21872SOL    HW167293   8.938   5.059   9.095 -0.6297  0.6398  1.7681
21872SOL    HW267294   9.080   5.006   9.101 -1.1665 -0.9405  0.7839
21873SOL     OW67295   2.372   8.097   2.839 -0.4919  0.4822 -0.2624
21873SOL    HW167296   2.371   8.176   2.784 -0.7151  0.5136 -0.2165
21873SOL    HW267297   2.393   8.026   2.779 -0.1369  0.6008 -0.2750
21874SOL     OW67298   2.043   0.749   1.040 -0.0795  0.3935  0.4966
21874SOL    HW167299   2.062   0.838   1.012 -0.6569 -0.1035 -1.6113
21874SOL    HW267300   1.975   0.757   1.106 -0.3335  1.4847  0.1002
21875SOL     OW67301   5.308   5.972   7.978  0.6764 -0.5082 -0.1857
21875SOL    HW167302   5.337   5.988   7.888 -0.2948 -0.4492 -0.4893
21875SOL    HW267303   5.371   5.907   8.012  1.1967 -0.3429 -0.8173
21876SOL     OW67304   1.991   2.938   3.663 -0.1716 -0.3155 -0.2524
21876SOL    HW167305   2.023   3.021   3.698 -1.6133 -0.3303  1.1709
21876SOL    HW267306   2.068   2.881   3.662  0.4406  0.4785  0.5190
21877SOL     OW67307   1.466   1.134   0.410  0.5357 -0.3734 -0.3123
21877SOL    HW167308   1.429   1.095   0.488  2.8542  2.0414  2.0947
21877SOL    HW267309   1.549   1.087   0.396  1.5573  1.1528  0.4571
21878SOL     OW67310   8.517   6.496   8.256  0.0408  0.3073  0.1250
21878SOL    HW167311   8.570   6.575   8.261  2.2298 -1.1153  0.4544
21878SOL    HW267312   8.581   6.425   8.244 -1.8183 -1.4408  0.2333
21879SOL     OW67313   2.733   6.688   1.983  0.4758 -0.1590  0.2772
21879SOL    HW167314   2.762   6.596   1.982  0.2364 -0.2169 -1.0698
21879SOL    HW267315   2.814   6.738   1.996  0.8662 -0.4578 -0.9970
21880SOL     OW67316   6.423   7.644   5.174  0.1159 -0.0297 -0.0615
21880SOL    HW167317   6.445   7.685   5.257  0.4839 -2.7395  1.2236
21880SOL    HW267318   6.342   7.596   5.192 -0.7088  0.6864 -1.7244
21881SOL     OW67319   5.138   8.804   2.422 -0.0851  0.1212 -0.0470
21881SOL    HW167320   5.048   8.811   2.389 -0.4545 -0.1978  0.8614
21881SOL    HW267321   5.152   8.710   2.431  0.6156  0.1396 -0.9024
21882SOL     OW67322   4.997   9.014   5.245  0.0023  0.3058 -0.0820
21882SOL    HW167323   4.934   9.087   5.250  0.0585  0.4147 -0.9512
21882SOL    HW267324   5.082   9.056   5.246  0.0915  0.1346  1.6204
21883SOL     OW67325   9.118   2.878   7.848  0.1473 -0.0053 -0.1346
21883SOL    HW167326   9.038   2.826   7.841  0.5748 -0.6875 -0.0049
21883SOL    HW267327   9.188   2.817   7.828  0.6069  0.7031 -0.7074
21884SOL     OW67328   7.879   6.863   6.407  0.1684 -0.5177 -0.1683
21884SOL    HW167329   7.837   6.902   6.484  2.1597  0.8838  0.2403
21884SOL    HW267330   7.872   6.769   6.422 -0.2319 -0.2665  1.3074
21885SOL     OW67331   6.973   4.700   4.945  0.7345 -0.8291 -0.0720
21885SOL    HW167332   6.958   4.645   4.868  1.1058 -2.3019  0.9093
21885SOL    HW267333   6.917   4.663   5.013  0.5179  0.3802  0.4205
21886SOL     OW67334   2.966   6.929   6.629 -0.2074 -0.5574  0.3140
21886SOL    HW167335   2.903   6.860   6.649 -0.4252 -0.3531  0.3291
21886SOL    HW267336   2.938   7.003   6.683  0.2603 -0.5837  0.5972
21887SOL     OW67337   6.715   0.087   3.736  0.1210 -0.4794 -0.3644
21887SOL    HW167338   6.766   0.116   3.661 -0.5294  0.3039 -0.5039
21887SOL    HW267339   6.659   0.018   3.701  1.5801 -1.8568 -0.0560
21888SOL     OW67340   3.961   4.765   5.483 -0.0980  0.0476  0.6881
21888SOL    HW167341   3.932   4.750   5.573 -0.8896 -0.6031  0.3268
21888SOL    HW267342   4.028   4.699   5.467  0.3007  0.3916  0.9105
21889SOL     OW67343   7.221   4.954   7.858 -0.0739  0.3835 -0.0729
21889SOL    HW167344   7.250   5.045   7.857  0.3307  0.2552 -0.0886
21889SOL    HW267345   7.206   4.933   7.766 -0.7225  0.6115 -0.0166
21890SOL     OW67346   3.595   6.470   1.005 -0.4878  0.2018 -0.3886
21890SOL    HW167347   3.602   6.479   1.100 -0.5766 -1.9074 -0.1584
21890SOL    HW267348   3.504   6.492   0.986 -0.3001  1.2645 -0.0655
21891SOL     OW67349   7.576   3.052   8.014  0.4972 -0.0808 -0.2449
21891SOL    HW167350   7.643   3.098   7.964  2.6905 -0.1089  2.5475
21891SOL    HW267351   7.505   3.115   8.023  1.9412  1.4876  0.3820
21892SOL     OW67352   4.135   3.345   3.798  0.2399 -0.2335  0.3745
21892SOL    HW167353   4.133   3.283   3.725 -1.2636  1.8927 -1.4661
21892SOL    HW267354   4.076   3.415   3.771  2.0780  2.1151  2.2602
21893SOL     OW67355   0.276   9.209   4.705 -0.2612 -0.0882  0.0319
21893SOL    HW167356   0.358   9.161   4.691 -0.5842 -0.1179 -1.9355
21893SOL    HW267357   0.283   9.244   4.794  2.6267  1.2530 -0.6626
21894SOL     OW67358   0.042   1.329   5.186  0.6811 -0.6707  0.4020
21894SOL    HW167359   0.030   1.423   5.196 -0.7093 -0.4460 -2.7265
21894SOL    HW267360   0.132   1.319   5.155 -0.1157 -0.0926 -2.1731
21895SOL     OW67361   1.277   1.842   0.156  0.1503  0.8132  0.6393
21895SOL    HW167362   1.185   1.848   0.130 -0.4285  0.0931  2.4123
21895SOL    HW267363   1.326   1.863   0.077 -1.5313  0.2858 -0.5739
21896SOL     OW67364   6.931   3.779   6.903  0.3754  0.0665 -0.0874
21896SOL    HW167365   6.878   3.833   6.962  0.8915 -0.7586  1.1565
21896SOL    HW267366   6.867   3.727   6.854  0.0040 -0.7125  1.1957
21897SOL     OW67367   5.608   6.059   9.236  0.1241  0.4299  1.1415
21897SOL    HW167368   5.668   6.039   9.308 -0.2836 -1.1553  1.0436
21897SOL    HW267369   5.663   6.103   9.171  1.1369 -0.8488  1.1272
21898SOL     OW67370   4.676   1.070   0.747 -0.3636  0.0420 -0.3173
21898SOL    HW167371   4.736   1.109   0.684 -0.3946 -0.4573 -0.6575
21898SOL    HW267372   4.598   1.048   0.696 -1.0916  1.2902  0.2558
21899SOL     OW67373   1.503   7.394   2.571  0.0518  0.8262  0.1178
21899SOL    HW167374   1.491   7.429   2.483 -1.0360  0.1779 -0.0004
21899SOL    HW267375   1.505   7.470   2.628 -2.7506  1.0851 -0.0746
21900SOL     OW67376   1.210   8.270   2.401 -0.3402  0.4409  0.1681
21900SOL    HW167377   1.282   8.257   2.462  0.4205  0.6330 -0.6779
21900SOL    HW267378   1.243   8.237   2.317 -1.0657  0.9732 -0.3322
21901SOL     OW67379   0.373   7.524   0.503 -0.7319 -0.3713  0.2383
21901SOL    HW167380   0.405   7.453   0.559  0.4151  0.1091  0.2043
21901SOL    HW267381   0.335   7.479   0.427  0.1970 -0.9524  0.1061
21902SOL     OW67382   6.299   7.289   1.513  0.0517 -0.2385 -0.0897
21902SOL    HW167383   6.350   7.271   1.592  0.5064  1.4860  0.0330
21902SOL    HW267384   6.362   7.320   1.449 -0.5520 -0.0246 -0.5934
21903SOL     OW67385   1.544   5.891   3.239 -0.1844  0.1723 -0.0158
21903SOL    HW167386   1.568   5.881   3.147 -2.7326 -0.8037 -0.6226
21903SOL    HW267387   1.463   5.942   3.237  0.2007  0.9086  1.7552
21904SOL     OW67388   6.587   6.795   1.854  0.1615 -0.7795 -0.1815
21904SOL    HW167389   6.592   6.740   1.932 -1.8461  0.3352  0.7866
21904SOL    HW267390   6.509   6.763   1.808 -0.1137  0.2159 -0.4167
21905SOL     OW67391   6.760   3.202   7.979 -0.5334 -0.5707 -0.0133
21905SOL    HW167392   6.825   3.256   7.935 -1.4208  0.4706 -0.0549
21905SOL    HW267393   6.811   3.146   8.038  0.2365  1.5488  1.3617
21906SOL     OW67394   2.913   5.197   6.615  0.3254 -0.0723  0.0129
21906SOL    HW167395   2.834   5.243   6.643  0.5645  0.6385 -0.4675
21906SOL    HW267396   2.897   5.105   6.639 -0.2541  0.2138  0.7585
21907SOL     OW67397   1.910   9.233   0.198 -0.3357 -0.2877 -0.2549
21907SOL    HW167398   1.982   9.270   0.248 -1.4869 -0.3148  1.4533
21907SOL    HW267399   1.861   9.181   0.261 -0.9459 -1.5620 -1.7594
21908SOL     OW67400   2.670   6.878   6.464 -0.2248  0.2427 -0.3221
21908SOL    HW167401   2.734   6.945   6.440  1.5855 -1.4310 -0.2773
21908SOL    HW267402   2.681   6.809   6.398  2.2211 -2.7354  2.9857
21909SOL     OW67403   0.490   3.368   2.472 -0.0766 -0.6403 -0.4601
21909SOL    HW167404   0.418   3.336   2.418 -0.6163 -0.1600 -0.0344
21909SOL    HW267405   0.470   3.460   2.487  0.1709 -0.7115  0.3713
21910SOL     OW67406   7.766   0.103   9.031 -0.5361  0.1964 -0.3343
21910SOL    HW167407   7.845   0.113   8.978 -0.2031 -0.2895  0.0716
21910SOL    HW267408   7.798   0.094   9.120 -0.8952 -2.5993 -0.4369
21911SOL     OW67409   7.445   9.252   3.630 -0.1900  0.1805  0.2147
21911SOL    HW167410   7.377   9.193   3.665 -1.5966  1.9332  0.4998
21911SOL    HW267411   7.480   9.205   3.555 -0.4760 -1.5430  1.1266
21912SOL     OW67412   8.564   3.049   1.300  0.9677 -0.6630  0.0467
21912SOL    HW167413   8.527   3.137   1.293  2.9682  0.1769 -0.3959
21912SOL    HW267414   8.552   3.025   1.392  1.1536  0.4264  0.3665
21913SOL     OW67415   1.686   3.653   3.081  0.9339  0.4303 -0.1230
21913SOL    HW167416   1.614   3.635   3.021 -0.4642 -0.1537  1.6781
21913SOL    HW267417   1.765   3.641   3.028 -0.2220 -1.6613 -1.4420
21914SOL     OW67418   4.331   8.941   2.819  0.0775  0.0303  0.2613
21914SOL    HW167419   4.339   9.029   2.855  0.3435 -0.3099  1.0471
21914SOL    HW267420   4.414   8.898   2.842 -0.0355 -0.4129 -0.1462
21915SOL     OW67421   1.179   5.752   7.284  0.3554  0.1988 -0.2420
21915SOL    HW167422   1.129   5.829   7.257 -0.0389 -0.4235 -1.3134
21915SOL    HW267423   1.259   5.788   7.323  0.8758  1.1381 -2.1092
21916SOL     OW67424   0.046   7.877   9.229  0.1995  0.0736  0.2123
21916SOL    HW167425   0.022   7.963   9.264 -1.0501  0.5441 -1.6970
21916SOL    HW267426  -0.036   7.842   9.195  0.7325 -1.8251  0.8406
21917SOL     OW67427   4.848   3.644   6.905 -0.5766  0.3763 -0.3995
21917SOL    HW167428   4.799   3.571   6.943 -0.0755 -1.5137 -3.2468
21917SOL    HW267429   4.833   3.717   6.966 -0.6443 -2.1922  2.7925
21918SOL     OW67430   3.567   6.186   0.260 -0.8084 -0.0335  0.6211
21918SOL    HW167431   3.631   6.139   0.315 -0.9048 -0.6198  0.2289
21918SOL    HW267432   3.580   6.278   0.283  0.7638 -0.0624 -0.0505
21919SOL     OW67433   4.852   5.249   1.966 -0.8974  0.2123 -0.4799
21919SOL    HW167434   4.943   5.258   1.936 -1.0980 -1.1376 -1.5072
21919SOL    HW267435   4.838   5.326   2.021  0.6217  0.8477 -0.9507
21920SOL     OW67436   5.960   4.488   3.995 -0.5184  0.0250 -0.3065
21920SOL    HW167437   6.004   4.496   3.910 -0.1983 -0.6739 -0.2162
21920SOL    HW267438   5.874   4.450   3.974 -0.2516 -0.6094 -0.2778
21921SOL     OW67439   5.496   1.372   4.533 -0.0250  0.2642  0.2102
21921SOL    HW167440   5.499   1.376   4.629 -2.4982  2.3507  0.2578
21921SOL    HW267441   5.422   1.314   4.514 -1.9130  2.7875 -0.3759
21922SOL     OW67442   4.105   1.257   4.974  0.0219  0.1840  0.3116
21922SOL    HW167443   4.106   1.329   4.911 -0.2115  0.4343  0.5942
21922SOL    HW267444   4.169   1.194   4.940  0.4210  0.6456  0.2161
21923SOL     OW67445   8.444   2.485   4.567 -0.3252 -0.3496  0.0835
21923SOL    HW167446   8.492   2.411   4.604  0.9980  0.0577 -0.7694
21923SOL    HW267447   8.386   2.445   4.502  1.0013 -0.5931 -0.9927
21924SOL     OW67448   4.034   4.422   0.674  0.1939 -0.0232  0.0929
21924SOL    HW167449   4.127   4.403   0.685  0.2492 -1.3980 -2.2735
21924SOL    HW267450   4.031   4.498   0.615 -0.1764 -0.3349 -0.2976
21925SOL     OW67451   2.130   7.259   6.731  0.4841  0.0194  0.5589
21925SOL    HW167452   2.065   7.215   6.677  1.0330 -0.7002  0.4687
21925SOL    HW267453   2.195   7.191   6.750  0.1579  0.1896  2.3377
21926SOL     OW67454   3.269   6.309   4.014 -0.0870 -0.2917 -0.5900
21926SOL    HW167455   3.248   6.229   3.964 -0.6707 -1.6859  1.8342
21926SOL    HW267456   3.365   6.308   4.020 -0.1181 -1.0376 -0.1896
21927SOL     OW67457   9.164   7.722   5.822  0.3701  0.2767 -0.4231
21927SOL    HW167458   9.212   7.799   5.852  1.9374 -0.2364 -1.5528
21927SOL    HW267459   9.210   7.647   5.861  1.0978 -0.2710 -2.2745
21928SOL     OW67460   4.089   5.067   8.739  0.2173 -0.2281  0.5394
21928SOL    HW167461   4.152   5.081   8.811  0.5995 -0.9217  0.3490
21928SOL    HW267462   4.005   5.054   8.783  0.4775 -0.8027  0.8746
21929SOL     OW67463   0.119   6.708   4.729 -0.1885 -0.0162 -0.6924
21929SOL    HW167464   0.184   6.657   4.777  0.5325  0.2297 -1.4135
21929SOL    HW267465   0.122   6.795   4.769  0.8440  0.3621 -1.5798
21930SOL     OW67466   0.886   8.838   1.817  0.1510  0.4102  0.6891
21930SOL    HW167467   0.823   8.909   1.827 -0.3576  0.1976 -0.7960
21930SOL    HW267468   0.965   8.869   1.860 -0.8564  0.8282  2.2728
21931SOL     OW67469   4.915   8.288   7.720  0.2855  0.0763  0.4645
21931SOL    HW167470   4.828   8.274   7.683  0.2115  0.6480  0.4184
21931SOL    HW267471   4.967   8.215   7.688  0.1000  0.3151 -0.3873
21932SOL     OW67472   6.063   1.973   1.095  0.2801 -0.3025 -0.3258
21932SOL    HW167473   6.157   1.958   1.090  0.3508  0.0844 -0.1472
21932SOL    HW267474   6.024   1.891   1.063  0.6880 -0.1190 -1.3322
21933SOL     OW67475   0.776   7.317   3.422  0.1409  0.3589  0.1193
21933SOL    HW167476   0.838   7.263   3.470 -1.9537 -0.9504  1.4498
21933SOL    HW267477   0.753   7.387   3.483 -1.3740 -0.4572  0.5328
21934SOL     OW67478   6.012   5.252   0.126 -0.1966  0.1404  0.9103
21934SOL    HW167479   6.075   5.286   0.189  0.0679 -0.8946  1.2160
21934SOL    HW267480   5.927   5.267   0.166  0.0033 -1.1820  1.8614
21935SOL     OW67481   0.798   4.336   0.296 -0.3651  0.1981 -0.4024
21935SOL    HW167482   0.727   4.383   0.254  0.4162 -0.7996 -2.9022
21935SOL    HW267483   0.878   4.378   0.264  0.2474 -0.4624  0.2220
21936SOL     OW67484   6.206   5.305   4.766  0.2175 -0.0697  0.1895
21936SOL    HW167485   6.139   5.312   4.698  0.2407  1.7779  0.3311
21936SOL    HW267486   6.170   5.352   4.841 -0.4505 -3.3412  2.0287
21937SOL     OW67487   6.016   3.048   9.124 -0.0057  0.2764  0.1147
21937SOL    HW167488   6.033   3.008   9.039 -3.3737 -1.4098  0.1399
21937SOL    HW267489   6.014   3.142   9.107  2.2446  0.1378 -1.0719
21938SOL     OW67490   1.097   2.510   2.989 -0.2431  0.0034  0.8238
21938SOL    HW167491   1.150   2.585   3.017 -0.3568  0.9671 -1.4124
21938SOL    HW267492   1.148   2.433   3.016  0.8530  0.9082  1.3660
21939SOL     OW67493   6.692   3.885   8.622 -0.1479 -0.0542 -0.1405
21939SOL    HW167494   6.767   3.929   8.663  0.2066 -1.4068  0.7241
21939SOL    HW267495   6.674   3.936   8.543  1.1689  0.7683  0.0722
21940SOL     OW67496   1.979   4.158   9.186 -0.8190 -0.0900  0.0995
21940SOL    HW167497   2.072   4.179   9.177 -0.3321 -2.5306 -1.0140
21940SOL    HW267498   1.954   4.199   9.269  0.4413  3.1737 -1.0425
21941SOL     OW67499   4.372   6.309   2.867 -0.2063 -0.1319 -0.2652
21941SOL    HW167500   4.448   6.361   2.840  0.2901  0.5690  2.3946
21941SOL    HW267501   4.410   6.229   2.905 -0.8817 -0.9064 -1.1989
21942SOL     OW67502   0.999   1.207   2.584  0.1308  0.1515 -0.0057
21942SOL    HW167503   0.996   1.171   2.672  0.5781  0.4236  0.1243
21942SOL    HW267504   1.073   1.162   2.542 -0.5724 -0.5568 -0.5017
21943SOL     OW67505   5.411   5.087   3.384  0.3068  0.2374 -0.1766
21943SOL    HW167506   5.407   5.068   3.478 -0.6976 -0.0261 -0.2633
21943SOL    HW267507   5.334   5.043   3.347  0.5011  0.6257 -1.0695
21944SOL     OW67508   8.585   1.379   1.378 -0.8415  0.0549 -0.0904
21944SOL    HW167509   8.500   1.360   1.417 -0.6599  0.3390  0.4610
21944SOL    HW267510   8.590   1.324   1.300 -1.1211 -0.6833  0.4122
21945SOL     OW67511   1.970   5.652   7.526  0.2282  0.2898 -0.2546
21945SOL    HW167512   2.024   5.704   7.466  1.5808 -2.5036 -1.5430
21945SOL    HW267513   2.017   5.569   7.536 -2.5747 -1.2744  0.6190
21946SOL     OW67514   4.137   9.143   3.125 -0.1315 -0.1634  0.0344
21946SOL    HW167515   4.075   9.204   3.166 -0.4145  0.0313 -0.6772
21946SOL    HW267516   4.223   9.181   3.142 -0.2261 -0.2722  0.7634
21947SOL     OW67517   4.932   7.575   2.985 -0.5660  0.2232  0.4006
21947SOL    HW167518   4.961   7.655   2.941 -1.2362 -0.1751 -0.7697
21947SOL    HW267519   4.978   7.504   2.939  0.2834 -0.0450  1.6446
21948SOL     OW67520   8.358   6.359   1.670  0.1883  0.1214 -0.9708
21948SOL    HW167521   8.270   6.392   1.689 -0.0245  0.5969 -2.6579
21948SOL    HW267522   8.350   6.321   1.582  1.5196 -0.4054 -0.8667
21949SOL     OW67523   5.761   3.400   3.081 -0.4277  0.2288 -0.0656
21949SOL    HW167524   5.848   3.426   3.109 -1.3650  1.0549  2.1672
21949SOL    HW267525   5.744   3.318   3.126 -1.2385  0.6484  0.4086
21950SOL     OW67526   9.087   2.305   7.170 -0.7059 -0.0692  0.0290
21950SOL    HW167527   9.160   2.243   7.166 -0.1129  0.4535  2.0687
21950SOL    HW267528   9.013   2.253   7.203 -0.4605  0.0569  0.8030
21951SOL     OW67529   8.919   6.052   4.921 -0.0946 -0.2971 -0.2623
21951SOL    HW167530   8.982   5.981   4.930  0.6833  0.3850 -0.2194
21951SOL    HW267531   8.965   6.129   4.952 -1.1244  0.1316  0.2416
21952SOL     OW67532   0.004   4.526   9.078  0.2375  0.2532  0.6951
21952SOL    HW167533   0.048   4.471   9.013 -1.0174  1.4317 -1.2174
21952SOL    HW267534  -0.056   4.467   9.123 -0.3209 -0.1881 -0.5985
21953SOL     OW67535   5.020   6.553   6.362 -0.6198 -0.3554 -0.6712
21953SOL    HW167536   5.068   6.629   6.395 -2.4521 -0.0238  1.3350
21953SOL    HW267537   5.086   6.484   6.353  0.7223  0.9363 -0.7721
21954SOL     OW67538   5.775   0.822   8.622  0.2711 -0.5302  0.0832
21954SOL    HW167539   5.753   0.885   8.553 -0.0206 -1.5938 -0.8210
21954SOL    HW267540   5.853   0.857   8.664 -0.1230  0.6308 -0.1469
21955SOL     OW67541   1.122   1.573   2.914  0.1527  0.3648  0.5346
21955SOL    HW167542   1.199   1.629   2.918  1.5279 -1.4370  0.2264
21955SOL    HW267543   1.065   1.614   2.849  1.0146  1.5114  0.4964
21956SOL     OW67544   8.552   0.781   2.377  0.5289 -0.7136 -0.0707
21956SOL    HW167545   8.537   0.812   2.288 -0.3918  1.5518  0.8338
21956SOL    HW267546   8.645   0.796   2.392  0.9342 -2.1591 -1.0168
21957SOL     OW67547   9.156   4.951   0.528  0.1836  0.2325 -0.0555
21957SOL    HW167548   9.096   4.992   0.590 -1.2442  0.4188 -1.5671
21957SOL    HW267549   9.170   4.863   0.564 -1.7844 -0.1637 -0.2518
21958SOL     OW67550   5.243   3.567   2.106 -0.1219 -0.0892  0.6977
21958SOL    HW167551   5.161   3.529   2.074 -0.0789  1.1439 -0.9553
21958SOL    HW267552   5.250   3.538   2.197 -2.1830 -0.5478  0.7214
21959SOL     OW67553   5.492   6.665   3.824  0.2304 -0.6818 -0.1009
21959SOL    HW167554   5.523   6.733   3.763 -0.5038 -0.5692 -0.3450
21959SOL    HW267555   5.401   6.650   3.800  0.7264 -2.6438 -0.8531
21960SOL     OW67556   1.083   7.552   4.766 -0.1798 -0.3222 -0.5073
21960SOL    HW167557   0.994   7.517   4.754  0.8424 -3.6354  1.0580
21960SOL    HW267558   1.132   7.520   4.691  0.1446  0.0378 -0.4499
21961SOL     OW67559   8.418   8.620   6.423 -0.0426  0.8650  0.5416
21961SOL    HW167560   8.407   8.602   6.516 -0.8888  1.0848  0.4917
21961SOL    HW267561   8.432   8.715   6.418 -0.0518  0.8623  0.4436
21962SOL     OW67562   6.955   4.655   1.148  0.9660 -0.2746 -0.1235
21962SOL    HW167563   7.011   4.665   1.071  0.7208  1.1005 -0.1460
21962SOL    HW267564   6.905   4.737   1.151  0.8339 -0.4001  1.3812
21963SOL     OW67565   0.860   8.116   1.626 -0.0855 -0.0481 -0.2967
21963SOL    HW167566   0.784   8.167   1.650 -0.0769  0.2656 -0.9177
21963SOL    HW267567   0.825   8.031   1.600 -0.0436 -0.5916  1.3638
21964SOL     OW67568   5.738   0.216   8.500 -0.1352 -0.7395 -0.1348
21964SOL    HW167569   5.804   0.156   8.465  0.0035 -0.8644  0.3366
21964SOL    HW267570   5.682   0.160   8.554  0.3111 -0.3594  0.7383
21965SOL     OW67571   5.117   9.138   0.273  0.0731  0.0369 -0.0743
21965SOL    HW167572   5.181   9.196   0.315 -0.0066  0.4111 -0.4610
21965SOL    HW267573   5.135   9.148   0.179 -2.1835  2.0888 -0.3453
21966SOL     OW67574   0.776   7.955   6.560  0.6005  0.5708  0.2488
21966SOL    HW167575   0.857   7.904   6.565  0.5068  0.0886 -2.3366
21966SOL    HW267576   0.715   7.907   6.616  1.4956 -0.2715  0.5248
21967SOL     OW67577   2.841   7.024   3.750 -0.2549  0.2138  0.0296
21967SOL    HW167578   2.876   6.940   3.721 -0.0105  0.9290 -1.7870
21967SOL    HW267579   2.881   7.089   3.692 -1.1074  1.4982  0.8480
21968SOL     OW67580   9.123   3.015   5.730  0.0504  0.5469  0.1490
21968SOL    HW167581   9.091   2.969   5.653  0.1361  1.0898 -0.2124
21968SOL    HW267582   9.163   3.095   5.696  1.3213  0.1286  0.6463
21969SOL     OW67583   8.135   4.802   4.486 -0.2516 -0.1123 -0.5622
21969SOL    HW167584   8.120   4.855   4.408 -1.5995 -1.6940 -1.4027
21969SOL    HW267585   8.061   4.741   4.489  1.7737 -2.6557 -0.2111
21970SOL     OW67586   8.595   3.785   8.919 -0.1840 -0.3388  0.2583
21970SOL    HW167587   8.512   3.762   8.877 -0.6190 -0.7935  1.3478
21970SOL    HW267588   8.613   3.874   8.890 -1.6976  0.2304  1.0196
21971SOL     OW67589   2.952   5.807   2.874 -0.0564  0.3484  0.1168
21971SOL    HW167590   2.999   5.734   2.834 -1.4848 -0.2083 -0.5841
21971SOL    HW267591   2.973   5.883   2.819  0.2000  0.1466 -0.0615
21972SOL     OW67592   0.908   2.550   6.337 -0.2790  0.2690  0.0824
21972SOL    HW167593   0.974   2.522   6.401 -0.6146  1.5373  1.0083
21972SOL    HW267594   0.828   2.504   6.363 -0.3206  0.4936  0.3659
21973SOL     OW67595   2.810   3.469   2.347 -0.1491 -0.0461 -0.4718
21973SOL    HW167596   2.858   3.498   2.270 -0.8045  0.8549 -0.5535
21973SOL    HW267597   2.730   3.521   2.346 -0.3680 -0.3486  0.5740
21974SOL     OW67598   1.389   8.178   2.594  0.1727  0.7751  0.2782
21974SOL    HW167599   1.313   8.182   2.652 -0.3757  0.5063 -0.4103
21974SOL    HW267600   1.458   8.139   2.647 -0.4027  0.2733  0.6621
21975SOL     OW67601   4.029   6.797   6.005  0.6433  0.8319  0.9813
21975SOL    HW167602   4.018   6.839   5.919 -1.4020  0.7136  1.1790
21975SOL    HW267603   3.958   6.831   6.058  0.0641 -1.4633  1.7048
21976SOL     OW67604   2.146   8.417   4.165 -0.7189 -0.2567 -0.1085
21976SOL    HW167605   2.098   8.477   4.222  0.9978  0.3272  0.7633
21976SOL    HW267606   2.164   8.469   4.086  0.0575  0.1276  0.3142
21977SOL     OW67607   1.734   1.753   0.697  0.5961 -0.5715  0.1768
21977SOL    HW167608   1.798   1.703   0.749  0.6493 -1.3052 -0.5682
21977SOL    HW267609   1.655   1.699   0.699  0.0326  0.2846  1.0024
21978SOL     OW67610   4.071   6.328   0.875 -0.0184  0.4405  0.1918
21978SOL    HW167611   4.030   6.296   0.955 -0.3091  0.4279  0.0381
21978SOL    HW267612   4.133   6.259   0.851 -0.5981  0.0188 -0.1036
21979SOL     OW67613   4.133   6.775   0.625  0.2990  0.0010  0.0344
21979SOL    HW167614   4.206   6.748   0.570 -0.5995  1.1229 -1.7825
21979SOL    HW267615   4.080   6.696   0.636  1.2238 -0.5625  0.4720
21980SOL     OW67616   6.765   6.847   0.517  0.2907 -0.7179  0.7305
21980SOL    HW167617   6.794   6.779   0.578 -0.1066 -0.7026  0.9438
21980SOL    HW267618   6.809   6.827   0.435  3.5776  1.2772  1.9153
21981SOL     OW67619   1.775   1.589   5.183  1.1131 -0.1146  0.0022
21981SOL    HW167620   1.738   1.502   5.192  1.2078 -0.1659 -0.1030
21981SOL    HW267621   1.700   1.648   5.187  0.9381 -0.2562 -0.9033
21982SOL     OW67622   2.305   1.472   0.968 -0.4695  0.6317 -0.1390
21982SOL    HW167623   2.400   1.481   0.958 -0.4133  1.8776  1.2231
21982SOL    HW267624   2.277   1.559   0.997 -1.8272 -0.1326  0.8483
21983SOL     OW67625   5.884   2.925   8.788  0.2073  0.2001  0.1012
21983SOL    HW167626   5.938   2.999   8.814  0.2603 -0.1224  0.9090
21983SOL    HW267627   5.939   2.875   8.727 -0.3786  1.6288 -1.6466
21984SOL     OW67628   1.338   5.479   4.624 -0.0076 -0.2063 -0.1223
21984SOL    HW167629   1.267   5.528   4.665  0.6774  0.5292  0.2100
21984SOL    HW267630   1.298   5.396   4.597 -0.4444 -0.7847  2.1910
21985SOL     OW67631   8.084   1.850   6.830  0.0594  0.1268 -0.3815
21985SOL    HW167632   8.089   1.768   6.781 -0.9564 -0.6194  0.7263
21985SOL    HW267633   8.077   1.823   6.921  0.6657  1.4732  0.0836
21986SOL     OW67634   8.710   0.246   1.206  0.5530 -0.2199  0.4831
21986SOL    HW167635   8.742   0.164   1.168  2.4228  0.8561 -0.3260
21986SOL    HW267636   8.780   0.274   1.266 -0.1015  0.7455  0.8079
21987SOL     OW67637   2.757   8.446   0.428 -0.0079 -0.0984 -0.0590
21987SOL    HW167638   2.718   8.398   0.355 -0.1420 -1.9723  1.2113
21987SOL    HW267639   2.838   8.399   0.448  0.3112  0.7297  0.6329
21988SOL     OW67640   1.525   8.305   1.981 -0.4539 -0.4471 -0.1270
21988SOL    HW167641   1.563   8.393   1.992 -0.1874 -0.5644 -0.0882
21988SOL    HW267642   1.484   8.307   1.895 -2.4116  0.4335  0.7981
21989SOL     OW67643   3.197   0.478   2.332  0.4107  0.1348  0.0001
21989SOL    HW167644   3.139   0.405   2.354 -0.4462  0.5599 -0.7914
21989SOL    HW267645   3.203   0.475   2.236  0.2162  1.2131 -0.0485
21990SOL     OW67646   2.777   0.060   3.010  0.1379 -0.7013 -0.1405
21990SOL    HW167647   2.715   0.040   2.939  1.5321 -1.1660 -1.2522
21990SOL    HW267648   2.862   0.033   2.975  1.0281  0.3529  1.1921
21991SOL     OW67649   6.287   5.201   6.954 -0.2234 -0.1001  0.3221
21991SOL    HW167650   6.340   5.258   7.010 -0.2200 -0.1302  0.3499
21991SOL    HW267651   6.342   5.124   6.939  0.3281  0.5085 -0.8596
21992SOL     OW67652   5.257   5.823   4.363  0.1422  0.4362  0.1564
21992SOL    HW167653   5.250   5.803   4.456  1.2192  0.1409  0.1738
21992SOL    HW267654   5.208   5.753   4.319  0.3664  0.0996  0.4481
21993SOL     OW67655   0.898   5.918   7.923  0.2431 -0.5252  0.0138
21993SOL    HW167656   0.977   5.932   7.976  1.3291 -2.2511 -1.0782
21993SOL    HW267657   0.850   5.849   7.970  0.6163 -1.2081 -0.5872
21994SOL     OW67658   7.212   3.556   7.418 -0.3073 -0.7792 -0.2870
21994SOL    HW167659   7.288   3.497   7.414 -0.3980 -0.8317 -1.4116
21994SOL    HW267660   7.242   3.637   7.377 -0.1596  0.0070  1.3273
21995SOL     OW67661   8.683   5.321   6.314 -0.3064 -0.4433  0.3460
21995SOL    HW167662   8.665   5.279   6.230  0.5309 -1.4376  0.6527
21995SOL    HW267663   8.651   5.258   6.379  0.5453 -0.4092  0.8028
21996SOL     OW67664   2.245   5.731   2.206  0.0802 -0.2409 -0.0956
21996SOL    HW167665   2.167   5.729   2.151  0.5550  0.3152 -0.7995
21996SOL    HW267666   2.294   5.652   2.181  0.0620 -0.2417 -0.1291
21997SOL     OW67667   2.539   2.305   8.036 -0.0374 -0.3813  0.2008
21997SOL    HW167668   2.532   2.224   7.986  1.4927 -0.5217  0.1987
21997SOL    HW267669   2.603   2.358   7.988 -0.1463  0.3565  0.8497
21998SOL     OW67670   8.985   7.352   2.641 -0.2356 -0.3634  0.2822
21998SOL    HW167671   9.075   7.339   2.610 -0.2097  0.3494  0.0498
21998SOL    HW267672   8.986   7.321   2.732  0.8717  1.9276  1.0921
21999SOL     OW67673   4.559   3.513   6.705  0.2159 -0.1546  0.7616
21999SOL    HW167674   4.558   3.604   6.734  1.2345 -0.5034  1.9136
21999SOL    HW267675   4.625   3.470   6.760 -0.4895 -1.6640  0.4704
22000SOL     OW67676   1.292   1.130   6.600 -0.1289 -0.1903  0.1172
22000SOL    HW167677   1.340   1.213   6.607 -0.0723 -0.3453  1.5434
22000SOL    HW267678   1.233   1.130   6.675 -0.9952 -0.8974 -0.5507
22001SOL     OW67679   7.375   0.248   8.020 -0.8032  0.2795 -0.5264
22001SOL    HW167680   7.297   0.236   7.967 -0.8808  1.6267 -0.7310
22001SOL    HW267681   7.443   0.275   7.958 -0.7005  1.1106 -0.0599
22002SOL     OW67682   0.000   1.796   8.349 -0.5556  0.2838 -0.0025
22002SOL    HW167683   0.046   1.749   8.279 -3.1302  0.3588 -1.8014
22002SOL    HW267684  -0.028   1.878   8.307 -0.9179  0.9492  1.5281
22003SOL     OW67685   6.616   3.071   5.903 -0.4486  0.3098 -0.0653
22003SOL    HW167686   6.584   3.079   5.813 -0.1823 -1.9368 -0.3913
22003SOL    HW267687   6.538   3.075   5.957 -0.7773  0.0667 -0.5171
22004SOL     OW67688   5.398   3.972   8.180 -0.7611 -0.5772 -0.1625
22004SOL    HW167689   5.342   4.049   8.168 -0.9101 -0.7400 -0.5317
22004SOL    HW267690   5.352   3.902   8.134  0.8716 -0.1902 -2.4586
22005SOL     OW67691   4.987   1.044   5.976 -0.0561 -0.0510  0.3022
22005SOL    HW167692   4.982   1.110   5.907  0.1179  0.8189  1.1140
22005SOL    HW267693   5.081   1.029   5.988 -0.1264 -2.0996 -1.4252
22006SOL     OW67694   2.154   0.309   6.023 -0.4487  0.5169  0.0110
22006SOL    HW167695   2.081   0.249   6.010 -0.3034 -0.1886  2.2269
22006SOL    HW267696   2.216   0.287   5.954 -1.3763 -0.3386 -0.5667
22007SOL     OW67697   7.809   3.856   8.001 -0.6217  0.4677 -0.1099
22007SOL    HW167698   7.779   3.805   8.076  2.1341  1.5741  1.8497
22007SOL    HW267699   7.786   3.947   8.023  1.7432  1.0133  0.2529
22008SOL     OW67700   2.204   1.575   6.072  0.4744 -0.3461  0.4811
22008SOL    HW167701   2.130   1.570   6.133 -0.6653  1.3969 -0.7459
22008SOL    HW267702   2.204   1.489   6.029  0.4194 -1.0797  1.8843
22009SOL     OW67703   4.121   3.389   7.536 -0.1057 -0.2154  0.2325
22009SOL    HW167704   4.046   3.405   7.593 -0.0632 -0.4331  0.3500
22009SOL    HW267705   4.099   3.308   7.489 -0.1013 -0.0869  0.0060
22010SOL     OW67706   6.716   1.055   1.990  0.0859  0.1017 -0.0384
22010SOL    HW167707   6.753   1.090   1.908  1.4181 -3.2387 -0.9434
22010SOL    HW267708   6.648   0.994   1.961 -0.3913 -0.0692  1.4226
22011SOL     OW67709   8.321   0.370   3.442  0.2645 -0.3727 -0.1095
22011SOL    HW167710   8.345   0.448   3.491 -2.6291 -0.7514  2.0662
22011SOL    HW267711   8.303   0.402   3.353  1.0290  1.1132  0.2596
22012SOL     OW67712   1.038   3.466   4.329 -0.1515  0.3123 -0.5287
22012SOL    HW167713   1.067   3.400   4.392 -1.0228  0.7960  0.4003
22012SOL    HW267714   1.110   3.529   4.324  0.9592 -1.0271 -1.9055
22013SOL     OW67715   4.160   5.814   9.097 -0.1011 -0.1493  0.0777
22013SOL    HW167716   4.092   5.876   9.074 -0.9789 -1.5466 -1.2361
22013SOL    HW267717   4.241   5.854   9.065 -0.5631  0.6303 -0.1280
22014SOL     OW67718   7.645   2.430   0.306 -0.4527  0.0497  0.2726
22014SOL    HW167719   7.623   2.523   0.302 -1.3514 -0.1230  0.9465
22014SOL    HW267720   7.592   2.397   0.379 -1.0331 -1.2293 -0.7218
22015SOL     OW67721   1.781   5.169   3.957  0.2766 -0.5268 -0.6248
22015SOL    HW167722   1.778   5.093   3.899  0.3663 -0.8872 -0.1523
22015SOL    HW267723   1.779   5.244   3.897 -0.5264 -0.8937 -1.0564
22016SOL     OW67724   6.982   0.960   4.823 -0.3044 -0.0211 -0.4710
22016SOL    HW167725   6.921   1.029   4.850  1.0136  0.6231  0.9045
22016SOL    HW267726   7.065   0.984   4.864  0.6583 -1.3852 -1.5761
22017SOL     OW67727   3.838   0.423   0.551 -0.3709  0.1111 -0.2476
22017SOL    HW167728   3.776   0.483   0.510 -0.0812 -0.0423 -0.9119
22017SOL    HW267729   3.870   0.471   0.628 -1.7188 -0.0360  0.4158
22018SOL     OW67730   7.315   2.735   2.113 -0.3417 -0.0872  0.0983
22018SOL    HW167731   7.295   2.719   2.206 -2.6862  1.0588 -0.1741
22018SOL    HW267732   7.231   2.756   2.074  0.8695  0.9659 -2.0115
22019SOL     OW67733   0.412   5.744   6.082 -0.8482 -0.2280 -0.0951
22019SOL    HW167734   0.367   5.828   6.082 -0.1539  0.1544  0.4230
22019SOL    HW267735   0.449   5.736   5.994 -2.6862 -0.9766 -0.8296
22020SOL     OW67736   7.183   2.465   4.800  0.4813  0.1496 -0.2863
22020SOL    HW167737   7.192   2.555   4.770  0.8502  0.8904  1.9594
22020SOL    HW267738   7.098   2.436   4.766 -0.2449  1.8046  0.1015
22021SOL     OW67739   4.837   8.378   3.043  0.4913  0.5373  0.0186
22021SOL    HW167740   4.900   8.447   3.021  0.0973  0.3816 -1.6380
22021SOL    HW267741   4.789   8.362   2.962  0.5297 -1.6491  0.3972
22022SOL     OW67742   4.688   7.143   4.984 -0.0492 -0.4138  0.3284
22022SOL    HW167743   4.623   7.185   4.927  1.2534  0.9761 -0.1801
22022SOL    HW267744   4.710   7.211   5.048 -0.5865 -1.5556  1.7375
22023SOL     OW67745   0.455   3.643   2.503  0.1121  0.1069 -0.4290
22023SOL    HW167746   0.497   3.706   2.444 -0.8718  0.2809 -0.9478
22023SOL    HW267747   0.450   3.687   2.587  1.1324  0.0195 -0.3180
22024SOL     OW67748   7.067   3.849   0.872  0.6760 -0.3409  0.1316
22024SOL    HW167749   7.152   3.862   0.914  0.4734  0.3494  0.3329
22024SOL    HW267750   7.055   3.927   0.819  0.9537 -1.2293 -1.2570
22025SOL     OW67751   7.859   3.199   1.419  0.4283 -0.1570 -0.2394
22025SOL    HW167752   7.772   3.159   1.425 -0.9987  2.6607 -1.1686
22025SOL    HW267753   7.877   3.201   1.325  0.2907  1.7534 -0.2260
22026SOL     OW67754   9.192   7.149   6.142  0.3481  0.7515 -0.1457
22026SOL    HW167755   9.250   7.184   6.074  0.2416  3.1263  0.9385
22026SOL    HW267756   9.234   7.068   6.171  0.0585 -0.6625 -3.4715
22027SOL     OW67757   4.312   0.882   3.082  0.0017 -0.5069 -0.1163
22027SOL    HW167758   4.349   0.969   3.066  0.3197 -0.5867  0.1905
22027SOL    HW267759   4.329   0.865   3.174 -0.1901 -0.8357 -0.1400
22028SOL     OW67760   7.290   1.434   1.664 -0.2691  0.2807  0.0408
22028SOL    HW167761   7.373   1.430   1.615 -1.3493  0.0121 -1.8071
22028SOL    HW267762   7.314   1.405   1.752  2.1431  2.8113  0.3060
22029SOL     OW67763   6.541   2.013   5.707  0.2571 -0.1287 -0.1650
22029SOL    HW167764   6.541   1.965   5.624  0.5575  0.5291 -0.5583
22029SOL    HW267765   6.550   2.105   5.680  3.8656 -0.1512  0.7266
22030SOL     OW67766   9.151   4.439   0.540  0.0746  0.2901  0.0447
22030SOL    HW167767   9.239   4.442   0.502  0.4770  0.0466  0.9582
22030SOL    HW267768   9.160   4.387   0.619 -0.9596  0.0154 -0.0128
22031SOL     OW67769   0.582   1.892   2.588 -0.2736  0.0308  0.3435
22031SOL    HW167770   0.543   1.932   2.666  0.2123  0.7586  0.2252
22031SOL    HW267771   0.657   1.948   2.568  0.7465 -1.2775  0.4828
22032SOL     OW67772   6.094   5.088   3.193  0.2983  0.3266  0.2905
22032SOL    HW167773   6.042   5.145   3.137  0.9470  1.5446  0.9140
22032SOL    HW267774   6.114   5.013   3.138 -2.9235 -0.6489  0.3381
22033SOL     OW67775   4.537   3.120   7.535  0.1227 -0.2695 -1.0775
22033SOL    HW167776   4.610   3.136   7.595 -0.0454  0.0401 -0.9506
22033SOL    HW267777   4.468   3.181   7.564 -1.0082 -2.1244  0.1958
22034SOL     OW67778   4.094   4.046   3.735  0.1642 -0.2320  0.1159
22034SOL    HW167779   4.058   4.111   3.795 -0.1751  1.0051 -1.3909
22034SOL    HW267780   4.185   4.072   3.724  0.1900 -0.3769 -0.0101
22035SOL     OW67781   2.825   5.279   8.912  0.2004 -0.1322  0.8840
22035SOL    HW167782   2.867   5.308   8.831 -1.6900 -1.6415 -0.6928
22035SOL    HW267783   2.745   5.332   8.916 -0.6219 -1.3436  0.7637
22036SOL     OW67784   2.271   7.432   4.926 -0.4486 -0.3205  0.0105
22036SOL    HW167785   2.232   7.372   4.863 -0.1009  0.3071 -0.8055
22036SOL    HW267786   2.257   7.519   4.889 -1.0913  0.1370  1.2581
22037SOL     OW67787   4.783   1.411   7.229 -0.0352  0.0303 -0.2754
22037SOL    HW167788   4.818   1.497   7.206 -0.5043 -0.2825 -2.2219
22037SOL    HW267789   4.855   1.350   7.213  0.0611 -0.0460  0.4025
22038SOL     OW67790   7.068   3.552   3.220 -0.2056  0.1416 -0.0033
22038SOL    HW167791   6.977   3.526   3.205 -0.6339  2.7663 -2.4604
22038SOL    HW267792   7.063   3.627   3.279  0.1225  1.8240 -2.0460
22039SOL     OW67793   5.943   0.341   0.056 -0.0085  0.0281  0.0979
22039SOL    HW167794   5.944   0.367   0.148  0.1132 -0.8300  0.3523
22039SOL    HW267795   6.034   0.318   0.037  0.6254  3.3288 -1.1894
22040SOL     OW67796   6.518   4.311   0.163 -0.1930  0.2445 -0.1105
22040SOL    HW167797   6.426   4.311   0.136 -0.0976  0.6027 -0.4305
22040SOL    HW267798   6.515   4.320   0.259 -0.5027 -0.1573 -0.0809
22041SOL     OW67799   3.342   1.166   8.639  0.1287  0.7728  0.1002
22041SOL    HW167800   3.269   1.183   8.579 -1.2378 -0.4891  1.3967
22041SOL    HW267801   3.415   1.142   8.581 -0.9076  0.5011 -1.1132
22042SOL     OW67802   1.935   9.204   1.388  0.0956 -0.7430 -0.0379
22042SOL    HW167803   1.985   9.135   1.432 -0.8869 -0.5875  1.3450
22042SOL    HW267804   1.844   9.188   1.413 -0.2759  0.3841 -0.6216
22043SOL     OW67805   8.170   4.911   3.149  0.1220  0.4082  0.4232
22043SOL    HW167806   8.248   4.879   3.195  0.9877  0.6539 -0.8626
22043SOL    HW267807   8.105   4.843   3.162  0.2244  0.6292  2.3360
22044SOL     OW67808   8.454   4.066   8.881 -0.0879 -0.3238  0.0414
22044SOL    HW167809   8.360   4.053   8.888 -0.0473 -0.8771 -0.4132
22044SOL    HW267810   8.468   4.095   8.791  0.2312 -0.6932 -0.0266
22045SOL     OW67811   0.212   5.425   8.215  0.1749 -0.3556 -0.2084
22045SOL    HW167812   0.124   5.387   8.218 -0.9109  1.9804 -1.3304
22045SOL    HW267813   0.266   5.366   8.267 -2.2098 -1.4452  1.0701
22046SOL     OW67814   5.466   2.007   0.810 -0.0435 -0.0341 -0.0292
22046SOL    HW167815   5.385   1.971   0.846 -0.3217  0.6005 -0.0082
22046SOL    HW267816   5.465   2.099   0.836  0.9631 -0.1512  0.4553
22047SOL     OW67817   2.580   8.736   7.610  0.4853  0.2505  0.6522
22047SOL    HW167818   2.536   8.706   7.530  1.5102  0.7891 -0.1294
22047SOL    HW267819   2.524   8.705   7.681 -1.1120  0.8582 -0.3121
22048SOL     OW67820   4.851   7.490   0.565  0.3330 -0.3448  0.1001
22048SOL    HW167821   4.850   7.583   0.586  1.0568 -0.1058 -0.8683
22048SOL    HW267822   4.821   7.486   0.474 -1.9225 -1.2664  0.8628
22049SOL     OW67823   0.235   1.899   2.896  0.2412 -0.0850 -0.3780
22049SOL    HW167824   0.165   1.838   2.921 -0.1465  1.2090  1.8618
22049SOL    HW267825   0.301   1.844   2.856 -1.3379 -1.5827 -0.9979
22050SOL     OW67826   7.703   1.133   0.391  0.3789 -0.1981 -0.1657
22050SOL    HW167827   7.749   1.194   0.449  0.4975 -0.2844 -0.1683
22050SOL    HW267828   7.610   1.146   0.411  0.3899  0.1498 -0.3292
22051SOL     OW67829   2.277   9.146   0.047 -0.3473 -0.1747 -0.2404
22051SOL    HW167830   2.230   9.122   0.127 -0.8492  0.3135 -0.3815
22051SOL    HW267831   2.212   9.192  -0.006 -0.1395 -0.8750 -1.1222
22052SOL     OW67832   4.888   0.656   7.677  0.5689 -0.0807  0.4239
22052SOL    HW167833   4.803   0.630   7.713 -0.9528  2.9196 -0.8017
22052SOL    HW267834   4.908   0.591   7.611 -1.2315 -0.3226  0.1035
22053SOL     OW67835   5.042   1.276   7.161  0.0842 -0.4769  0.1854
22053SOL    HW167836   5.070   1.196   7.117 -0.1776 -1.0572  1.0508
22053SOL    HW267837   5.096   1.345   7.123 -0.4283 -0.8988 -1.3316
22054SOL     OW67838   3.412   1.604   4.727  0.7108  0.0204 -0.1806
22054SOL    HW167839   3.398   1.621   4.820 -0.5731  2.3780 -0.7698
22054SOL    HW267840   3.473   1.673   4.699  0.6032 -0.2951 -1.2157
22055SOL     OW67841   0.015   7.518   6.308  0.1437  0.1121  0.0710
22055SOL    HW167842   0.026   7.467   6.228  0.7717 -1.4109  1.1132
22055SOL    HW267843   0.091   7.497   6.362 -0.0994  1.3710  0.9440
22056SOL     OW67844   5.657   8.363   3.782 -0.9322  0.1706  0.2375
22056SOL    HW167845   5.626   8.339   3.870 -0.1151 -2.0150 -0.0431
22056SOL    HW267846   5.744   8.400   3.797 -0.7708 -0.2479  0.3569
22057SOL     OW67847   0.650   7.969   7.043 -0.5288  0.6527  0.3031
22057SOL    HW167848   0.744   7.981   7.057 -0.0980 -0.3405 -1.5841
22057SOL    HW267849   0.640   7.968   6.948 -2.1019 -1.7399  0.4563
22058SOL     OW67850   0.425   6.237   5.790 -0.4511  0.7388  0.5807
22058SOL    HW167851   0.331   6.221   5.794 -0.2115 -0.5774  1.2732
22058SOL    HW267852   0.462   6.179   5.856  0.7580  2.0492  1.0857
22059SOL     OW67853   3.102   7.894   7.943 -0.7679 -0.1813  0.1883
22059SOL    HW167854   3.131   7.932   8.026  0.3956 -0.4187 -0.0988
22059SOL    HW267855   3.178   7.901   7.886 -1.7089  0.4279 -1.0244
22060SOL     OW67856   5.171   1.850   0.324 -0.3785  0.0232  0.0642
22060SOL    HW167857   5.226   1.812   0.392 -0.9983 -1.0049 -0.0035
22060SOL    HW267858   5.230   1.860   0.249 -0.2814 -1.0705 -0.0097
22061SOL     OW67859   1.871   5.017   2.760 -0.5066  0.1916 -0.1184
22061SOL    HW167860   1.874   5.111   2.776  0.4021  0.0675  0.4899
22061SOL    HW267861   1.808   4.983   2.824  1.5151 -0.0177  1.8200
22062SOL     OW67862   7.851   6.357   8.518  0.3593 -0.1717 -0.0848
22062SOL    HW167863   7.846   6.368   8.423  3.1043  0.4799 -0.1887
22062SOL    HW267864   7.781   6.412   8.553  1.9460  2.8621 -1.5422
22063SOL     OW67865   1.778   1.162   7.172  0.0073 -0.2045 -0.2094
22063SOL    HW167866   1.777   1.224   7.099  0.8276 -0.9754 -0.9051
22063SOL    HW267867   1.867   1.127   7.171  0.0386 -0.1836  1.2077
22064SOL     OW67868   3.013   3.675   1.876  0.5389  0.0643 -0.0316
22064SOL    HW167869   3.001   3.624   1.795 -0.3715 -1.2524  0.9186
22064SOL    HW267870   2.948   3.745   1.870  0.7263  0.1916 -0.6147
22065SOL     OW67871   8.776   6.374   1.845 -0.7218  0.4310  0.4013
22065SOL    HW167872   8.803   6.305   1.905  0.3497 -0.9493 -1.6106
22065SOL    HW267873   8.817   6.351   1.761 -1.8106  2.5374 -0.7622
22066SOL     OW67874   8.725   1.945   3.386  0.4386 -0.2480  0.5105
22066SOL    HW167875   8.743   2.024   3.438 -0.2311  0.4182 -0.2592
22066SOL    HW267876   8.760   1.966   3.299 -0.7378 -0.3611  0.0033
22067SOL     OW67877   6.438   7.059   5.386  0.7693 -0.1551 -0.0263
22067SOL    HW167878   6.448   7.025   5.298  1.3222  1.1424 -0.4806
22067SOL    HW267879   6.393   6.990   5.434 -0.8680 -0.2831 -1.6941
22068SOL     OW67880   3.479   3.513   8.092  0.3114  0.2734  0.6183
22068SOL    HW167881   3.535   3.495   8.017 -1.9898 -0.5429 -0.9288
22068SOL    HW267882   3.472   3.428   8.137 -2.0740 -0.3609 -0.8735
22069SOL     OW67883   0.606   3.945   8.665 -0.4672  0.3989 -0.0533
22069SOL    HW167884   0.674   3.951   8.733  0.2083  0.4897 -0.7294
22069SOL    HW267885   0.583   3.852   8.663  0.6955  0.1226 -0.8413
22070SOL     OW67886   4.409   0.190   0.923 -0.3622  0.2625 -0.0496
22070SOL    HW167887   4.475   0.178   0.991  0.0004  0.1464 -0.4144
22070SOL    HW267888   4.367   0.273   0.945 -0.2689  0.2102  0.3324
22071SOL     OW67889   5.732   0.641   7.352  0.2559  0.3383  0.3812
22071SOL    HW167890   5.791   0.615   7.422 -0.2464 -1.0334  0.3073
22071SOL    HW267891   5.755   0.583   7.279 -3.5829 -2.7691  1.4821
22072SOL     OW67892   2.972   6.248   8.142 -0.3166  0.1324  0.0092
22072SOL    HW167893   2.994   6.318   8.203  1.1072 -0.6815  0.4608
22072SOL    HW267894   2.968   6.291   8.057  1.2657  0.6625  0.1744
22073SOL     OW67895   2.405   0.223   1.944  0.1311 -0.2086 -0.3179
22073SOL    HW167896   2.480   0.271   1.908 -1.2726  1.1979 -1.4285
22073SOL    HW267897   2.424   0.217   2.038  2.6404 -1.7523 -0.8711
22074SOL     OW67898   1.847   2.365   2.879 -0.1178  0.1506 -0.4958
22074SOL    HW167899   1.929   2.383   2.834 -0.0526 -2.1909 -1.3950
22074SOL    HW267900   1.780   2.404   2.824  0.2513  0.5893 -0.6422
22075SOL     OW67901   5.027   2.321   1.152 -0.3773 -0.1426  0.3168
22075SOL    HW167902   5.000   2.278   1.233  1.2607  0.5584  1.2457
22075SOL    HW267903   5.066   2.403   1.180  0.9281 -0.2464 -1.1309
22076SOL     OW67904   9.057   3.689   4.018 -0.3057 -0.1562 -0.1035
22076SOL    HW167905   8.964   3.667   4.016 -0.0095 -1.5135  0.6263
22076SOL    HW267906   9.102   3.605   4.017  0.9269  0.4993 -0.7116
22077SOL     OW67907   3.894   9.030   1.428 -0.1792 -0.5140  0.2288
22077SOL    HW167908   3.958   9.095   1.457  0.0045 -1.1582  1.2986
22077SOL    HW267909   3.816   9.081   1.406  0.0503  0.0864  0.8149
22078SOL     OW67910   5.854   0.090   4.462 -0.4024 -0.1068 -0.1296
22078SOL    HW167911   5.898   0.160   4.510 -2.3164 -0.0912  1.6898
22078SOL    HW267912   5.897   0.009   4.490 -0.3262  0.0638  0.2385
22079SOL     OW67913   4.995   6.311   3.668  0.0496  0.0113 -0.1571
22079SOL    HW167914   4.919   6.344   3.620 -0.2674  1.3959  1.2606
22079SOL    HW267915   4.963   6.231   3.710  0.0681 -0.6996 -1.4450
22080SOL     OW67916   2.122   2.461   6.113  0.2704 -0.3876  0.3048
22080SOL    HW167917   2.140   2.374   6.151  1.3532 -1.0748 -1.7179
22080SOL    HW267918   2.177   2.521   6.164 -0.0037 -0.9764  1.3046
22081SOL     OW67919   4.517   8.534   6.592 -0.1952 -0.7290 -0.6466
22081SOL    HW167920   4.525   8.600   6.660 -0.4888 -1.5368  0.1836
22081SOL    HW267921   4.422   8.527   6.576 -0.0149  1.0218 -2.7092
22082SOL     OW67922   4.580   5.279   3.534  0.2791  0.3541  0.2735
22082SOL    HW167923   4.647   5.216   3.509 -0.5684 -0.0834 -0.9044
22082SOL    HW267924   4.541   5.307   3.452  1.2150  3.0735  0.6973
22083SOL     OW67925   7.889   3.527   5.118  0.1252 -0.4036 -0.2173
22083SOL    HW167926   7.859   3.593   5.182  0.3128 -1.3985  0.9106
22083SOL    HW267927   7.929   3.579   5.049  0.8329  0.6624  0.9531
22084SOL     OW67928   4.982   3.136   7.818 -0.0813 -0.4375 -0.2997
22084SOL    HW167929   4.987   3.143   7.914 -0.3790 -1.1323 -0.2286
22084SOL    HW267930   5.073   3.131   7.790  0.0554  1.1089 -0.1608
22085SOL     OW67931   1.806   3.531   7.459 -0.2356 -0.1000 -0.2152
22085SOL    HW167932   1.771   3.568   7.541 -2.1962 -0.9173 -0.6529
22085SOL    HW267933   1.870   3.466   7.488 -0.4642  0.0473  0.6568
22086SOL     OW67934   1.142   3.770   2.878  0.4014  0.1456 -0.1505
22086SOL    HW167935   1.218   3.737   2.830  0.8146 -0.7431  1.0760
22086SOL    HW267936   1.138   3.715   2.956 -2.2128 -0.5560 -0.7536
22087SOL     OW67937   8.192   1.549   5.316 -0.8949 -0.6984  0.0066
22087SOL    HW167938   8.269   1.604   5.304 -1.6582 -0.0963 -2.3604
22087SOL    HW267939   8.219   1.484   5.381  0.9317  0.7215  0.7215
22088SOL     OW67940   1.789   9.095   5.502  0.2670 -0.3826 -0.1509
22088SOL    HW167941   1.749   9.150   5.569  0.6767 -1.5920  1.1121
22088SOL    HW267942   1.881   9.121   5.500 -0.3783  2.0298 -2.6879
22089SOL     OW67943   4.361   2.064   5.268  0.0168 -0.4956 -0.4530
22089SOL    HW167944   4.415   2.134   5.304  1.1312 -0.8130 -1.4526
22089SOL    HW267945   4.274   2.103   5.257 -0.0748 -0.1092  1.5780
22090SOL     OW67946   8.983   2.398   3.851 -0.0099 -0.0091 -0.1515
22090SOL    HW167947   8.959   2.488   3.831  2.3751  0.6394 -0.1909
22090SOL    HW267948   8.996   2.357   3.765  2.4549  0.6259 -0.1190
22091SOL     OW67949   1.545   7.011   6.580  0.5908  0.3436  0.1219
22091SOL    HW167950   1.584   7.083   6.630 -0.8865  0.5603  0.9986
22091SOL    HW267951   1.548   6.936   6.640 -0.5345  0.4207  0.2806
22092SOL     OW67952   5.571   1.780   3.029 -0.3328 -0.3622  0.6411
22092SOL    HW167953   5.637   1.847   3.043  0.3538 -0.8085 -0.4378
22092SOL    HW267954   5.614   1.698   3.053 -0.3522 -0.7009 -0.4540
22093SOL     OW67955   7.553   6.339   7.611  0.0354 -0.1621 -0.3989
22093SOL    HW167956   7.468   6.380   7.626 -0.0976 -0.3639 -0.5923
22093SOL    HW267957   7.558   6.270   7.677  0.1096 -0.0573 -0.2948
22094SOL     OW67958   0.105   2.325   1.838 -0.0594 -0.2386 -0.2216
22094SOL    HW167959   0.185   2.283   1.806 -0.5863 -0.1471 -1.6755
22094SOL    HW267960   0.034   2.280   1.791 -0.8543 -0.1441  0.8668
22095SOL     OW67961   0.858   8.937   0.353 -0.2610 -0.2519 -0.8193
22095SOL    HW167962   0.782   8.944   0.295 -1.5488  0.8715  0.9431
22095SOL    HW267963   0.836   8.863   0.410 -1.0146  1.3372  1.0249
22096SOL     OW67964   7.064   7.052   3.991  0.4250  0.1513  0.2327
22096SOL    HW167965   7.120   6.978   3.965  0.8136  1.0858 -1.7188
22096SOL    HW267966   7.124   7.126   3.999 -0.5989  1.4560 -3.0734
22097SOL     OW67967   7.667   1.611   5.227  0.5661 -0.3563  0.1704
22097SOL    HW167968   7.724   1.536   5.242 -1.1095 -1.3714  1.6135
22097SOL    HW267969   7.651   1.610   5.133  1.4077 -1.1588  0.0204
22098SOL     OW67970   5.260   7.951   7.235 -0.3962 -0.4596 -0.4572
22098SOL    HW167971   5.320   8.022   7.258  0.9137 -1.1302 -1.7102
22098SOL    HW267972   5.287   7.924   7.147 -2.7675 -0.5513 -1.2182
22099SOL     OW67973   5.517   4.919   0.976  0.6293 -0.0680 -0.2746
22099SOL    HW167974   5.524   4.848   1.040  0.0413  1.0419  1.0334
22099SOL    HW267975   5.458   4.983   1.016  2.9670  2.2530 -0.3952
22100SOL     OW67976   2.662   1.153   4.718 -0.2902 -0.1503 -0.2761
22100SOL    HW167977   2.577   1.187   4.691 -0.9669  1.7543  3.8783
22100SOL    HW267978   2.724   1.223   4.695  0.0416 -1.0648 -2.2666
22101SOL     OW67979   1.150   3.229   3.524  0.3616 -0.0106 -0.1427
22101SOL    HW167980   1.190   3.283   3.591 -1.9639 -0.2004  1.4566
22101SOL    HW267981   1.078   3.282   3.490  1.3155 -0.0356 -2.3086
22102SOL     OW67982   3.786   8.798   7.054  0.4666  0.0819  0.4517
22102SOL    HW167983   3.760   8.706   7.062 -0.5136  0.1508 -1.7719
22102SOL    HW267984   3.803   8.811   6.961  0.2948  2.2435  0.6931
22103SOL     OW67985   1.356   3.073   7.104  0.1000 -0.0907  0.2205
22103SOL    HW167986   1.395   3.117   7.179 -1.0685  3.3684 -1.1099
22103SOL    HW267987   1.421   3.082   7.034  0.1530 -1.1460  0.1230
22104SOL     OW67988   1.542   1.749   0.402  0.2932 -0.0834 -0.6772
22104SOL    HW167989   1.541   1.711   0.490 -0.8803  0.6205 -0.3739
22104SOL    HW267990   1.610   1.701   0.356  2.2137  0.7605  1.1777
22105SOL     OW67991   7.267   1.631   2.010 -0.2098 -0.1649  0.6283
22105SOL    HW167992   7.178   1.597   1.999 -1.1107  2.4859 -0.7452
22105SOL    HW267993   7.262   1.683   2.091  0.2297 -0.4188  0.8198
22106SOL     OW67994   3.082   1.962   4.424 -0.8436  0.5371 -0.2432
22106SOL    HW167995   3.042   1.967   4.337 -0.1980  0.6670 -0.5346
22106SOL    HW267996   3.045   2.037   4.471 -1.1602  0.4928 -0.4184
22107SOL     OW67997   0.796   0.832   7.609  0.4615  0.5146  0.3554
22107SOL    HW167998   0.797   0.825   7.514  0.2400  0.2341  0.3746
22107SOL    HW267999   0.869   0.891   7.629 -0.0597  1.3172 -0.0467
22108SOL     OW68000   6.643   5.408   5.957 -0.1650 -0.3085 -0.5191
22108SOL    HW168001   6.718   5.411   6.016 -1.9917  0.9834  1.8273
22108SOL    HW268002   6.594   5.330   5.984 -2.3164  1.6233  1.4547
22109SOL     OW68003   2.076   0.805   4.962 -0.4826  0.2825  0.4370
22109SOL    HW168004   2.087   0.878   5.023 -2.4249  1.4016 -0.5266
22109SOL    HW268005   2.156   0.753   4.973  0.4593  1.9823  1.8872
22110SOL     OW68006   5.402   6.687   1.734 -0.4176  0.3432 -0.0715
22110SOL    HW168007   5.449   6.697   1.651 -1.7658  1.4423 -0.7286
22110SOL    HW268008   5.391   6.593   1.744  1.0687  0.1168 -0.3756
22111SOL     OW68009   9.270   6.082   6.947  0.0739 -0.1733 -0.6877
22111SOL    HW168010   9.274   6.043   7.034  0.2508  0.4202 -0.4279
22111SOL    HW268011   9.178   6.073   6.921 -0.3409  1.1418  0.2577
22112SOL     OW68012   0.762   9.060   5.382  0.3925  0.4906 -0.1205
22112SOL    HW168013   0.679   9.053   5.336  0.7895 -0.0557 -0.7508
22112SOL    HW268014   0.738   9.083   5.472 -0.4555 -0.0141 -0.2205
22113SOL     OW68015   1.513   5.340   0.951 -0.6375  0.3136  0.5873
22113SOL    HW168016   1.526   5.431   0.923 -0.2159  0.0073 -0.2409
22113SOL    HW268017   1.557   5.335   1.036 -0.7236  0.8958  0.6732
22114SOL     OW68018   5.460   3.392   4.400  0.2822 -0.2507  0.1228
22114SOL    HW168019   5.544   3.351   4.384 -0.4639 -2.5997  1.9773
22114SOL    HW268020   5.417   3.336   4.464 -2.1477  1.6413  0.2480
22115SOL     OW68021   0.990   2.815   5.911  0.6676  0.3534 -0.4270
22115SOL    HW168022   0.977   2.723   5.932  0.9168  0.4221  0.0237
22115SOL    HW268023   0.958   2.862   5.987 -0.6854  0.6959 -1.1931
22116SOL     OW68024   7.756   6.217   1.414 -0.0868 -0.8506 -0.0227
22116SOL    HW168025   7.662   6.213   1.431 -0.4242 -0.5323 -1.6910
22116SOL    HW268026   7.764   6.209   1.318  1.4664  0.6048 -0.0488
22117SOL     OW68027   3.191   4.090   3.066 -0.4213 -0.0915 -0.2427
22117SOL    HW168028   3.227   4.007   3.035 -1.3992 -0.9130  0.7566
22117SOL    HW268029   3.230   4.102   3.152  1.4129  1.6118 -1.2723
22118SOL     OW68030   2.529   6.306   6.470  0.5154  0.0647  0.0361
22118SOL    HW168031   2.482   6.231   6.435  0.2659 -0.2360  1.0139
22118SOL    HW268032   2.591   6.330   6.400  0.4296 -0.8895 -0.3737
22119SOL     OW68033   3.371   5.047   0.987  0.3752 -0.4729  0.3546
22119SOL    HW168034   3.346   5.127   0.940  0.3294 -0.4446  0.4281
22119SOL    HW268035   3.294   5.025   1.040  0.0658 -1.0578 -0.3350
22120SOL     OW68036   1.721   3.042   7.971 -0.0053 -0.6987  0.5830
22120SOL    HW168037   1.652   3.051   7.906  1.1777  0.2926 -0.5894
22120SOL    HW268038   1.722   3.126   8.017 -1.2201 -1.5954  2.3152
22121SOL     OW68039   7.430   7.254   2.746 -0.0840  0.2579 -0.4523
22121SOL    HW168040   7.392   7.244   2.834  2.0616 -1.8615  0.2735
22121SOL    HW268041   7.503   7.315   2.759 -0.1305  0.4073 -0.8849
22122SOL     OW68042   3.798   2.062   6.622  0.3157  0.4191  0.1256
22122SOL    HW168043   3.745   2.103   6.553 -0.8117 -1.7645 -0.3429
22122SOL    HW268044   3.872   2.024   6.576 -0.4219 -1.0136  0.1049
22123SOL     OW68045   8.148   7.639   5.520 -0.6133 -0.5279 -0.0878
22123SOL    HW168046   8.074   7.586   5.493  1.1168 -1.6070 -3.0245
22123SOL    HW268047   8.159   7.703   5.449  2.3231 -1.5564 -0.6461
22124SOL     OW68048   9.074   2.205   4.260 -0.7481 -0.1172 -0.4337
22124SOL    HW168049   9.101   2.223   4.350 -0.1084  1.3801 -0.9092
22124SOL    HW268050   9.058   2.291   4.222 -0.0704 -0.6800 -2.0342
22125SOL     OW68051   5.805   4.293   1.356 -0.2120  0.3267 -0.1006
22125SOL    HW168052   5.712   4.297   1.377 -0.1054 -0.6406  0.6204
22125SOL    HW268053   5.849   4.319   1.437  0.1349  1.9273 -0.7835
22126SOL     OW68054   3.991   2.174   5.489  0.3339  0.5719  0.6802
22126SOL    HW168055   4.036   2.104   5.536 -1.6378 -0.2456  1.4027
22126SOL    HW268056   3.939   2.218   5.557 -1.3514  0.3532 -0.4402
22127SOL     OW68057   5.838   0.187   2.909 -0.0121  0.0260 -0.1350
22127SOL    HW168058   5.832   0.283   2.909 -0.4857  0.0013  0.8669
22127SOL    HW268059   5.918   0.169   2.958  0.8037 -0.0580 -1.4804
22128SOL     OW68060   3.279   3.682   2.816  0.2671 -0.4743  0.6597
22128SOL    HW168061   3.361   3.703   2.861  0.4610  0.6987 -0.2033
22128SOL    HW268062   3.225   3.639   2.882  1.1980 -0.3221  1.5242
22129SOL     OW68063   4.271   8.381   1.259 -0.1749 -0.0575 -0.1471
22129SOL    HW168064   4.206   8.422   1.316 -1.4734  0.0765 -1.6964
22129SOL    HW268065   4.248   8.410   1.171  0.4494 -2.0243 -0.9995
22130SOL     OW68066   3.295   4.040   1.382  0.4070 -0.4438 -0.5661
22130SOL    HW168067   3.349   4.090   1.442  0.2987 -1.2150  0.1877
22130SOL    HW268068   3.288   4.095   1.303 -0.9746  1.3984  0.8023
22131SOL     OW68069   0.475   1.180   5.792  0.4914  0.6141  0.0157
22131SOL    HW168070   0.440   1.096   5.760  1.7849  0.1285 -0.1631
22131SOL    HW268071   0.429   1.195   5.875  0.3044 -0.3326  0.0949
22132SOL     OW68072   2.759   4.231   6.363 -0.1924 -0.0994 -0.9738
22132SOL    HW168073   2.755   4.256   6.271 -1.7362 -1.1207 -1.1911
22132SOL    HW268074   2.670   4.206   6.386  0.6119 -2.0339  0.1807
22133SOL     OW68075   1.711   7.961   3.438  0.6317 -0.1130  0.7977
22133SOL    HW168076   1.798   7.923   3.448  0.8840  0.5938  1.3639
22133SOL    HW268077   1.718   8.048   3.477 -0.1060  0.2756  0.0834
22134SOL     OW68078   6.370   7.659   0.371 -0.2546  0.2373 -0.3284
22134SOL    HW168079   6.284   7.616   0.376  0.2577 -0.5888  2.0138
22134SOL    HW268080   6.425   7.598   0.322 -0.2805 -0.5067  0.5598
22135SOL     OW68081   2.804   3.999   7.533  0.1573  0.3452  0.3324
22135SOL    HW168082   2.801   4.032   7.623  0.1778  1.7584 -0.1677
22135SOL    HW268083   2.813   4.078   7.480  2.1837 -0.6186 -0.8026
22136SOL     OW68084   2.347   2.095   3.690  0.0570  0.1850  0.0907
22136SOL    HW168085   2.377   2.058   3.773 -1.2053  0.8021  0.8551
22136SOL    HW268086   2.317   2.020   3.639  3.1803 -0.4911 -0.8635
22137SOL     OW68087   5.794   8.330   2.500 -0.2592  0.8944  0.3315
22137SOL    HW168088   5.712   8.355   2.541 -0.5417 -0.4311  0.6117
22137SOL    HW268089   5.768   8.290   2.417  0.0225 -0.3688  0.8327
22138SOL     OW68090   3.100   0.539   5.237  0.5385 -0.2702  0.0658
22138SOL    HW168091   3.123   0.467   5.295  1.3812  1.0718  1.4401
22138SOL    HW268092   3.184   0.581   5.216  0.1547 -0.2337 -1.4484
22139SOL     OW68093   9.253   5.592   4.748 -0.4108 -0.4410  0.0418
22139SOL    HW168094   9.336   5.603   4.701  1.0624 -0.9777  2.4551
22139SOL    HW268095   9.227   5.502   4.727  0.9168 -1.1344  1.2435
22140SOL     OW68096   8.815   3.689   0.497  0.1057 -0.1927 -0.8985
22140SOL    HW168097   8.764   3.673   0.576 -0.4634  0.7915 -1.0517
22140SOL    HW268098   8.834   3.783   0.500  2.8948 -0.7411 -0.2535
22141SOL     OW68099   5.797   4.660   3.713  0.5315 -0.7571 -0.5276
22141SOL    HW168100   5.891   4.648   3.727  0.5826 -0.0046 -0.2028
22141SOL    HW268101   5.778   4.746   3.748 -0.4041 -1.1563 -0.0308
22142SOL     OW68102   5.759   0.663   9.074  0.2625  0.0415 -0.1120
22142SOL    HW168103   5.701   0.724   9.028  0.6953  0.5434  0.0140
22142SOL    HW268104   5.699   0.601   9.117 -0.1715  0.3506 -0.2717
22143SOL     OW68105   2.123   2.384   2.740 -0.0300 -0.1755  0.2942
22143SOL    HW168106   2.154   2.390   2.650  1.6041 -0.9832  0.7787
22143SOL    HW268107   2.148   2.296   2.769  2.2388  1.1123  2.5001
22144SOL     OW68108   2.723   8.097   0.084 -0.3840  0.7128 -0.0910
22144SOL    HW168109   2.780   8.042   0.029  0.2624  0.4752  0.7993
22144SOL    HW268110   2.767   8.182   0.086 -0.3878  0.7102  0.0796
22145SOL     OW68111   2.537   3.685   5.861  0.0972  0.5639 -0.4514
22145SOL    HW168112   2.508   3.594   5.857 -0.7279  0.7372  1.1623
22145SOL    HW268113   2.457   3.737   5.851  0.1562  1.0716  1.4961
22146SOL     OW68114   4.320   0.155   1.364  0.8714 -0.7377  0.8350
22146SOL    HW168115   4.231   0.182   1.342  0.7313 -2.3394 -0.6598
22146SOL    HW268116   4.372   0.234   1.357 -0.2169 -0.0417  0.5131
22147SOL     OW68117   5.452   5.945   8.963 -0.2174  0.4471 -0.1058
22147SOL    HW168118   5.482   5.968   8.875 -2.6327 -0.3240 -1.1792
22147SOL    HW268119   5.366   5.987   8.971 -0.2677  0.0634  1.6879
22148SOL     OW68120   3.754   4.547   7.958  0.2508 -0.1809 -0.2620
22148SOL    HW168121   3.763   4.546   7.863  0.7675 -1.6873 -0.2065
22148SOL    HW268122   3.833   4.590   7.990  0.4826 -0.4562 -0.4694
22149SOL     OW68123   2.270   7.126   5.285  0.0462  0.1665  0.1720
22149SOL    HW168124   2.253   7.220   5.296  1.0963  0.2408  1.2163
22149SOL    HW268125   2.275   7.114   5.190 -0.8812  1.0183  0.0038
22150SOL     OW68126   2.184   8.864   2.334 -0.3715 -0.4327 -0.2784
22150SOL    HW168127   2.168   8.899   2.422 -0.4265 -0.7128 -0.1762
22150SOL    HW268128   2.263   8.908   2.304 -1.6345  1.3882 -1.0129
22151SOL     OW68129   0.913   7.969   2.864 -0.2526  0.4890  0.6398
22151SOL    HW168130   0.866   8.001   2.787  0.7844  0.2979 -0.0961
22151SOL    HW268131   0.929   8.048   2.916  0.0512  0.7992  0.0867
22152SOL     OW68132   6.429   2.779   6.343 -0.2999  0.7749 -0.2872
22152SOL    HW168133   6.363   2.847   6.332 -0.7735  0.1606 -1.3136
22152SOL    HW268134   6.486   2.787   6.267  0.2658  0.6896  0.1149
22153SOL     OW68135   0.315   7.790   3.234 -0.4591 -0.0475  0.1857
22153SOL    HW168136   0.375   7.758   3.167 -0.1158  0.6541  0.1519
22153SOL    HW268137   0.355   7.765   3.316  0.0072  0.6429  0.1683
22154SOL     OW68138   2.031   8.582   7.737  0.3693  0.1298  0.0710
22154SOL    HW168139   2.074   8.510   7.690 -0.7418 -1.2139  1.1196
22154SOL    HW268140   1.938   8.567   7.725  0.1203  1.2750  0.5002
22155SOL     OW68141   8.799   0.430   5.726 -0.0302 -0.5450 -0.2613
22155SOL    HW168142   8.765   0.384   5.649  1.1547 -1.2636 -0.3647
22155SOL    HW268143   8.807   0.521   5.696 -0.1100 -0.7139 -0.8160
22156SOL     OW68144   0.129   5.093   2.479 -0.3416  0.1187  0.1472
22156SOL    HW168145   0.150   5.134   2.562 -0.4118  0.9432 -0.2378
22156SOL    HW268146   0.208   5.043   2.456 -0.4668 -0.4277  0.8904
22157SOL     OW68147   0.778   5.483   6.906 -0.5954  0.3890 -0.3264
22157SOL    HW168148   0.852   5.473   6.846 -0.2957 -1.8660  0.3642
22157SOL    HW268149   0.702   5.491   6.850 -0.1210  0.0164 -1.0344
22158SOL     OW68150   4.642   2.874   3.953  0.2482  0.5498  0.6353
22158SOL    HW168151   4.551   2.861   3.927  0.1730 -0.8440  1.5604
22158SOL    HW268152   4.642   2.959   3.999 -0.4621  0.8424  0.0962
22159SOL     OW68153   2.062   4.944   3.513 -0.0405  0.3139  0.2913
22159SOL    HW168154   2.086   5.037   3.513  0.4632  0.1872  0.0201
22159SOL    HW268155   2.084   4.914   3.425  0.4563 -0.2352  0.6015
22160SOL     OW68156   3.508   8.594   0.441 -0.1133 -0.2725  0.0034
22160SOL    HW168157   3.415   8.606   0.457 -0.0185  1.4950 -0.6796
22160SOL    HW268158   3.515   8.577   0.348  0.2047 -0.8055  0.1253
22161SOL     OW68159   8.517   3.863   7.006  0.2637  0.5068 -0.1289
22161SOL    HW168160   8.456   3.905   7.067  0.9593  1.0049  0.2258
22161SOL    HW268161   8.569   3.804   7.061 -0.2951 -0.3763 -0.5287
22162SOL     OW68162   3.401   7.055   5.703 -0.3294  0.4411 -0.0221
22162SOL    HW168163   3.366   7.039   5.791  2.1355  2.0599  1.3248
22162SOL    HW268164   3.377   7.146   5.685  0.5554  0.6048 -0.3661
22163SOL     OW68165   1.636   9.232   1.439  0.1366  0.5437 -0.7209
22163SOL    HW168166   1.642   9.171   1.365 -0.9614 -0.0343 -0.3388
22163SOL    HW268167   1.588   9.307   1.404 -1.0205 -0.0441 -0.3863
22164SOL     OW68168   2.635   0.363   0.199  0.1005 -0.1183 -0.0917
22164SOL    HW168169   2.618   0.457   0.208 -0.4100 -0.2978  1.0585
22164SOL    HW268170   2.616   0.343   0.108 -1.8128  0.5294  0.1404
22165SOL     OW68171   8.285   5.278   3.504 -0.9391  0.3300  0.1782
22165SOL    HW168172   8.361   5.251   3.556 -1.2898 -1.4976 -0.2189
22165SOL    HW268173   8.322   5.309   3.422 -0.5464  0.5004  0.4202
22166SOL     OW68174   2.725   7.045   3.004  0.1395  0.0668 -0.1584
22166SOL    HW168175   2.803   7.014   2.959  1.3029  2.4331  0.1705
22166SOL    HW268176   2.673   6.966   3.019  2.6336 -1.5907 -0.0330
22167SOL     OW68177   8.193   8.951   2.681  0.1576 -0.6561  0.2601
22167SOL    HW168178   8.256   9.022   2.675 -1.6046  0.7577 -2.7871
22167SOL    HW268179   8.242   8.873   2.655  1.1138  0.1174 -0.2888
22168SOL     OW68180   6.364   3.482   5.171  0.0020 -0.1939 -0.1321
22168SOL    HW168181   6.426   3.546   5.207 -0.0375  0.3064 -0.9381
22168SOL    HW268182   6.369   3.494   5.077 -1.4489 -0.0331 -0.2008
22169SOL     OW68183   5.467   0.279   3.819 -0.1667 -0.0962  0.1712
22169SOL    HW168184   5.488   0.210   3.882  0.9014 -0.4049 -0.5059
22169SOL    HW268185   5.511   0.252   3.739 -1.5462  0.2760 -0.7325
22170SOL     OW68186   6.134   2.026   8.294 -0.0453  0.0544  0.3214
22170SOL    HW168187   6.059   2.059   8.345 -1.7311 -1.3184 -1.2130
22170SOL    HW268188   6.153   2.098   8.233 -0.4483  0.2150  0.3755
22171SOL     OW68189   4.966   4.368   6.465 -0.1654  0.0128 -0.1706
22171SOL    HW168190   4.941   4.451   6.423  0.2772  0.4056  0.3197
22171SOL    HW268191   5.051   4.387   6.506  0.2645 -0.8845 -0.6329
22172SOL     OW68192   1.235   3.050   1.757 -0.2668  0.4542  0.1728
22172SOL    HW168193   1.152   3.030   1.712 -0.3095 -0.5890  0.6908
22172SOL    HW268194   1.215   3.036   1.849  0.7723 -0.8277  0.2073
22173SOL     OW68195   1.624   6.876   1.909  0.2221 -0.2061  0.0328
22173SOL    HW168196   1.564   6.842   1.976 -1.1493 -0.3120 -1.2395
22173SOL    HW268197   1.694   6.919   1.960 -1.2862  0.5421  1.5289
22174SOL     OW68198   5.105   8.328   8.217  0.5161  0.5183  0.3953
22174SOL    HW168199   5.035   8.390   8.238 -0.8053 -0.2274 -1.6460
22174SOL    HW268200   5.117   8.278   8.297  1.6483  3.4132  2.0984
22175SOL     OW68201   0.514   4.482   8.278  0.5518  0.2705 -0.2278
22175SOL    HW168202   0.485   4.449   8.193 -0.8629  0.7556  0.0615
22175SOL    HW268203   0.577   4.417   8.308  1.7537  0.5498 -2.0544
22176SOL     OW68204   4.471   5.479   6.345 -0.3243 -0.0293  0.0786
22176SOL    HW168205   4.538   5.419   6.314  0.5308  0.8095  0.2599
22176SOL    HW268206   4.518   5.561   6.362 -1.2491  0.3389  0.9626
22177SOL     OW68207   2.268   3.191   2.525  0.1465  0.5725 -0.6833
22177SOL    HW168208   2.209   3.228   2.459 -0.8331  0.7694  0.2850
22177SOL    HW268209   2.210   3.140   2.582  1.2731 -1.2628 -1.1629
22178SOL     OW68210   9.245   9.001   1.548  0.3896  0.0410  0.1661
22178SOL    HW168211   9.206   8.915   1.536  0.8221 -0.1442  0.0907
22178SOL    HW268212   9.337   8.989   1.525  0.3645  0.6174 -0.2553
22179SOL     OW68213   2.819   2.623   4.274  0.0550  0.2405  0.2238
22179SOL    HW168214   2.746   2.562   4.286 -0.6329  0.9924 -0.0877
22179SOL    HW268215   2.817   2.680   4.351  1.6051 -1.0426  1.2365
22180SOL     OW68216   6.774   1.834   7.779 -0.1790 -0.0212  0.7264
22180SOL    HW168217   6.724   1.833   7.697 -0.2260  1.6460  0.7190
22180SOL    HW268218   6.714   1.795   7.843 -0.7755  0.2127  0.3199
22181SOL     OW68219   3.439   2.823   0.203 -0.3089 -0.4750 -0.1276
22181SOL    HW168220   3.372   2.841   0.136  0.0201 -1.6210 -0.7757
22181SOL    HW268221   3.458   2.909   0.241 -1.2444  0.0440 -0.8021
22182SOL     OW68222   3.375   8.421   4.889 -0.1646 -0.1711  0.3102
22182SOL    HW168223   3.294   8.374   4.908 -0.2418  0.4184  1.5175
22182SOL    HW268224   3.419   8.429   4.974  0.8465  0.0793 -0.2258
22183SOL     OW68225   8.980   1.522   7.481 -0.3356 -0.0409  0.0662
22183SOL    HW168226   9.032   1.600   7.460  0.7227 -0.9328 -0.6855
22183SOL    HW268227   8.905   1.526   7.422 -0.0600  0.1764 -0.2695
22184SOL     OW68228   3.081   1.094   0.984  0.3969 -0.3765  0.0803
22184SOL    HW168229   3.148   1.036   1.021  1.3863  1.4453  1.2012
22184SOL    HW268230   3.047   1.142   1.059  0.2239  1.1506 -0.9650
22185SOL     OW68231   4.960   6.382   5.919  0.2071 -0.2401  0.3089
22185SOL    HW168232   4.995   6.299   5.952  1.7402  0.1832 -0.1920
22185SOL    HW268233   5.033   6.443   5.925 -1.4926  1.6476  2.6262
22186SOL     OW68234   3.455   0.256   5.637  0.3405 -0.0928  0.0708
22186SOL    HW168235   3.528   0.318   5.632  1.0835 -0.8341  1.1876
22186SOL    HW268236   3.498   0.170   5.644 -0.6606 -0.7916 -1.9072
22187SOL     OW68237   0.542   7.873   7.477 -0.1133 -0.4405  0.0342
22187SOL    HW168238   0.451   7.844   7.479 -0.4198  0.5075  0.1560
22187SOL    HW268239   0.545   7.940   7.408  0.6018 -0.8207 -0.3114
22188SOL     OW68240   6.696   4.158   7.703 -0.5056  0.8847 -0.0344
22188SOL    HW168241   6.717   4.197   7.788 -0.4780  0.8784 -0.0375
22188SOL    HW268242   6.781   4.148   7.659 -0.3423 -0.8680  0.6829
22189SOL     OW68243   6.342   6.139   0.829  0.1956  0.0308  0.0490
22189SOL    HW168244   6.340   6.050   0.792 -1.9593 -0.7860  2.0125
22189SOL    HW268245   6.251   6.160   0.847  0.6801  2.6814 -0.3604
22190SOL     OW68246   3.330   2.652   2.102 -0.1875 -0.0953  0.1123
22190SOL    HW168247   3.402   2.714   2.090 -0.0488 -0.4066 -0.6440
22190SOL    HW268248   3.301   2.667   2.192  1.1967 -0.3791  0.6124
22191SOL     OW68249   6.775   8.634   4.497 -0.5438  0.0054  0.8281
22191SOL    HW168250   6.787   8.577   4.421  0.4943  1.3963 -0.0765
22191SOL    HW268251   6.830   8.595   4.565  1.0649  0.5549 -0.1354
22192SOL     OW68252   4.381   3.435   8.037  0.2657  0.2203  0.2230
22192SOL    HW168253   4.309   3.470   7.985  0.6167  0.7934  0.1239
22192SOL    HW268254   4.339   3.400   8.116  0.0607  2.1923  1.0198
22193SOL     OW68255   0.100   4.835   8.525  0.1116  0.0921 -0.4529
22193SOL    HW168256   0.059   4.769   8.470 -0.5894  0.0686  0.0950
22193SOL    HW268257   0.044   4.840   8.603  1.9176 -0.9932  0.9647
22194SOL     OW68258   5.120   6.503   7.052  0.0671  0.6421  0.0729
22194SOL    HW168259   5.137   6.488   6.960 -2.2723 -0.5208 -0.2015
22194SOL    HW268260   5.201   6.542   7.086  0.8206  1.3865 -2.5137
22195SOL     OW68261   2.027   5.893   6.733  0.0538  0.1851  0.2149
22195SOL    HW168262   2.052   5.833   6.662  0.6336 -0.1442  0.6965
22195SOL    HW268263   2.088   5.873   6.804 -0.1435  0.9277  0.5963
22196SOL     OW68264   2.640   7.361   1.212 -0.0333  0.1411  0.2717
22196SOL    HW168265   2.733   7.358   1.189  0.3358 -0.7116  1.8282
22196SOL    HW268266   2.631   7.437   1.269 -0.1278 -0.2772  0.8186
22197SOL     OW68267   6.282   7.905   6.153  0.1410 -0.0857 -0.4027
22197SOL    HW168268   6.227   7.827   6.154 -1.4029  0.9385 -2.1278
22197SOL    HW268269   6.354   7.882   6.094  0.7883 -0.9071  0.6945
22198SOL     OW68270   1.242   0.732   3.618 -0.3701  0.0365  0.1841
22198SOL    HW168271   1.222   0.657   3.675  0.1112 -1.1749 -1.1814
22198SOL    HW268272   1.157   0.767   3.594 -0.7537 -2.1892 -1.8543
22199SOL     OW68273   4.856   6.410   1.473  0.1433 -0.1164 -0.2115
22199SOL    HW168274   4.936   6.420   1.526 -0.0750  1.6157 -0.1672
22199SOL    HW268275   4.867   6.326   1.430  1.3418 -0.5631  0.9017
22200SOL     OW68276   5.876   8.410   4.417 -0.5356 -0.1516 -0.3278
22200SOL    HW168277   5.912   8.487   4.461 -0.9902 -0.7027  1.0021
22200SOL    HW268278   5.952   8.352   4.403 -0.3249  0.1979 -0.6712
22201SOL     OW68279   1.404   1.019   8.080 -0.0290 -0.3975 -0.1479
22201SOL    HW168280   1.408   1.062   8.165  0.9081 -0.5451 -0.1169
22201SOL    HW268281   1.475   0.955   8.081  0.5992  0.2638 -1.3997
22202SOL     OW68282   6.104   3.364   4.828  0.4559 -0.9379  0.2474
22202SOL    HW168283   6.051   3.437   4.860  3.3368 -0.0131  3.2694
22202SOL    HW268284   6.160   3.404   4.760 -0.0245 -1.0323 -0.2072
22203SOL     OW68285   7.429   0.904   2.872 -0.0730 -0.6113 -0.6557
22203SOL    HW168286   7.520   0.909   2.842 -0.2653 -2.3325 -1.5892
22203SOL    HW268287   7.413   0.988   2.915  1.2459  0.6369 -2.5421
22204SOL     OW68288   8.540   6.459   4.626 -0.4609 -0.0754 -0.2491
22204SOL    HW168289   8.585   6.414   4.554  0.4878 -0.7664  0.7647
22204SOL    HW268290   8.580   6.546   4.628  0.6712 -0.6065  0.4924
22205SOL     OW68291   1.174   0.505   4.184 -0.3186 -0.0384  0.1779
22205SOL    HW168292   1.259   0.529   4.146  0.4392 -1.2834  1.0535
22205SOL    HW268293   1.119   0.581   4.168  1.2040  1.1209  0.3309
22206SOL     OW68294   6.289   8.397   5.992  0.3915  0.2509  0.0112
22206SOL    HW168295   6.350   8.329   5.965  1.0361 -0.2055  2.4879
22206SOL    HW268296   6.340   8.478   5.989  0.4280  0.2200 -0.2066
22207SOL     OW68297   1.029   1.513   6.790 -0.2893 -0.3179  0.0464
22207SOL    HW168298   0.988   1.431   6.818  0.0433 -0.2831  0.6485
22207SOL    HW268299   0.967   1.581   6.815 -0.1707 -0.3181  0.3405
22208SOL     OW68300   7.104   5.059   3.990 -0.2783  0.2969 -0.3650
22208SOL    HW168301   7.103   4.963   3.989 -2.5194  0.3026 -1.2727
22208SOL    HW268302   7.030   5.083   4.045  1.9656  1.5191  2.1776
22209SOL     OW68303   0.894   6.853   2.955  0.5866 -0.2362 -0.0899
22209SOL    HW168304   0.982   6.846   2.992  1.0951 -1.2106 -1.4414
22209SOL    HW268305   0.836   6.827   3.026  1.4405 -0.4934  0.5196
22210SOL     OW68306   9.102   7.507   8.443  0.6927  0.4315  0.3204
22210SOL    HW168307   9.032   7.563   8.409 -0.0378 -0.6912 -0.0361
22210SOL    HW268308   9.164   7.500   8.371 -0.6094 -1.5321 -0.6587
22211SOL     OW68309   3.427   3.163   3.556 -0.4199  0.8620  0.1480
22211SOL    HW168310   3.489   3.103   3.599  0.5219  1.4327 -0.3778
22211SOL    HW268311   3.386   3.211   3.628 -2.0498 -1.2164  0.6449
22212SOL     OW68312   4.286   2.733   2.058 -0.2907  0.6265 -0.3850
22212SOL    HW168313   4.376   2.703   2.070  0.2001  2.1702 -0.0128
22212SOL    HW268314   4.293   2.802   1.991 -1.1433  0.9390 -0.1502
22213SOL     OW68315   5.287   3.033   1.185  0.1415  0.3480  0.0022
22213SOL    HW168316   5.204   3.055   1.226 -0.4242 -0.5742 -0.6306
22213SOL    HW268317   5.338   3.113   1.190  0.0441  0.3150  2.3888
22214SOL     OW68318   4.391   7.653   0.656  0.0846 -0.5064 -0.3049
22214SOL    HW168319   4.418   7.736   0.696 -3.5185 -0.5300  2.4417
22214SOL    HW268320   4.446   7.587   0.699 -1.2348 -0.1299  2.0680
22215SOL     OW68321   7.722   0.363   2.125  0.5563  0.4748 -0.3159
22215SOL    HW168322   7.742   0.343   2.217  0.2501  0.8031 -0.1765
22215SOL    HW268323   7.669   0.289   2.095 -0.1175  0.8077  0.0412
22216SOL     OW68324   7.507   7.401   3.326  0.3457  0.2959  0.2427
22216SOL    HW168325   7.464   7.429   3.407  0.5389 -0.2455  0.5304
22216SOL    HW268326   7.444   7.421   3.257 -0.4468 -0.6689  0.6830
22217SOL     OW68327   7.708   5.405   9.000 -0.3306  0.2528 -0.5060
22217SOL    HW168328   7.728   5.482   9.054 -1.7376  0.0853  0.2692
22217SOL    HW268329   7.731   5.330   9.056 -0.2253  0.0956 -0.7576
22218SOL     OW68330   4.128   4.107   2.471 -0.0017  0.0370 -0.1223
22218SOL    HW168331   4.042   4.069   2.489 -0.1405  0.3818 -0.0511
22218SOL    HW268332   4.109   4.189   2.426  0.2721  0.3545  0.3356
22219SOL     OW68333   8.293   5.306   5.187  0.3260 -0.1985  0.0601
22219SOL    HW168334   8.308   5.361   5.110 -0.6225  0.8086  0.5803
22219SOL    HW268335   8.381   5.278   5.214  0.9577  2.0753  0.4948
22220SOL     OW68336   9.217   7.950   6.485  0.6677 -0.6100  0.4897
22220SOL    HW168337   9.277   8.019   6.458  1.9320 -1.5444  0.8431
22220SOL    HW268338   9.272   7.873   6.496 -0.6986 -1.6663  0.1798
22221SOL     OW68339   7.461   8.515   4.077 -0.0467  0.3472  0.4881
22221SOL    HW168340   7.416   8.493   4.158  0.4569  1.5990  1.1032
22221SOL    HW268341   7.392   8.550   4.020  0.0424  1.8462  1.2737
22222SOL     OW68342   0.065   2.756   6.126 -0.0191  0.1512  0.3544
22222SOL    HW168343   0.041   2.827   6.067 -0.6964 -0.5876 -0.2778
22222SOL    HW268344   0.129   2.794   6.186  0.3956  1.0043 -0.6290
22223SOL     OW68345   4.637   5.115   6.966 -0.5143  0.6045  0.1240
22223SOL    HW168346   4.591   5.079   7.042  0.5827 -3.0216 -0.8260
22223SOL    HW268347   4.706   5.169   7.004 -1.0849  0.2588  1.6926
22224SOL     OW68348   0.664   5.375   5.024 -0.2204 -0.0848  0.3138
22224SOL    HW168349   0.611   5.455   5.022 -2.4000 -1.4622  0.4212
22224SOL    HW268350   0.669   5.352   5.117  2.1859  1.0495  0.4770
22225SOL     OW68351   2.906   4.795   6.158  0.4383 -0.1825  0.1275
22225SOL    HW168352   2.971   4.724   6.156  1.5221  0.8093 -0.3572
22225SOL    HW268353   2.895   4.819   6.067 -0.1419  0.0831  0.2712
22226SOL     OW68354   3.160   6.406   8.669 -0.3688 -0.4364  0.1965
22226SOL    HW168355   3.255   6.397   8.669 -0.1964  1.2350  1.4002
22226SOL    HW268356   3.128   6.317   8.653  1.3776 -0.9848 -0.4248
22227SOL     OW68357   7.719   5.185   9.214 -0.3961 -0.3816 -0.3320
22227SOL    HW168358   7.671   5.137   9.281 -0.2763 -0.0029  0.0309
22227SOL    HW268359   7.810   5.182   9.243 -0.6061  1.5400  0.6103
22228SOL     OW68360   0.655   0.575   1.627 -0.5449  0.1916  0.2607
22228SOL    HW168361   0.641   0.624   1.708 -0.0727  0.6856  0.0497
22228SOL    HW268362   0.590   0.610   1.566 -0.6713  0.0645  0.3236
22229SOL     OW68363   2.306   4.058   3.609 -0.1464  0.1214  0.5109
22229SOL    HW168364   2.248   4.130   3.635  0.1134 -1.0041  4.6223
22229SOL    HW268365   2.247   3.990   3.578 -0.5796  1.0248 -0.7141
22230SOL     OW68366   2.394   3.298   8.026  0.2014 -0.3349  0.0897
22230SOL    HW168367   2.300   3.311   8.030  0.2159 -0.4076  0.6789
22230SOL    HW268368   2.430   3.357   8.092  0.3578 -2.3281  1.8488
22231SOL     OW68369   3.382   3.959   7.384 -0.1601 -0.3940  0.1213
22231SOL    HW168370   3.422   3.910   7.457  0.4580  0.4333  0.3421
22231SOL    HW268371   3.288   3.955   7.402 -0.0417 -0.5596  0.7326
22232SOL     OW68372   1.219   4.446   6.946 -0.1248  0.2088  0.1842
22232SOL    HW168373   1.250   4.362   6.980 -1.0432 -1.0081 -1.8921
22232SOL    HW268374   1.258   4.511   7.004  1.4677 -1.5885  1.1894
22233SOL     OW68375   3.716   4.491   1.302  0.0852  0.2599 -0.2487
22233SOL    HW168376   3.685   4.580   1.318 -1.0997 -0.4795  1.7655
22233SOL    HW268377   3.723   4.452   1.389  0.3202 -1.7100 -1.1230
22234SOL     OW68378   0.434   6.126   3.898  0.0568 -0.4155 -0.3475
22234SOL    HW168379   0.383   6.172   3.965 -3.3225 -0.0896 -2.9890
22234SOL    HW268380   0.471   6.050   3.944  1.0994  1.8408  2.7467
22235SOL     OW68381   4.708   9.256   2.138 -0.5409 -0.1704  0.4396
22235SOL    HW168382   4.739   9.167   2.154  1.0104  0.2392 -0.1177
22235SOL    HW268383   4.709   9.266   2.043 -1.2191  0.2587  0.4764
22236SOL     OW68384   2.100   9.196   0.599  0.4962  0.3175 -0.3644
22236SOL    HW168385   2.099   9.269   0.660  0.5917 -0.5856  0.7355
22236SOL    HW268386   2.189   9.197   0.562  1.4517 -0.9776  1.8029
22237SOL     OW68387   1.354   2.228   4.729  0.1546  0.4528 -0.2947
22237SOL    HW168388   1.277   2.173   4.743 -0.7302  1.2699 -1.8701
22237SOL    HW268389   1.341   2.303   4.787  0.2232  0.1683  0.0982
22238SOL     OW68390   2.006   5.932   9.014  0.1312  0.2030  0.1311
22238SOL    HW168391   2.036   6.023   9.006 -0.8639  0.6136  0.9187
22238SOL    HW268392   1.940   5.922   8.945  1.4944 -0.4699 -1.1051
22239SOL     OW68393   5.716   5.124   6.032  0.8357  0.1852  0.3617
22239SOL    HW168394   5.707   5.173   5.950  0.7305 -0.2184  0.1310
22239SOL    HW268395   5.797   5.156   6.071  0.9707  0.2578  0.0202
22240SOL     OW68396   6.619   8.348   4.610  0.5326  0.3248 -0.3190
22240SOL    HW168397   6.579   8.435   4.604 -1.0500 -0.2916  0.7076
22240SOL    HW268398   6.621   8.330   4.704 -1.5042 -1.7617 -0.6234
22241SOL     OW68399   2.153   0.074   8.140  0.2931 -0.3159  0.4176
22241SOL    HW168400   2.068   0.081   8.097  0.1284  0.6084  0.8944
22241SOL    HW268401   2.166  -0.021   8.151 -0.3013 -0.4957 -0.3765
22242SOL     OW68402   9.221   6.107   8.298 -0.4386  0.4592  0.4251
22242SOL    HW168403   9.258   6.034   8.348  0.5447  1.1983  0.8100
22242SOL    HW268404   9.175   6.066   8.225  0.6740 -0.5169  0.2594
22243SOL     OW68405   5.159   2.269   8.157  0.7436 -0.2471 -0.4187
22243SOL    HW168406   5.181   2.200   8.094  2.5851 -0.8331  0.8242
22243SOL    HW268407   5.064   2.280   8.149  0.9788 -0.1070 -3.4912
22244SOL     OW68408   1.732   0.032   2.374 -0.4732 -0.2225  0.3919
22244SOL    HW168409   1.680   0.098   2.329  0.1476 -1.2328 -1.9222
22244SOL    HW268410   1.673  -0.044   2.382 -1.3492  0.7183  3.4865
22245SOL     OW68411   3.813   5.471   6.676 -0.0630  0.1757 -0.0649
22245SOL    HW168412   3.855   5.427   6.602  0.2996  0.9544 -0.3271
22245SOL    HW268413   3.865   5.443   6.752 -0.5700 -0.7988 -0.0698
22246SOL     OW68414   0.714   5.050   4.892  0.2087 -0.1587 -0.2052
22246SOL    HW168415   0.747   4.969   4.931  0.2948  0.3079  0.7149
22246SOL    HW268416   0.787   5.083   4.840 -0.2934 -1.3847 -1.6975
22247SOL     OW68417   8.359   6.414   5.220 -0.4385  0.2437 -0.1479
22247SOL    HW168418   8.302   6.482   5.183 -0.8199 -0.0797 -0.1621
22247SOL    HW268419   8.445   6.432   5.184 -0.1025  1.9352  1.4051
22248SOL     OW68420   2.579   3.387   0.217  0.1544 -0.1436 -0.1896
22248SOL    HW168421   2.645   3.392   0.286  0.4920  1.6606 -0.6181
22248SOL    HW268422   2.532   3.470   0.222  0.4253  0.1777 -2.3405
22249SOL     OW68423   2.892   5.355   0.992  1.1321 -0.0246 -0.1922
22249SOL    HW168424   2.815   5.347   0.935  1.3669  0.6193 -0.6150
22249SOL    HW268425   2.956   5.403   0.939  2.1165 -1.2282 -0.1193
22250SOL     OW68426   2.015   8.844   3.863 -0.3491 -0.4865 -0.4895
22250SOL    HW168427   2.054   8.761   3.889 -2.2862 -1.2198  0.1586
22250SOL    HW268428   2.013   8.896   3.944  1.7186  0.5780 -1.0842
22251SOL     OW68429   0.370   8.848   6.800  0.1583 -0.5143  0.3034
22251SOL    HW168430   0.316   8.924   6.818 -0.7322 -0.7509 -1.2750
22251SOL    HW268431   0.451   8.884   6.762 -0.9391 -0.4087 -2.0319
22252SOL     OW68432   5.685   3.066   7.662  0.2830  0.7368 -0.1558
22252SOL    HW168433   5.681   3.127   7.588 -0.5245  2.6798  1.4413
22252SOL    HW268434   5.767   3.089   7.707  0.4824 -0.0474 -0.1109
22253SOL     OW68435   2.703   2.860   1.159 -0.8138 -0.0380  0.1644
22253SOL    HW168436   2.629   2.907   1.121 -0.3578  2.3340  2.0403
22253SOL    HW268437   2.664   2.811   1.232 -0.9504 -0.8980 -0.4840
22254SOL     OW68438   8.604   6.479   0.156 -0.6587  0.1079  0.4039
22254SOL    HW168439   8.548   6.489   0.233 -0.2937 -0.6196  0.7676
22254SOL    HW268440   8.587   6.390   0.125  0.8046 -0.3576  0.9218
22255SOL     OW68441   0.600   0.682   9.032  0.3493 -0.3328 -0.0100
22255SOL    HW168442   0.618   0.775   9.042 -0.2963 -0.0843 -1.1423
22255SOL    HW268443   0.604   0.647   9.121 -0.0474  0.8869  0.4886
22256SOL     OW68444   5.832   7.706   2.520  0.1235 -0.1347 -0.1228
22256SOL    HW168445   5.833   7.672   2.431  1.8585  2.2083 -1.0515
22256SOL    HW268446   5.761   7.769   2.522  0.4411  0.2234 -0.0138
22257SOL     OW68447   0.477   4.970   4.561 -0.1254 -0.5386 -0.2551
22257SOL    HW168448   0.507   4.884   4.533  0.9787  0.1816 -1.3328
22257SOL    HW268449   0.388   4.977   4.527 -0.1547 -1.1659 -0.3206
22258SOL     OW68450   3.483   8.366   3.950  0.1889 -0.2664  0.4715
22258SOL    HW168451   3.455   8.452   3.979  0.1794 -0.1072  0.0019
22258SOL    HW268452   3.475   8.310   4.027 -0.8569 -0.0873  0.5071
22259SOL     OW68453   8.886   7.133   0.779 -0.0500 -0.1879 -0.0634
22259SOL    HW168454   8.839   7.160   0.858 -0.7575 -0.9569 -0.2166
22259SOL    HW268455   8.915   7.044   0.797  1.0247  0.1433 -0.1242
22260SOL     OW68456   4.853   0.484   4.245  0.8062  0.1944  0.4853
22260SOL    HW168457   4.859   0.554   4.310 -0.4690  0.6610  0.1179
22260SOL    HW268458   4.863   0.529   4.161  0.4274 -0.1299  0.2662
22261SOL     OW68459   1.090   5.836   4.196  0.4513 -0.1148  0.0085
22261SOL    HW168460   1.029   5.897   4.238  0.3781 -0.6940  0.7611
22261SOL    HW268461   1.095   5.866   4.105 -0.1398  0.5721  0.1944
22262SOL     OW68462   2.620   0.535   5.749  0.6453 -0.8486 -0.2201
22262SOL    HW168463   2.590   0.581   5.671 -0.0965 -0.6015  0.2050
22262SOL    HW268464   2.565   0.456   5.752  0.5440 -0.7652  0.1495
22263SOL     OW68465   3.029   0.338   5.800 -0.2770 -0.6361  0.6534
22263SOL    HW168466   2.989   0.275   5.860 -2.8786 -0.3392 -0.7355
22263SOL    HW268467   2.970   0.413   5.799 -1.3981 -1.4478 -3.8007
22264SOL     OW68468   1.344   7.806   7.626 -0.1603 -0.0757  0.1929
22264SOL    HW168469   1.405   7.743   7.663 -0.7264  0.0120  1.2789
22264SOL    HW268470   1.313   7.765   7.545  1.4005 -0.0792 -0.4134
22265SOL     OW68471   7.269   5.710   0.287  0.0980 -0.5541 -0.4665
22265SOL    HW168472   7.190   5.747   0.326 -0.7651 -2.5922 -0.2241
22265SOL    HW268473   7.240   5.629   0.246  1.8678 -0.7818 -1.3265
22266SOL     OW68474   8.642   2.058   8.266  0.1160 -0.0878 -0.1465
22266SOL    HW168475   8.678   2.031   8.182  1.0771 -3.0217  1.1529
22266SOL    HW268476   8.549   2.073   8.249  0.3770 -0.2424 -1.7878
22267SOL     OW68477   7.396   7.435   9.220 -0.1714 -0.4100  0.0356
22267SOL    HW168478   7.465   7.496   9.195  0.1889 -0.8767 -0.1246
22267SOL    HW268479   7.404   7.363   9.158 -0.0494 -1.0152  0.7374
22268SOL     OW68480   4.689   9.054   0.527  0.0251  0.1368 -0.0281
22268SOL    HW168481   4.705   9.090   0.440  0.5533 -0.1051 -0.0341
22268SOL    HW268482   4.596   9.032   0.528  0.3761 -1.4072 -1.1053
22269SOL     OW68483   0.574   2.376   8.273  0.0975 -0.8273 -0.2739
22269SOL    HW168484   0.599   2.334   8.190  1.5341 -1.1765  0.3098
22269SOL    HW268485   0.529   2.307   8.322 -5.2537  0.7075 -2.6551
22270SOL     OW68486   8.061   4.912   1.078 -0.1085  0.2503 -0.5804
22270SOL    HW168487   8.044   4.828   1.121 -1.5335  0.8292 -0.0087
22270SOL    HW268488   8.157   4.918   1.076  0.0433 -1.7240 -1.2961
22271SOL     OW68489   1.260   3.270   1.150  0.0195  0.4777  0.4083
22271SOL    HW168490   1.179   3.258   1.200 -1.0015  0.0680 -1.2971
22271SOL    HW268491   1.328   3.278   1.217 -1.1178 -1.3760  1.8621
22272SOL     OW68492   3.398   1.765   0.126  0.1804 -0.2365 -0.2510
22272SOL    HW168493   3.360   1.843   0.087  0.9116  0.0405 -0.3994
22272SOL    HW268494   3.428   1.793   0.212  0.0960 -0.4471 -0.1514
22273SOL     OW68495   5.499   5.570   8.582  0.0890 -0.0811  0.3226
22273SOL    HW168496   5.424   5.614   8.622 -0.5620  1.8784 -2.8739
22273SOL    HW268497   5.472   5.478   8.576 -1.3093  0.2775  0.8602
22274SOL     OW68498   1.945   8.976   5.246  0.1482 -0.1490 -0.1049
22274SOL    HW168499   1.863   8.926   5.245  0.1640 -0.1862  0.3314
22274SOL    HW268500   1.917   9.067   5.240  0.0640 -0.1514  0.2293
22275SOL     OW68501   8.986   1.390   5.349 -0.7212  0.2514 -0.5173
22275SOL    HW168502   8.974   1.449   5.274 -0.1086 -0.0297 -0.8463
22275SOL    HW268503   9.026   1.311   5.310  0.0490  0.2952  0.1803
22276SOL     OW68504   6.438   2.294   3.148  0.3214 -0.2833 -0.6764
22276SOL    HW168505   6.454   2.282   3.054  0.4218 -0.2430 -0.6646
22276SOL    HW268506   6.380   2.370   3.154  1.1207  0.3274 -0.6469
22277SOL     OW68507   3.648   1.094   8.979  0.3401  0.5119 -0.0312
22277SOL    HW168508   3.555   1.089   8.961 -0.1580  0.9063  2.2834
22277SOL    HW268509   3.668   1.188   8.975  0.6894  0.4125 -0.7218
22278SOL     OW68510   6.205   7.920   1.744 -0.4044 -0.4659 -0.3136
22278SOL    HW168511   6.236   7.920   1.835  0.9791 -1.0427 -0.7714
22278SOL    HW268512   6.259   7.986   1.700 -1.0539 -0.2019 -0.7286
22279SOL     OW68513   6.872   6.358   2.655 -0.8044 -0.2509  0.2022
22279SOL    HW168514   6.786   6.393   2.631 -0.2644  1.1364  0.2182
22279SOL    HW268515   6.853   6.283   2.710 -2.0179 -0.6162 -0.6843
22280SOL     OW68516   6.078   2.418   4.285  0.5501  0.2427  1.4004
22280SOL    HW168517   6.131   2.446   4.360  0.2810 -0.3834  1.8277
22280SOL    HW268518   6.012   2.487   4.277  0.7501  0.4549  1.5678
22281SOL     OW68519   9.023   8.814   7.070 -0.7527 -0.3556  0.2400
22281SOL    HW168520   9.045   8.826   6.977 -1.7625  0.3320  0.0760
22281SOL    HW268521   9.107   8.817   7.115 -0.3307  0.2274 -0.5644
22282SOL     OW68522   3.430   7.728   0.630  0.0169 -0.0010 -0.2893
22282SOL    HW168523   3.513   7.685   0.609  0.3006  0.4969 -0.1956
22282SOL    HW268524   3.453   7.791   0.697 -0.3928  0.3311 -0.4646
22283SOL     OW68525   7.929   7.324   6.376  0.3600 -0.3312 -0.1409
22283SOL    HW168526   7.970   7.245   6.341  0.6134 -0.9093  1.4253
22283SOL    HW268527   7.876   7.293   6.450 -0.9633  0.7301 -0.6224
22284SOL     OW68528   7.849   1.327   1.951 -0.1362 -0.5906  0.1583
22284SOL    HW168529   7.759   1.328   1.983 -0.2176 -1.7832 -0.0074
22284SOL    HW268530   7.901   1.297   2.025  0.0074 -0.7869 -0.0216
22285SOL     OW68531   6.374   3.621   2.039  0.1016 -0.7075 -0.1147
22285SOL    HW168532   6.404   3.546   2.091 -2.1210 -0.6448  1.3303
22285SOL    HW268533   6.289   3.642   2.076  0.5013  2.2737 -0.8090
22286SOL     OW68534   8.332   3.024   7.713 -0.4611  0.9701  0.4113
22286SOL    HW168535   8.327   3.114   7.746  0.0406  0.5528  1.6581
22286SOL    HW268536   8.247   2.985   7.737  0.0449  0.5566  1.5600
22287SOL     OW68537   0.602   4.030   3.800 -0.1032 -0.0305  0.0471
22287SOL    HW168538   0.688   3.990   3.797 -0.1048 -0.1472  1.0887
22287SOL    HW268539   0.548   3.977   3.741  0.3018 -0.5415  0.1364
22288SOL     OW68540   3.932   5.829   3.403 -0.1359  0.2793 -0.3646
22288SOL    HW168541   3.892   5.821   3.490  0.2678  1.1808 -0.0903
22288SOL    HW268542   3.988   5.751   3.395  0.1245  0.3893  0.3464
22289SOL     OW68543   4.681   6.611   4.395  0.7010 -0.2806  0.2082
22289SOL    HW168544   4.667   6.658   4.477 -2.9943 -0.5540 -0.1705
22289SOL    HW268545   4.720   6.528   4.422  0.2217 -0.0646  1.6363
22290SOL     OW68546   3.131   6.221   4.611  0.9386  0.7522 -0.3062
22290SOL    HW168547   3.060   6.161   4.636  0.6036  1.9830  1.8099
22290SOL    HW268548   3.137   6.212   4.516 -2.2192  0.7784 -0.5734
22291SOL     OW68549   4.100   2.625   8.398  0.2265 -0.2932 -0.0509
22291SOL    HW168550   4.047   2.597   8.323  0.7255  0.5133 -0.7184
22291SOL    HW268551   4.164   2.555   8.410  0.4680 -0.1893 -0.7086
22292SOL     OW68552   3.284   0.158   1.680  0.6324  0.5464 -0.2524
22292SOL    HW168553   3.194   0.160   1.712  0.7081  3.2025 -0.0594
22292SOL    HW268554   3.330   0.099   1.740 -0.7446 -0.0556  0.2359
22293SOL     OW68555   0.270   2.613   8.093  0.1147 -0.5224 -0.1008
22293SOL    HW168556   0.255   2.575   8.007 -1.0033  1.7998 -0.9619
22293SOL    HW268557   0.185   2.648   8.120  1.0453  1.1492  0.7520
22294SOL     OW68558   3.435   7.903   4.012 -0.3671  0.2298 -0.2700
22294SOL    HW168559   3.341   7.916   3.996 -0.5506 -0.8121 -0.1089
22294SOL    HW268560   3.466   7.858   3.934 -0.5201 -1.6398  0.7198
22295SOL     OW68561   7.509   2.059   8.316  0.4249  0.1451 -0.3990
22295SOL    HW168562   7.535   2.104   8.236  0.0387  1.1702  0.0488
22295SOL    HW268563   7.546   1.971   8.307  2.5513  1.0276 -0.5429
22296SOL     OW68564   5.961   9.116   1.865 -0.4485 -0.6003  0.0503
22296SOL    HW168565   5.871   9.130   1.835 -0.9322 -0.6661  1.3965
22296SOL    HW268566   5.996   9.047   1.808 -1.0618 -0.1762 -0.8415
22297SOL     OW68567   3.089   6.254   1.365  0.7118 -0.0150  0.1402
22297SOL    HW168568   3.078   6.175   1.312 -2.1755 -0.6709  1.6330
22297SOL    HW268569   3.106   6.324   1.302 -1.3743 -1.0181 -1.5656
22298SOL     OW68570   2.170   0.083   7.471 -0.1293 -0.2774  0.5914
22298SOL    HW168571   2.133   0.170   7.457  1.0200 -0.0044 -0.9293
22298SOL    HW268572   2.099   0.032   7.510 -1.5500  0.7078 -0.6337
22299SOL     OW68573   5.514   8.962   1.164 -0.0481  0.3530 -0.3176
22299SOL    HW168574   5.583   9.025   1.185  0.8097 -1.1861  1.7432
22299SOL    HW268575   5.440   8.987   1.219  0.4065 -0.5706  0.7548
22300SOL     OW68576   2.271   5.655   2.848 -0.1752  0.0080  0.7683
22300SOL    HW168577   2.341   5.616   2.901  0.9194  0.6281 -0.1971
22300SOL    HW268578   2.303   5.743   2.828 -0.8116 -0.0305 -0.4523
22301SOL     OW68579   7.836   3.870   7.562  0.3535 -0.6732  0.0613
22301SOL    HW168580   7.744   3.892   7.554  0.0030 -2.4256 -1.0289
22301SOL    HW268581   7.856   3.881   7.655 -0.9619 -0.3881  0.3133
22302SOL     OW68582   9.142   7.068   3.094  0.2688  0.0950  0.6639
22302SOL    HW168583   9.235   7.062   3.115  0.3058 -0.1434  0.4287
22302SOL    HW268584   9.129   7.004   3.024 -0.2930 -0.6527  1.4424
22303SOL     OW68585   6.474   4.148   7.050 -0.6709 -0.5768  0.3990
22303SOL    HW168586   6.460   4.235   7.012  1.6023 -0.5990 -0.5205
22303SOL    HW268587   6.535   4.163   7.122  1.0465 -1.6314 -0.8174
22304SOL     OW68588   8.142   4.333   9.052  0.2889 -0.5344  0.9435
22304SOL    HW168589   8.126   4.424   9.027  0.8415 -0.5950  0.3492
22304SOL    HW268590   8.055   4.293   9.059  0.1001 -0.3722 -0.3521
22305SOL     OW68591   2.056   5.535   2.739 -0.5352  0.3533 -0.4806
22305SOL    HW168592   2.132   5.577   2.780  0.8798 -2.3987 -0.1649
22305SOL    HW268593   2.051   5.574   2.652 -0.8631  3.0385  0.6827
22306SOL     OW68594   1.629   2.290   7.418  0.3495  0.6482  0.6811
22306SOL    HW168595   1.534   2.281   7.413  0.4124 -0.2613  1.1703
22306SOL    HW268596   1.656   2.301   7.327 -0.0414 -0.9361  0.3592
22307SOL     OW68597   2.765   9.201   2.496  0.0582 -0.4369 -0.4870
22307SOL    HW168598   2.671   9.187   2.484 -0.0562 -0.6941  0.6683
22307SOL    HW268599   2.780   9.290   2.465 -0.7337 -0.0627  0.2033
22308SOL     OW68600   4.242   2.377   5.896  0.0612 -0.4396 -0.4284
22308SOL    HW168601   4.174   2.320   5.859 -0.6751  0.2721 -0.1881
22308SOL    HW268602   4.200   2.463   5.903  1.9393  0.7392 -3.0994
22309SOL     OW68603   2.750   1.017   5.938 -0.1495  0.2038  0.3343
22309SOL    HW168604   2.841   1.032   5.912  0.7862 -2.6235  1.7831
22309SOL    HW268605   2.699   1.072   5.879  2.4450  1.0980 -1.1569
22310SOL     OW68606   6.659   5.735   1.361  0.6670 -0.2705  0.2138
22310SOL    HW168607   6.677   5.827   1.379 -0.8006  0.4622 -1.8733
22310SOL    HW268608   6.672   5.726   1.266 -1.0287 -1.7692  0.0927
22311SOL     OW68609   5.374   7.925   4.469  0.3182 -0.5098  0.3252
22311SOL    HW168610   5.311   7.857   4.495  0.4105 -0.9684 -0.6414
22311SOL    HW268611   5.453   7.877   4.448  0.1345 -0.1766 -1.1619
22312SOL     OW68612   5.160   3.071   1.531 -0.1305 -0.7006 -0.2048
22312SOL    HW168613   5.255   3.076   1.536 -0.0111 -1.9074 -0.9627
22312SOL    HW268614   5.137   3.125   1.455 -0.2046  0.9628  0.9834
22313SOL     OW68615   1.005   3.237   5.896  0.1115 -0.0062 -0.1359
22313SOL    HW168616   1.056   3.156   5.886 -0.6032 -0.6259  1.0893
22313SOL    HW268617   1.070   3.304   5.916  0.6557 -0.3972 -0.5933
22314SOL     OW68618   8.628   1.071   6.315 -0.2831 -0.0690  0.4768
22314SOL    HW168619   8.711   1.046   6.272  0.0579  1.2733  0.3237
22314SOL    HW268620   8.561   1.024   6.265  0.3083 -0.4362  0.0075
22315SOL     OW68621   8.647   2.709   0.169  0.2718 -1.0619  0.1885
22315SOL    HW168622   8.617   2.622   0.198 -0.5592 -0.4330  1.2266
22315SOL    HW268623   8.740   2.696   0.149 -0.1142 -2.4613 -0.7751
22316SOL     OW68624   3.318   4.908   4.184  0.0151  0.3436  0.3656
22316SOL    HW168625   3.356   4.871   4.263  0.3708 -0.6860 -0.2816
22316SOL    HW268626   3.352   4.998   4.182 -0.9632  0.7592  2.0023
22317SOL     OW68627   5.542   6.196   4.157 -0.0926 -0.1756  0.3561
22317SOL    HW168628   5.535   6.171   4.249  1.1855  0.7913  0.7448
22317SOL    HW268629   5.528   6.291   4.158 -2.2549 -0.4482 -0.7410
22318SOL     OW68630   0.704   8.730   0.489  0.2012  0.1775 -0.0817
22318SOL    HW168631   0.647   8.654   0.501  1.3958 -0.9223 -1.2154
22318SOL    HW268632   0.647   8.805   0.504 -1.5385 -0.8956 -1.1320
22319SOL     OW68633   9.087   4.190   3.853 -0.1882  0.1934  0.3991
22319SOL    HW168634   9.055   4.270   3.812 -0.2609  0.7887  1.6101
22319SOL    HW268635   9.008   4.136   3.865 -0.3110  0.4341  0.6696
22320SOL     OW68636   3.266   5.288   8.645 -0.2457 -0.4310 -0.3973
22320SOL    HW168637   3.336   5.229   8.617 -0.5574 -0.3157 -1.4432
22320SOL    HW268638   3.199   5.279   8.577 -0.3080  1.0873 -0.5426
22321SOL     OW68639   1.315   5.383   5.422 -0.0488 -0.0872  0.3540
22321SOL    HW168640   1.388   5.361   5.364 -0.6442  0.3676 -0.5787
22321SOL    HW268641   1.309   5.478   5.417  0.0079 -0.0348  1.3009
22322SOL     OW68642   3.521   1.182   7.452  0.1184 -0.8079 -0.4101
22322SOL    HW168643   3.575   1.104   7.436 -0.1514 -0.6446 -2.2262
22322SOL    HW268644   3.553   1.217   7.535  2.3244 -1.1327 -1.1023
22323SOL     OW68645   3.212   7.142   7.970  0.2295 -0.0019  0.0123
22323SOL    HW168646   3.196   7.051   7.993 -3.0302  0.5588  0.2825
22323SOL    HW268647   3.215   7.142   7.874 -2.3106 -0.1158 -0.1249
22324SOL     OW68648   7.264   0.428   6.185  0.5046  0.5702 -0.0343
22324SOL    HW168649   7.346   0.394   6.150  0.9841  1.6614  0.0351
22324SOL    HW268650   7.273   0.523   6.183 -0.6353  0.7020  0.2601
22325SOL     OW68651   3.524   6.414   3.993  0.2377 -0.4982 -0.2437
22325SOL    HW168652   3.570   6.451   3.918 -0.7992  0.1015 -0.5840
22325SOL    HW268653   3.461   6.481   4.019  0.5888 -0.6963  1.1678
22326SOL     OW68654   2.879   3.898   4.766  0.6327 -0.1730  0.0303
22326SOL    HW168655   2.946   3.838   4.799 -1.4408 -2.0463  0.9805
22326SOL    HW268656   2.907   3.985   4.797  2.0850 -1.0532  1.2501
22327SOL     OW68657   6.745   4.662   3.775 -0.8895  0.0097 -0.1785
22327SOL    HW168658   6.791   4.733   3.819  0.0125 -0.7347  0.1016
22327SOL    HW268659   6.656   4.666   3.809 -0.1366 -0.7551  2.0027
22328SOL     OW68660   3.731   1.130   2.526 -0.2731 -0.0754  0.3599
22328SOL    HW168661   3.637   1.119   2.544 -0.2612 -0.2863  0.2847
22328SOL    HW268662   3.763   1.042   2.509  0.0617 -0.0767  0.9761
22329SOL     OW68663   4.506   6.890   0.449  0.1898  0.3326  0.4632
22329SOL    HW168664   4.494   6.852   0.536  2.4037 -1.1131  0.1981
22329SOL    HW268665   4.557   6.824   0.402  0.7257  1.9535 -1.2886
22330SOL     OW68666   3.039   6.913   5.891 -0.4864  0.1750 -0.4193
22330SOL    HW168667   2.966   6.883   5.946  0.3531 -0.2009  0.4921
22330SOL    HW268668   3.036   6.856   5.814 -2.1047  1.1662 -1.1143
22331SOL     OW68669   7.503   6.822   5.570  0.3679 -0.0468 -0.6141
22331SOL    HW168670   7.558   6.784   5.502  0.7942  0.2761 -0.4510
22331SOL    HW268671   7.430   6.861   5.522  1.8138  2.1932 -1.1026
22332SOL     OW68672   2.248   0.972   0.693 -0.1849  0.0908  0.3111
22332SOL    HW168673   2.155   0.974   0.717 -0.5404 -2.3875 -0.6559
22332SOL    HW268674   2.286   1.050   0.735 -2.1423 -0.3327  3.0151
22333SOL     OW68675   3.280   5.180   4.418 -0.0300 -0.2292  0.1685
22333SOL    HW168676   3.254   5.268   4.445 -0.8379 -0.3753 -0.1078
22333SOL    HW268677   3.287   5.185   4.323  0.6084 -0.2872  0.2123
22334SOL     OW68678   6.338   0.731   4.570 -0.3301  0.0666 -0.4097
22334SOL    HW168679   6.299   0.693   4.492 -0.7619  0.8490 -0.5760
22334SOL    HW268680   6.348   0.824   4.549 -0.7818  0.3451  0.5931
22335SOL     OW68681   8.156   2.205   9.090  0.5863 -0.2946  0.0911
22335SOL    HW168682   8.234   2.166   9.051  1.2955 -0.0161  1.2024
22335SOL    HW268683   8.090   2.202   9.021  1.7985  0.1352 -1.1051
22336SOL     OW68684   2.358   6.596   7.090  0.4339 -0.6392 -0.1923
22336SOL    HW168685   2.445   6.561   7.103  0.7166  0.6981  1.6859
22336SOL    HW268686   2.336   6.638   7.173 -0.6172  1.9888 -1.7383
22337SOL     OW68687   5.626   8.090   5.100 -0.4430  0.3042 -0.3147
22337SOL    HW168688   5.701   8.137   5.136  3.0483 -3.8800 -1.6692
22337SOL    HW268689   5.627   8.112   5.007  1.2425 -2.2481 -0.9687
22338SOL     OW68690   0.954   7.050   2.543  0.1344 -0.1027 -0.6244
22338SOL    HW168691   0.942   6.955   2.533  0.4663 -0.5723  2.8069
22338SOL    HW268692   1.048   7.062   2.539  0.0676  0.1623 -1.5030
22339SOL     OW68693   8.277   7.467   0.855  0.1469 -0.1910 -0.1764
22339SOL    HW168694   8.278   7.558   0.824 -1.7641  0.4901  1.6463
22339SOL    HW268695   8.369   7.440   0.853  1.2425  3.0096  2.6779
22340SOL     OW68696   0.643   8.723   7.761 -0.0302  0.5034  0.7529
22340SOL    HW168697   0.637   8.644   7.706  0.7278  0.9897 -0.0612
22340SOL    HW268698   0.737   8.732   7.778 -0.1285  1.1475  0.9524
22341SOL     OW68699   4.270   8.937   3.908  0.2385 -0.1104  0.1749
22341SOL    HW168700   4.331   9.001   3.872  1.0207 -1.5122 -1.0477
22341SOL    HW268701   4.276   8.949   4.002 -1.6607  3.4700 -0.0438
22342SOL     OW68702   5.689   8.402   4.770  0.0700  0.4576 -0.9290
22342SOL    HW168703   5.661   8.445   4.851  0.7966  0.8683 -0.8908
22342SOL    HW268704   5.784   8.407   4.772  0.1084  0.0796 -1.6037
22343SOL     OW68705   2.451   8.204   9.221  0.3254 -0.4142  0.4069
22343SOL    HW168706   2.511   8.265   9.178  2.8046 -2.2169  1.1910
22343SOL    HW268707   2.505   8.128   9.243 -1.8120 -1.3274  2.8499
22344SOL     OW68708   5.758   2.176   1.311  0.1480  0.0379 -0.0821
22344SOL    HW168709   5.691   2.210   1.252  0.6618 -0.0729 -0.7369
22344SOL    HW268710   5.793   2.253   1.355 -0.0888  0.1432 -0.0777
22345SOL     OW68711   5.511   0.012   2.947 -0.1080  0.6059  0.0067
22345SOL    HW168712   5.527  -0.045   2.872 -0.1589  3.0443 -1.9155
22345SOL    HW268713   5.557  -0.031   3.020 -0.8550 -2.2965 -1.1604
22346SOL     OW68714   1.888   0.981   2.260  0.4585 -0.3826 -0.3857
22346SOL    HW168715   1.895   1.075   2.274  0.1717 -0.4736  0.3926
22346SOL    HW268716   1.874   0.971   2.166  3.5777  0.1794 -0.9504
22347SOL     OW68717   5.828   8.028   2.940 -0.2962 -0.0140  0.0695
22347SOL    HW168718   5.838   8.065   2.853 -0.1389  0.5548  0.3289
22347SOL    HW268719   5.878   7.947   2.938 -0.8926 -0.3690 -0.5918
22348SOL     OW68720   7.096   0.924   0.007  0.1831 -0.5416 -0.2198
22348SOL    HW168721   7.158   0.979  -0.040  0.2155  0.7797  1.3159
22348SOL    HW268722   7.150   0.857   0.049  0.2899 -0.8807 -0.8785
22349SOL     OW68723   4.603   5.300   7.653 -0.3666 -0.8179 -1.1532
22349SOL    HW168724   4.670   5.252   7.603 -1.8625 -0.6348 -3.4306
22349SOL    HW268725   4.544   5.335   7.586 -1.6311  0.6970  0.7069
22350SOL     OW68726   0.992   3.136   2.907  0.4411 -0.1627  0.2322
22350SOL    HW168727   0.907   3.156   2.945  0.5494 -0.3911  0.6037
22350SOL    HW268728   1.049   3.121   2.983  0.6347 -0.7428 -0.0208
22351SOL     OW68729   4.612   1.135   2.938 -0.3937 -0.1059  0.4628
22351SOL    HW168730   4.680   1.164   2.999  0.7049 -0.5121 -0.5482
22351SOL    HW268731   4.533   1.125   2.992  0.4230  0.0943  1.6989
22352SOL     OW68732   5.821   4.029   8.222 -0.3050 -0.2789 -0.0367
22352SOL    HW168733   5.744   3.972   8.219  1.0252 -2.1481  0.2006
22352SOL    HW268734   5.826   4.059   8.313 -1.3308  0.6986 -0.2911
22353SOL     OW68735   7.979   0.050   2.982 -0.8715 -0.1737 -0.5629
22353SOL    HW168736   8.064   0.007   2.980 -0.6116  0.2272  1.0540
22353SOL    HW268737   7.976   0.101   2.901  0.1865 -0.6258 -0.8956
22354SOL     OW68738   4.743   5.433   8.892 -0.2149  0.1885  0.1477
22354SOL    HW168739   4.701   5.488   8.825 -1.4165 -0.5306  0.2786
22354SOL    HW268740   4.671   5.378   8.925  0.9683 -1.5246 -0.0637
22355SOL     OW68741   6.108   7.103   4.613 -0.4049  0.2028  0.4580
22355SOL    HW168742   6.108   7.092   4.708 -0.7445  0.3387  0.4744
22355SOL    HW268743   6.018   7.129   4.592 -0.1105  1.0170  0.1966
22356SOL     OW68744   8.303   4.150   7.392 -0.2466 -0.1602 -0.6743
22356SOL    HW168745   8.224   4.199   7.370 -1.8082 -3.5758 -3.1572
22356SOL    HW268746   8.282   4.106   7.475 -0.0981  0.6356 -0.2067
22357SOL     OW68747   5.280   8.525   6.701  0.2196 -0.0306 -0.4095
22357SOL    HW168748   5.195   8.534   6.658  1.5416  2.2020 -2.7237
22357SOL    HW268749   5.299   8.614   6.733  1.0994 -0.8094  1.2823
22358SOL     OW68750   7.701   6.357   4.131 -0.6378  0.6137  0.5259
22358SOL    HW168751   7.653   6.350   4.214  1.0212  0.5755  1.5051
22358SOL    HW268752   7.698   6.450   4.110 -0.0380  0.8082  1.2649
22359SOL     OW68753   5.647   3.923   2.068 -0.0740  0.0842 -0.1098
22359SOL    HW168754   5.727   3.920   2.015 -0.2256  0.9390 -0.3865
22359SOL    HW268755   5.660   3.998   2.126 -0.4060 -0.1590  0.2818
22360SOL     OW68756   8.164   4.772   7.805  0.4453  0.4430  0.3356
22360SOL    HW168757   8.139   4.747   7.716 -1.4578  0.9276  0.7086
22360SOL    HW268758   8.207   4.856   7.795 -0.6680  0.9834 -0.0428
22361SOL     OW68759   6.703   5.364   0.200 -0.1365  0.1859  0.2538
22361SOL    HW168760   6.652   5.425   0.147 -1.3095 -1.3893 -0.5012
22361SOL    HW268761   6.754   5.419   0.259 -2.3919  1.8499  0.7217
22362SOL     OW68762   7.545   8.629   1.825 -0.0421 -0.0631 -0.6747
22362SOL    HW168763   7.619   8.569   1.827  0.3919  0.4504 -0.9412
22362SOL    HW268764   7.581   8.709   1.786 -0.4309  0.5995  0.3113
22363SOL     OW68765   4.143   4.289   0.277 -0.1096 -0.4883 -0.2225
22363SOL    HW168766   4.144   4.201   0.240  2.0487 -0.8326  0.5395
22363SOL    HW268767   4.136   4.275   0.371  0.4760  0.1249 -0.0827
22364SOL     OW68768   4.246   0.168   4.332 -0.3219 -0.4708  0.1241
22364SOL    HW168769   4.285   0.185   4.247  1.3333 -0.6502  0.8297
22364SOL    HW268770   4.170   0.113   4.313  1.6697 -2.9085 -0.9976
22365SOL     OW68771   5.892   1.859   5.320  0.5344  0.0999 -0.3476
22365SOL    HW168772   5.968   1.849   5.262  0.4298  0.0689 -0.4803
22365SOL    HW268773   5.848   1.937   5.288  1.3317  0.9836  0.6689
22366SOL     OW68774   2.377   8.726   1.110  0.0636  0.1027 -0.6841
22366SOL    HW168775   2.393   8.697   1.021  1.4639  1.5749 -0.9424
22366SOL    HW268776   2.464   8.726   1.151 -0.4914 -0.0641  0.5396
22367SOL     OW68777   3.047   5.338   0.009 -0.5055  0.2582  0.2307
22367SOL    HW168778   2.953   5.330   0.019 -0.4861  0.3864  0.5336
22367SOL    HW268779   3.083   5.294   0.086 -0.2180 -2.7892 -1.5589
22368SOL     OW68780   5.757   8.841   5.162  0.1155 -0.5164  0.8371
22368SOL    HW168781   5.807   8.922   5.168  2.6577 -1.9685  0.1098
22368SOL    HW268782   5.736   8.819   5.253 -0.5354  0.8861  1.0391
22369SOL     OW68783   4.986   6.872   6.713  0.3081 -0.0042  0.0596
22369SOL    HW168784   4.979   6.931   6.638 -0.6221 -0.3755 -0.1590
22369SOL    HW268785   4.948   6.789   6.682  0.3273 -0.2921  0.7974
22370SOL     OW68786   0.658   0.311   0.588 -0.2172 -0.9569  1.0908
22370SOL    HW168787   0.750   0.313   0.563 -0.3293 -0.5700  0.6926
22370SOL    HW268788   0.631   0.404   0.588 -0.4239 -1.0068  1.8848
22371SOL     OW68789   7.466   3.371   1.396 -0.2937  0.2960  0.0108
22371SOL    HW168790   7.388   3.396   1.347  0.0493  1.3244 -0.0061
22371SOL    HW268791   7.536   3.423   1.358  0.5068 -0.9898 -0.3180
22372SOL     OW68792   6.941   4.408   5.644  0.5000 -0.2536 -0.4546
22372SOL    HW168793   6.906   4.492   5.675  1.2484  0.1401 -0.6734
22372SOL    HW268794   7.010   4.386   5.706  1.0509 -0.1570 -1.0234
22373SOL     OW68795   5.604   0.157   0.359 -0.4515 -0.3727  0.4189
22373SOL    HW168796   5.669   0.090   0.380 -1.5334 -1.6977 -0.3585
22373SOL    HW268797   5.587   0.145   0.265 -2.1337 -0.3378  0.7038
22374SOL     OW68798   8.570   0.330   3.547 -0.3949  0.3924 -0.6889
22374SOL    HW168799   8.506   0.359   3.482 -0.1630  1.2703 -0.5344
22374SOL    HW268800   8.620   0.409   3.568 -0.8964  0.2694  1.0460
22375SOL     OW68801   8.449   1.970   0.165 -0.0716  0.2082  0.4039
22375SOL    HW168802   8.364   1.944   0.200 -0.9329  2.0528 -0.2797
22375SOL    HW268803   8.468   2.053   0.209  1.5888 -0.4182  0.8904
22376SOL     OW68804   1.014   5.289   6.952 -0.4457 -0.4714  0.1167
22376SOL    HW168805   0.979   5.331   7.030  0.4808 -1.2766  0.9821
22376SOL    HW268806   1.014   5.358   6.886  0.0328  0.5971  1.2162
22377SOL     OW68807   0.319   1.481   7.310 -0.5714  0.1529 -0.2335
22377SOL    HW168808   0.329   1.430   7.230 -0.5035  0.8933 -0.7000
22377SOL    HW268809   0.226   1.501   7.315 -0.5023  0.5136 -0.3799
22378SOL     OW68810   0.145   8.609   5.220 -0.6571 -0.4520 -0.1930
22378SOL    HW168811   0.094   8.590   5.141 -2.1914  0.3638  0.5707
22378SOL    HW268812   0.199   8.685   5.197  0.5909 -1.6393 -1.1701
22379SOL     OW68813   7.527   4.729   9.110  0.4417  0.4240  0.4342
22379SOL    HW168814   7.484   4.649   9.080 -1.7848  1.3963  0.8786
22379SOL    HW268815   7.527   4.723   9.205 -2.1919  2.0873  0.6124
22380SOL     OW68816   8.110   1.923   5.680  0.0983  0.1935 -0.2649
22380SOL    HW168817   8.068   1.836   5.683  0.1828  0.1181 -1.2395
22380SOL    HW268818   8.113   1.950   5.772 -0.8859 -0.3794 -0.0501
22381SOL     OW68819   3.283   1.964   0.516  0.3737 -0.0711  0.2581
22381SOL    HW168820   3.212   1.969   0.580  0.5041  0.9929  0.3303
22381SOL    HW268821   3.331   2.046   0.527 -0.1556  0.5794 -1.8405
22382SOL     OW68822   8.078   1.133   2.908  0.2776 -0.3721  0.1637
22382SOL    HW168823   8.013   1.171   2.850 -0.2276  0.4496  1.2481
22382SOL    HW268824   8.066   1.038   2.898 -1.3006 -0.2339  0.5722
22383SOL     OW68825   5.707   6.602   2.191 -0.1358 -0.0766  0.0292
22383SOL    HW168826   5.624   6.562   2.164  0.2570 -1.9371  1.4761
22383SOL    HW268827   5.770   6.570   2.126 -0.7037  2.1597 -1.6742
22384SOL     OW68828   2.402   5.171   2.100 -0.3028 -0.0983  0.0073
22384SOL    HW168829   2.358   5.256   2.111 -0.8052 -0.4599  0.8583
22384SOL    HW268830   2.380   5.122   2.179  2.5151  0.0958  0.9732
22385SOL     OW68831   7.458   8.519   8.621  0.5736  0.2208 -0.1689
22385SOL    HW168832   7.479   8.505   8.713 -0.8004 -0.3872  0.0682
22385SOL    HW268833   7.532   8.568   8.586  1.6548 -0.5760  0.9827
22386SOL     OW68834   3.743   4.547   7.323  0.2745 -0.2509 -0.0235
22386SOL    HW168835   3.802   4.559   7.249  0.2388 -2.0270 -0.3602
22386SOL    HW268836   3.782   4.476   7.374 -0.2635  0.2370  1.0805
22387SOL     OW68837   1.634   5.684   1.526 -0.3888  0.1368 -0.2486
22387SOL    HW168838   1.551   5.711   1.564 -0.7679 -1.4260  0.0617
22387SOL    HW268839   1.689   5.662   1.601 -0.3275 -0.6343 -0.5172
22388SOL     OW68840   7.805   4.279   1.956 -0.0106 -0.3354 -0.6281
22388SOL    HW168841   7.808   4.201   2.011  1.2858  0.4462  0.4465
22388SOL    HW268842   7.810   4.246   1.867  0.4604 -1.4858 -0.1773
22389SOL     OW68843   8.249   0.758   9.150 -0.4980 -0.1006  0.2131
22389SOL    HW168844   8.336   0.733   9.121  1.3585  3.0902  2.5851
22389SOL    HW268845   8.215   0.813   9.079  1.4680  2.5555  1.2062
22390SOL     OW68846   2.587   1.639   6.392  0.4032  0.3624  0.3571
22390SOL    HW168847   2.521   1.570   6.393  1.8964 -1.1055  0.3232
22390SOL    HW268848   2.558   1.699   6.323 -0.4368 -0.7256 -0.2488
22391SOL     OW68849   5.056   7.406   1.204 -0.3487 -0.5326 -0.7033
22391SOL    HW168850   5.023   7.358   1.128  0.3161 -0.5151 -1.0034
22391SOL    HW268851   5.006   7.488   1.204 -0.4235 -0.5771 -1.0619
22392SOL     OW68852   1.230   7.911   8.674  0.4927  0.0159 -0.3687
22392SOL    HW168853   1.282   7.952   8.605  1.6739  0.5769  0.8383
22392SOL    HW268854   1.170   7.980   8.702  0.1350 -0.1577 -0.6971
22393SOL     OW68855   2.361   1.909   4.370 -0.6786  0.0238 -0.4912
22393SOL    HW168856   2.322   1.997   4.375 -1.2647 -0.1700 -1.4377
22393SOL    HW268857   2.353   1.885   4.278  0.2611 -0.6774 -0.3943
22394SOL     OW68858   5.276   6.639   0.082 -0.3001  0.0195 -0.2670
22394SOL    HW168859   5.266   6.710   0.018  2.0258 -1.0029 -1.8281
22394SOL    HW268860   5.189   6.631   0.122 -1.1018  2.4830 -1.3774
22395SOL     OW68861   4.192   1.025   7.397  0.0804  0.3502 -0.4954
22395SOL    HW168862   4.165   0.959   7.333 -0.4439 -1.5673  1.6266
22395SOL    HW268863   4.276   0.992   7.431 -0.2210  0.7233  0.6285
22396SOL     OW68864   7.650   7.167   3.581  0.1197  0.3092  0.4054
22396SOL    HW168865   7.561   7.137   3.561 -0.3765  3.5184 -2.8493
22396SOL    HW268866   7.640   7.225   3.657 -0.1301 -1.3926  1.6866
22397SOL     OW68867   3.525   8.497   8.361 -0.2254 -0.1123 -0.3266
22397SOL    HW168868   3.543   8.403   8.366 -0.5358 -0.0705  2.8265
22397SOL    HW268869   3.437   8.503   8.322 -0.7447 -1.2188  0.6398
22398SOL     OW68870   6.867   3.748   6.121  0.1634 -0.6910  0.1349
22398SOL    HW168871   6.834   3.775   6.036  1.4557  0.5978  0.0147
22398SOL    HW268872   6.876   3.829   6.171  1.0502 -1.2400  0.8966
22399SOL     OW68873   1.494   5.272   2.172  0.1579 -0.2044  0.3854
22399SOL    HW168874   1.554   5.262   2.097 -1.1223  0.2066 -0.7149
22399SOL    HW268875   1.443   5.191   2.173 -1.2577  0.6472 -0.4983
22400SOL     OW68876   2.466   1.745   2.583  0.2102  0.5375 -0.0595
22400SOL    HW168877   2.446   1.814   2.520 -0.1227 -0.9103 -1.5501
22400SOL    HW268878   2.518   1.682   2.535 -0.8024 -1.0315  0.8614
22401SOL     OW68879   3.887   2.467   7.051  0.4556 -0.0897 -0.3997
22401SOL    HW168880   3.868   2.560   7.049 -1.6940 -0.4825  0.1540
22401SOL    HW268881   3.824   2.428   6.990 -0.3486 -1.4091  1.2031
22402SOL     OW68882   8.019   7.473   4.860 -0.0827  0.1803  0.1617
22402SOL    HW168883   7.950   7.430   4.910  0.5621 -1.6560 -0.4794
22402SOL    HW268884   8.096   7.419   4.874  0.8852  1.4194 -0.2777
22403SOL     OW68885   8.809   8.749   3.886  0.1023 -0.3919 -0.1323
22403SOL    HW168886   8.723   8.787   3.869  1.1330  1.5343 -1.1734
22403SOL    HW268887   8.857   8.816   3.934  1.4149 -1.0141 -0.5426
22404SOL     OW68888   5.486   5.537   5.819  0.3715 -0.0789  0.6011
22404SOL    HW168889   5.450   5.567   5.735  1.2172  0.5620  0.4639
22404SOL    HW268890   5.531   5.455   5.796  0.8856  0.2668  0.3618
22405SOL     OW68891   0.912   2.493   4.358 -0.5017  0.1562  0.2502
22405SOL    HW168892   1.003   2.502   4.384  0.3346 -1.1278 -2.0530
22405SOL    HW268893   0.865   2.470   4.438  1.3828 -0.3904  1.2072
22406SOL     OW68894   8.838   2.815   7.089  0.2255  0.1048  0.2349
22406SOL    HW168895   8.743   2.830   7.093  0.1675  0.2802 -1.4914
22406SOL    HW268896   8.872   2.890   7.041  1.3376  0.3653  1.3878
22407SOL     OW68897   3.338   2.809   9.215 -0.3030  0.3626  0.3036
22407SOL    HW168898   3.347   2.715   9.232 -1.0898 -0.0450 -1.5185
22407SOL    HW268899   3.258   2.818   9.165  1.4187  1.6503 -2.3318
22408SOL     OW68900   1.152   5.962   2.251  0.4539 -0.1052 -0.1302
22408SOL    HW168901   1.086   5.895   2.236 -0.3721  0.2538  1.7459
22408SOL    HW268902   1.206   5.927   2.322  1.7353  0.0007 -1.0412
22409SOL     OW68903   3.305   4.213   9.087 -0.0801 -0.0717 -0.3123
22409SOL    HW168904   3.328   4.290   9.035 -0.3280  0.1408 -0.1051
22409SOL    HW268905   3.244   4.165   9.032 -1.6846  1.0248  0.4902
22410SOL     OW68906   1.434   4.190   2.952 -0.2573  0.0213  0.5385
22410SOL    HW168907   1.383   4.258   2.996 -0.7784  0.1996 -0.3178
22410SOL    HW268908   1.368   4.127   2.922 -0.0385  0.4530 -0.9298
22411SOL     OW68909   4.079   5.533   1.015 -0.8540 -0.3219  0.6264
22411SOL    HW168910   4.117   5.452   1.048 -0.8505 -0.1187  1.1220
22411SOL    HW268911   4.127   5.552   0.935 -0.6196 -0.6224  0.6970
22412SOL     OW68912   1.230   7.289   3.562  0.8041  0.1350  0.1443
22412SOL    HW168913   1.241   7.369   3.612 -0.1497 -0.0799  0.7096
22412SOL    HW268914   1.286   7.225   3.606  0.4949  0.1253  0.5252
22413SOL     OW68915   5.086   3.631   0.534  0.2120  0.1513 -0.7941
22413SOL    HW168916   5.146   3.581   0.590  0.1448  1.4088  0.4012
22413SOL    HW268917   5.038   3.687   0.593 -1.5671 -0.2091 -1.8606
22414SOL     OW68918   7.472   6.028   6.056 -0.4242 -0.4661  0.5915
22414SOL    HW168919   7.535   5.967   6.018  2.4714  1.4197  2.1820
22414SOL    HW268920   7.506   6.115   6.034 -0.9389  0.6308  3.8468
22415SOL     OW68921   5.541   3.381   3.488 -0.6831 -0.6078 -0.4904
22415SOL    HW168922   5.469   3.423   3.536  0.4464 -1.7582  2.3309
22415SOL    HW268923   5.525   3.287   3.498  2.4078 -0.9387  2.2486
22416SOL     OW68924   7.594   2.560   1.709  0.4670 -0.3608 -0.1595
22416SOL    HW168925   7.689   2.571   1.717  0.3055  1.0108 -0.0985
22416SOL    HW268926   7.558   2.608   1.783 -0.3168 -0.1863 -0.6585
22417SOL     OW68927   2.213   6.615   8.663 -0.4280  0.1145 -0.7597
22417SOL    HW168928   2.142   6.668   8.698 -0.7777 -0.5472 -0.4545
22417SOL    HW268929   2.179   6.580   8.581  0.4319  1.7577 -1.8542
22418SOL     OW68930   3.722   7.087   9.048 -0.0530 -0.8095 -0.1152
22418SOL    HW168931   3.681   7.133   8.974 -0.8046 -1.4907 -0.1262
22418SOL    HW268932   3.781   7.024   9.007 -1.8111 -2.4435 -0.1931
22419SOL     OW68933   3.653   8.903   8.967  0.6570 -0.3790  1.0470
22419SOL    HW168934   3.575   8.944   9.004  0.1660  0.3502 -0.7261
22419SOL    HW268935   3.641   8.810   8.984 -1.8000 -0.5593 -1.2807
22420SOL     OW68936   0.344   6.415   8.273 -0.0236 -0.3806 -0.0666
22420SOL    HW168937   0.328   6.382   8.185  1.1765 -0.7988 -0.1355
22420SOL    HW268938   0.416   6.478   8.262 -0.0020 -0.2889  0.5795
22421SOL     OW68939   8.509   1.904   5.146  0.3687 -0.2219  0.0326
22421SOL    HW168940   8.441   1.971   5.158  0.9966  0.8631 -2.0448
22421SOL    HW268941   8.480   1.854   5.070  1.0309 -0.8651  0.1984
22422SOL     OW68942   3.538   7.963   4.605  0.1462  0.0136 -0.2366
22422SOL    HW168943   3.613   8.011   4.569  0.2705  0.3178  0.4281
22422SOL    HW268944   3.497   7.923   4.528  0.0084  1.2375 -0.8138
22423SOL     OW68945   6.781   8.352   0.503 -0.2460 -0.5652  0.0410
22423SOL    HW168946   6.811   8.289   0.437 -1.9089 -0.7644 -0.5436
22423SOL    HW268947   6.788   8.304   0.585  2.1885 -0.1929  0.0911
22424SOL     OW68948   4.390   8.900   3.113  0.8322  0.4188  0.8847
22424SOL    HW168949   4.342   8.823   3.082  2.0244  0.0427 -0.0611
22424SOL    HW268950   4.426   8.873   3.198  2.4532 -0.5768 -0.1067
22425SOL     OW68951   3.105   3.779   4.842 -0.2165 -0.1951  0.0167
22425SOL    HW168952   3.106   3.800   4.935  0.8622  0.6535 -0.1729
22425SOL    HW268953   3.195   3.792   4.813 -0.0275 -2.7799 -0.6551
22426SOL     OW68954   8.522   4.861   4.621  0.5151 -0.6118 -0.4364
22426SOL    HW168955   8.442   4.847   4.671  0.3764  0.2406 -0.4252
22426SOL    HW268956   8.561   4.773   4.614 -0.6380 -1.0975 -0.8356
22427SOL     OW68957   5.527   8.035   2.922  0.2161 -0.1120 -0.5183
22427SOL    HW168958   5.604   7.990   2.887  1.9092  0.7444  2.0245
22427SOL    HW268959   5.558   8.123   2.941 -0.7233 -0.4555  2.7965
22428SOL     OW68960   7.967   1.018   5.421  0.3953 -0.2098 -0.7040
22428SOL    HW168961   8.030   1.079   5.382  0.3977  0.3400  0.1438
22428SOL    HW268962   8.009   0.932   5.415  0.6788 -0.0290 -1.3070
22429SOL     OW68963   1.661   0.956   0.282 -0.2430 -0.1319  0.0909
22429SOL    HW168964   1.731   0.894   0.300  0.9626  1.4083  0.8034
22429SOL    HW268965   1.704   1.041   0.275 -2.0507  0.8789  0.7160
22430SOL     OW68966   1.676   8.000   0.054  0.1333 -1.1522 -0.2005
22430SOL    HW168967   1.771   7.986   0.047  0.6668  1.4616  1.1528
22430SOL    HW268968   1.647   7.932   0.116  0.9098 -2.6410 -1.4256
22431SOL     OW68969   7.144   7.460   4.222  0.2268  0.1126  0.0655
22431SOL    HW168970   7.078   7.493   4.283 -0.9100  0.1170 -1.1514
22431SOL    HW268971   7.108   7.479   4.135  0.9645 -1.5762 -0.6237
22432SOL     OW68972   0.568   3.782   6.925  0.6426  0.2729  0.1381
22432SOL    HW168973   0.514   3.812   6.998  1.8222  1.7435  0.4276
22432SOL    HW268974   0.556   3.847   6.857 -0.3090 -1.0018 -0.9407
22433SOL     OW68975   1.903   0.665   0.085  0.1083  0.3844 -0.0974
22433SOL    HW168976   1.881   0.643   0.176 -2.1487 -4.1746 -1.5673
22433SOL    HW268977   1.998   0.654   0.080  0.1594 -0.0869  1.4949
22434SOL     OW68978   8.814   3.747   3.232  0.0009 -0.2109 -0.0176
22434SOL    HW168979   8.739   3.764   3.289  0.1847 -3.7130  1.3979
22434SOL    HW268980   8.890   3.769   3.286  0.1535 -2.9758  0.9853
22435SOL     OW68981   8.029   4.373   2.676  0.1022 -0.4124  0.6932
22435SOL    HW168982   8.073   4.384   2.592 -0.0840 -2.1394  0.3548
22435SOL    HW268983   8.056   4.448   2.727 -0.0373  0.8377 -1.0238
22436SOL     OW68984   4.589   8.057   4.756  0.6173 -0.9090  0.0136
22436SOL    HW168985   4.669   8.045   4.808  0.5046 -2.3765 -0.1475
22436SOL    HW268986   4.558   8.145   4.780  1.0374 -1.2295  1.7867
22437SOL     OW68987   5.119   5.375   0.577 -0.0640 -0.0857  0.1442
22437SOL    HW168988   5.027   5.368   0.602  0.3213 -0.3199  1.5118
22437SOL    HW268989   5.143   5.286   0.549 -0.6847  0.3266 -1.8072
22438SOL     OW68990   4.892   2.663   0.561  0.3030 -0.8581 -0.1644
22438SOL    HW168991   4.952   2.688   0.490  0.6932 -0.1990  0.3916
22438SOL    HW268992   4.835   2.596   0.522  1.6295 -1.7528 -0.5884
22439SOL     OW68993   1.913   9.285   4.630 -0.0495 -0.9674 -0.3294
22439SOL    HW168994   1.971   9.335   4.573 -0.7319  0.9816  0.6035
22439SOL    HW268995   1.891   9.347   4.700 -2.6563 -1.8885 -0.2863
22440SOL     OW68996   7.419   8.235   2.301 -0.1572  0.4787 -0.2855
22440SOL    HW168997   7.461   8.258   2.218  1.0672 -1.2973 -0.2077
22440SOL    HW268998   7.490   8.238   2.365 -1.1575  2.1132  0.7708
22441SOL     OW68999   4.659   2.518   6.670  0.1534  0.1293  0.1533
22441SOL    HW169000   4.665   2.478   6.756 -1.1825  0.6221  0.4991
22441SOL    HW269001   4.591   2.468   6.625  0.1516  0.4868 -0.2452
22442SOL     OW69002   2.575   5.994   5.474 -0.3527  0.3575 -0.0220
22442SOL    HW169003   2.533   5.930   5.531  0.7194 -1.2602 -0.9810
22442SOL    HW269004   2.571   6.077   5.522 -0.6946 -0.6842  1.7709
22443SOL     OW69005   0.166   6.200   7.256 -0.2843 -0.7918 -0.6163
22443SOL    HW169006   0.102   6.129   7.265 -0.6462 -0.3270  0.5961
22443SOL    HW269007   0.120   6.278   7.288  0.8590 -0.4446  0.2053
22444SOL     OW69008   1.551   2.050   2.865  0.3817  0.1659 -0.3534
22444SOL    HW169009   1.584   1.975   2.915  0.6388  0.6167  0.1601
22444SOL    HW269010   1.521   2.112   2.931  0.9478  0.8715 -0.7530
22445SOL     OW69011   4.745   7.521   1.625 -0.2746 -0.1168 -0.4782
22445SOL    HW169012   4.737   7.592   1.688  0.0424 -0.8437  0.4097
22445SOL    HW269013   4.696   7.550   1.548 -1.7021  0.2660  0.5588
22446SOL     OW69014   1.502   5.762   5.079 -0.0413 -0.0383  0.0482
22446SOL    HW169015   1.529   5.836   5.024  2.1347  0.1739  1.3545
22446SOL    HW269016   1.557   5.689   5.050 -0.9918 -0.7300 -0.0665
22447SOL     OW69017   4.305   7.868   9.135  0.0390 -0.3437  0.0827
22447SOL    HW169018   4.213   7.894   9.126 -0.3398 -1.5183  0.5018
22447SOL    HW269019   4.350   7.947   9.166 -1.0534 -0.1320  1.1504
22448SOL     OW69020   7.866   2.168   5.726  0.1177 -0.0732 -0.1912
22448SOL    HW169021   7.956   2.201   5.728 -0.0433  0.4765 -1.4817
22448SOL    HW269022   7.856   2.120   5.808  2.0433 -1.3491 -0.6733
22449SOL     OW69023   8.879   1.751   3.204 -0.3366  0.4432 -0.4946
22449SOL    HW169024   8.959   1.803   3.201  0.8382 -1.2622  0.2873
22449SOL    HW269025   8.831   1.774   3.124  2.2908 -0.6352 -2.4390
22450SOL     OW69026   1.960   1.262   8.408  0.0791  0.8291 -0.1365
22450SOL    HW169027   1.918   1.307   8.481 -2.2056 -0.7615 -0.4255
22450SOL    HW269028   2.030   1.210   8.449 -0.1987  1.1233  0.7288
22451SOL     OW69029   7.451   8.419   1.228  0.1237 -0.0914 -0.3936
22451SOL    HW169030   7.463   8.435   1.134 -1.2626 -0.8700 -0.7141
22451SOL    HW269031   7.357   8.429   1.243  0.6718  2.8061  1.4823
22452SOL     OW69032   0.605   5.156   5.880 -0.0575  0.1762 -0.0746
22452SOL    HW169033   0.601   5.153   5.784  1.3775  1.2927 -0.1858
22452SOL    HW269034   0.514   5.143   5.908 -0.5044 -0.0895 -1.5850
22453SOL     OW69035   4.286   3.674   1.839  0.5150 -0.1517  0.3079
22453SOL    HW169036   4.319   3.641   1.755  2.1955  0.4524  0.7091
22453SOL    HW269037   4.261   3.764   1.821  0.8518 -0.0298  0.4438
22454SOL     OW69038   0.148   0.662   6.852  0.4658  0.6323 -0.5947
22454SOL    HW169039   0.150   0.571   6.880  3.1839  0.7812 -0.1516
22454SOL    HW269040   0.161   0.659   6.757 -1.0961  0.5209 -0.8302
22455SOL     OW69041   2.467   0.937   7.144  0.1381 -0.3686 -0.0051
22455SOL    HW169042   2.442   0.955   7.235  0.1944 -1.8750  0.3298
22455SOL    HW269043   2.536   1.001   7.125  0.0310  0.0468  0.9662
22456SOL     OW69044   6.821   4.955   3.714 -0.5886  0.4556 -0.1998
22456SOL    HW169045   6.837   5.049   3.704 -0.6735  0.4609 -0.2846
22456SOL    HW269046   6.726   4.946   3.711 -0.5483  0.2752 -0.9311
22457SOL     OW69047   7.958   8.803   1.042  0.2426 -0.1028 -0.4310
22457SOL    HW169048   7.975   8.739   1.110  0.2471 -0.6372 -0.9309
22457SOL    HW269049   7.921   8.752   0.969 -0.3964  0.5612 -0.5758
22458SOL     OW69050   6.008   0.849   1.618  0.1243 -0.7818  0.1602
22458SOL    HW169051   5.950   0.838   1.694  0.7536 -0.4296  0.6943
22458SOL    HW269052   5.955   0.820   1.544 -0.8939 -0.0506  0.5874
22459SOL     OW69053   2.462   1.325   5.081  0.1743 -0.0663 -0.9471
22459SOL    HW169054   2.441   1.416   5.064  0.3113 -0.1772 -1.7429
22459SOL    HW269055   2.543   1.328   5.132 -1.9293  0.3784  2.5728
22460SOL     OW69056   1.277   0.620   9.159 -1.1460 -0.4719  0.3610
22460SOL    HW169057   1.357   0.574   9.186  0.3359  2.4662  1.1812
22460SOL    HW269058   1.285   0.707   9.198 -4.9489 -0.2210  0.7595
22461SOL     OW69059   7.640   8.252   2.479  0.3792  0.5876 -0.4155
22461SOL    HW169060   7.659   8.345   2.487  0.5464  0.4334  1.3192
22461SOL    HW269061   7.724   8.212   2.456  0.3542  0.8372 -0.9419
22462SOL     OW69062   7.171   7.439   6.595 -0.1977 -0.4762  0.5757
22462SOL    HW169063   7.254   7.477   6.567 -0.0714 -1.1637  0.0051
22462SOL    HW269064   7.123   7.512   6.635  0.4055  0.0742  0.2945
22463SOL     OW69065   0.211   0.676   8.095 -0.2514 -0.1427 -0.2688
22463SOL    HW169066   0.256   0.591   8.097 -0.3647 -0.1941  0.1940
22463SOL    HW269067   0.147   0.670   8.165  0.7098  0.8597  0.7082
22464SOL     OW69068   4.227   8.460   0.277 -0.2858 -0.1269  0.2077
22464SOL    HW169069   4.152   8.473   0.335 -2.6983 -2.4882 -2.1980
22464SOL    HW269070   4.272   8.383   0.312  1.0379  1.2874  1.6510
22465SOL     OW69071   5.187   2.831   0.602  0.6917 -0.0095 -0.0524
22465SOL    HW169072   5.225   2.919   0.597  0.2431  0.1891  0.0415
22465SOL    HW269073   5.117   2.838   0.667  0.2644 -0.2870 -0.4783
22466SOL     OW69074   6.715   2.820   4.146  0.1676  0.3258 -0.6654
22466SOL    HW169075   6.710   2.873   4.067  0.3632 -1.2714 -1.7731
22466SOL    HW269076   6.669   2.739   4.123  0.5398 -0.2940  0.7379
22467SOL     OW69077   2.882   3.762   6.457  0.1260 -0.0166  0.7861
22467SOL    HW169078   2.843   3.708   6.524 -1.3252  0.2718  0.1936
22467SOL    HW269079   2.905   3.844   6.502 -0.4188  0.0021  1.0344
22468SOL     OW69080   3.929   0.978   8.598 -0.0366 -0.1248  0.0939
22468SOL    HW169081   3.954   0.894   8.636  0.7798  0.2291  0.3390
22468SOL    HW269082   3.838   0.990   8.624  0.2753 -0.2675  1.2643
22469SOL     OW69083   7.307   2.216   0.343 -0.1321  0.1497 -0.0369
22469SOL    HW169084   7.226   2.181   0.306  0.7505 -0.8147 -1.0983
22469SOL    HW269085   7.371   2.207   0.273  1.5244 -1.4885  1.6410
22470SOL     OW69086   8.228   3.417   2.427 -0.3443 -0.0882 -0.2048
22470SOL    HW169087   8.191   3.348   2.372  0.3667 -0.0170 -0.7724
22470SOL    HW269088   8.226   3.381   2.516 -0.2336 -0.7302 -0.4635
22471SOL     OW69089   0.331   4.160   3.437  0.1088  0.2713 -0.1100
22471SOL    HW169090   0.303   4.173   3.527  0.7981 -1.3171  0.3402
22471SOL    HW269091   0.264   4.205   3.385  0.1142  1.8275  1.2052
22472SOL     OW69092   8.710   4.163   9.240  0.0361 -0.3441  0.0160
22472SOL    HW169093   8.736   4.179   9.150  1.0637 -1.6296  0.0684
22472SOL    HW269094   8.624   4.121   9.233  0.1901 -0.5931 -0.3648
22473SOL     OW69095   9.164   6.841   5.877 -0.0068 -0.1072  0.7393
22473SOL    HW169096   9.251   6.803   5.886 -0.0626 -0.8085 -1.4249
22473SOL    HW269097   9.121   6.823   5.961  1.0108 -2.1155  0.8651
22474SOL     OW69098   0.820   7.491   2.638  0.6751 -0.5151  0.6431
22474SOL    HW169099   0.842   7.498   2.731  0.6238 -3.8687  0.9801
22474SOL    HW269100   0.812   7.397   2.622  0.6877 -0.0109 -2.7850
22475SOL     OW69101   1.712   7.903   6.149 -0.2236  0.0216 -0.7318
22475SOL    HW169102   1.624   7.865   6.149  0.6161 -2.2200  3.0871
22475SOL    HW269103   1.715   7.955   6.229  1.1068  2.2506 -2.1779
22476SOL     OW69104   6.240   7.950   8.495  0.2000 -0.2282  0.1263
22476SOL    HW169105   6.203   7.881   8.440  1.3135 -0.1967 -0.6920
22476SOL    HW269106   6.187   8.027   8.474 -1.2556 -0.9020  1.2893
22477SOL     OW69107   3.991   5.440   6.891  0.5009  0.1090 -0.1153
22477SOL    HW169108   3.920   5.395   6.938  0.5764  0.8112  0.6759
22477SOL    HW269109   4.025   5.373   6.831  1.4872 -1.3427  1.9778
22478SOL     OW69110   1.047   6.748   1.942 -0.1907  0.2872  0.2927
22478SOL    HW169111   0.980   6.696   1.987  3.0355 -4.3907  0.0518
22478SOL    HW269112   1.080   6.806   2.010 -2.4679  0.6252  1.1669
22479SOL     OW69113   2.482   5.551   4.142  0.0546  0.1611 -0.3466
22479SOL    HW169114   2.400   5.557   4.191 -0.3689  1.1042 -1.1448
22479SOL    HW269115   2.516   5.641   4.141 -0.4469  0.3563 -2.5883
22480SOL     OW69116   0.223   7.442   5.089 -0.0617  0.1433 -0.6506
22480SOL    HW169117   0.196   7.460   5.179  0.5397 -1.7602 -0.0563
22480SOL    HW269118   0.299   7.384   5.098 -0.0080 -0.0925 -2.3865
22481SOL     OW69119   0.934   5.209   8.566 -0.1620  0.3799  0.1211
22481SOL    HW169120   0.884   5.219   8.647 -0.2931  0.1107  0.0732
22481SOL    HW269121   0.959   5.299   8.543  1.1477  0.3243  1.2603
22482SOL     OW69122   6.591   6.282   6.296  0.3564 -0.1396 -0.1497
22482SOL    HW169123   6.537   6.361   6.293 -0.8219 -0.9408 -0.5897
22482SOL    HW269124   6.543   6.222   6.354  1.3166 -0.4878  0.3100
22483SOL     OW69125   2.717   4.286   5.868 -0.1549 -0.4106 -0.4101
22483SOL    HW169126   2.738   4.347   5.797 -1.2260  0.0381 -0.3509
22483SOL    HW269127   2.771   4.315   5.941  0.7055 -0.6705 -0.9340
22484SOL     OW69128   7.328   3.052   3.110  0.4503 -0.3042  0.1313
22484SOL    HW169129   7.243   3.080   3.143  0.3798 -0.8968  0.4636
22484SOL    HW269130   7.373   3.019   3.188  1.3435  0.8904  0.1369
22485SOL     OW69131   3.565   9.023   7.786  0.4348 -0.1087 -0.3878
22485SOL    HW169132   3.650   9.065   7.774  0.6372 -0.2292  0.5963
22485SOL    HW269133   3.530   9.064   7.865  0.1212 -0.9641 -0.0845
22486SOL     OW69134   4.432   5.417   0.963  0.1960 -0.1144  0.5334
22486SOL    HW169135   4.370   5.473   0.914 -0.6282 -0.9890  0.5723
22486SOL    HW269136   4.518   5.451   0.939 -0.2187 -0.2097 -1.1540
22487SOL     OW69137   3.925   4.013   4.577  0.0209  0.3800  0.3864
22487SOL    HW169138   3.869   3.989   4.651 -1.5886  3.1117  0.1188
22487SOL    HW269139   3.983   4.081   4.612  0.5742  0.2771 -0.3294
22488SOL     OW69140   8.956   5.428   6.645  0.0232  0.2146 -0.0737
22488SOL    HW169141   8.929   5.471   6.726  1.4940  1.6104 -0.3104
22488SOL    HW269142   8.932   5.336   6.657 -1.0533  0.6779  1.3669
22489SOL     OW69143   1.820   7.369   4.069 -0.1709 -0.4775  0.6559
22489SOL    HW169144   1.842   7.413   3.987 -1.5533  1.0593  1.0801
22489SOL    HW269145   1.808   7.277   4.044  1.5210 -0.4128 -0.4694
22490SOL     OW69146   4.976   3.083   0.165  0.2945  0.1049  0.0584
22490SOL    HW169147   4.974   3.108   0.257 -0.7329  3.4603 -0.8099
22490SOL    HW269148   5.062   3.112   0.134  0.1837  0.0261 -0.3269
22491SOL     OW69149   4.963   3.686   5.911  0.8534 -0.1279  0.1927
22491SOL    HW169150   5.004   3.601   5.929 -0.6849 -0.5782  1.7450
22491SOL    HW269151   4.900   3.698   5.982 -0.1960  1.5044 -0.9637
22492SOL     OW69152   6.621   6.579   2.072  0.5915 -0.0003 -0.2536
22492SOL    HW169153   6.598   6.517   2.142  0.6700 -0.8426 -0.9586
22492SOL    HW269154   6.668   6.525   2.008 -0.5414  0.5043 -1.5236
22493SOL     OW69155   2.402   3.772   9.172  0.1115  0.3318  0.0453
22493SOL    HW169156   2.430   3.692   9.129  0.4663  0.1257  0.6664
22493SOL    HW269157   2.462   3.783   9.246 -1.4318 -0.1241  1.3933
22494SOL     OW69158   1.206   8.918   4.672  0.1775  0.4485  0.2919
22494SOL    HW169159   1.286   8.957   4.706  0.2649  0.8939 -0.4255
22494SOL    HW269160   1.152   8.902   4.750  1.0196  0.0048  0.7824
22495SOL     OW69161   4.534   2.300   6.267 -0.2116  0.0076  1.0954
22495SOL    HW169162   4.592   2.224   6.265  0.9570  0.9050 -0.8088
22495SOL    HW269163   4.457   2.272   6.217  0.3419  0.1458  0.1457
22496SOL     OW69164   8.302   5.461   4.698 -0.8658 -0.1177 -0.1837
22496SOL    HW169165   8.313   5.399   4.770  2.9352  0.4883 -0.1580
22496SOL    HW269166   8.341   5.542   4.731  0.5440  0.2911 -2.7961
22497SOL     OW69167   3.929   0.351   4.813 -0.3012  0.2800  0.2293
22497SOL    HW169168   3.940   0.380   4.722  0.7855  2.5666  1.0429
22497SOL    HW269169   3.847   0.392   4.841 -0.4143 -0.0665  0.4050
22498SOL     OW69170   4.510   1.723   0.077  0.0195  0.1831 -0.5862
22498SOL    HW169171   4.506   1.636   0.037  0.8049  0.4728 -1.3158
22498SOL    HW269172   4.419   1.750   0.085 -0.2739 -0.9957  0.2840
22499SOL     OW69173   1.442   0.506   8.596  0.0888 -0.6107  0.4881
22499SOL    HW169174   1.375   0.561   8.638  0.0857 -1.2079  1.2710
22499SOL    HW269175   1.470   0.446   8.665  0.4653 -1.2529 -0.2232
22500SOL     OW69176   2.012   4.255   8.549  0.3842 -0.3983 -0.4097
22500SOL    HW169177   2.082   4.199   8.581  1.7778  2.7029  2.3220
22500SOL    HW269178   1.939   4.241   8.610 -0.2087 -1.1852 -1.2925
22501SOL     OW69179   0.529   4.403   0.180 -0.5198 -0.6904  0.5790
22501SOL    HW169180   0.516   4.330   0.240 -1.1680 -0.5913  0.5626
22501SOL    HW269181   0.456   4.397   0.119 -0.5712 -0.0332  0.5740
22502SOL     OW69182   1.800   3.795   6.581  0.6315 -0.1486  0.4036
22502SOL    HW169183   1.746   3.720   6.602 -0.9199  0.7147 -0.4046
22502SOL    HW269184   1.760   3.832   6.502  0.1200  2.7147  1.9159
22503SOL     OW69185   5.271   4.850   7.180  0.1524  0.1467  0.0147
22503SOL    HW169186   5.272   4.761   7.147 -0.1601 -0.0561  0.5505
22503SOL    HW269187   5.273   4.841   7.276  0.8418  0.7191  0.0672
22504SOL     OW69188   2.231   4.287   2.588 -0.3397  0.0692  0.9928
22504SOL    HW169189   2.312   4.335   2.604  0.3915 -0.7376 -0.2495
22504SOL    HW269190   2.181   4.342   2.528 -0.2186  0.0338  0.8603
22505SOL     OW69191   6.970   7.790   5.317  0.0426  0.5349  0.1205
22505SOL    HW169192   6.989   7.699   5.342  0.4229  0.2072 -1.3492
22505SOL    HW269193   7.023   7.843   5.376  0.9883 -0.2331 -0.0340
22506SOL     OW69194   7.465   3.383   5.663 -0.3124  0.0546 -0.3865
22506SOL    HW169195   7.522   3.459   5.657  0.1215 -0.2294  0.1598
22506SOL    HW269196   7.507   3.316   5.609  0.3244 -0.4365  0.7038
22507SOL     OW69197   7.925   4.304   7.745 -0.0719  0.6181 -0.3090
22507SOL    HW169198   7.837   4.331   7.720 -0.3664  1.6935  1.7884
22507SOL    HW269199   7.980   4.329   7.670 -1.2533  1.7052 -0.8355
22508SOL     OW69200   1.902   0.590   3.765  0.2633  0.4148  0.3117
22508SOL    HW169201   1.906   0.569   3.672  3.3425  0.5456  0.3665
22508SOL    HW269202   1.982   0.639   3.782 -0.3436  0.5479  3.0018
22509SOL     OW69203   8.462   8.204   2.568 -0.1608 -0.1575 -0.0745
22509SOL    HW169204   8.452   8.129   2.627  0.6620  0.2911  0.6439
22509SOL    HW269205   8.554   8.228   2.576 -0.7341  1.7931  0.7501
22510SOL     OW69206   3.776   2.448   0.622 -0.3964 -0.1529  0.2619
22510SOL    HW169207   3.748   2.467   0.532  1.4660  2.1522  0.1142
22510SOL    HW269208   3.872   2.453   0.619 -0.3037 -0.0928  2.3605
22511SOL     OW69209   6.655   1.072   7.565  0.2304  0.4534  0.1049
22511SOL    HW169210   6.705   1.153   7.553  0.0411  0.8722  1.9312
22511SOL    HW269211   6.575   1.100   7.610 -0.3958 -0.5871 -0.3543
22512SOL     OW69212   8.102   2.221   7.872  0.0278  0.5789 -0.5778
22512SOL    HW169213   8.087   2.313   7.895 -1.6562 -0.4540  2.7325
22512SOL    HW269214   8.036   2.203   7.805 -2.0711  0.8816  1.3295
22513SOL     OW69215   2.370   4.617   3.662 -0.3449 -0.0781  0.0004
22513SOL    HW169216   2.367   4.707   3.695  2.8994  0.2344 -0.3961
22513SOL    HW269217   2.330   4.622   3.575 -0.6203  0.8571  0.1720
22514SOL     OW69218   2.280   5.504   8.805  0.4286  0.1390  0.5646
22514SOL    HW169219   2.262   5.544   8.720 -1.2627 -1.5777  0.0734
22514SOL    HW269220   2.197   5.509   8.853  1.6576  2.1335  2.6105
22515SOL     OW69221   8.743   6.185   3.562 -0.8431  0.2245 -0.1396
22515SOL    HW169222   8.710   6.229   3.484  0.6888  1.3735 -0.1562
22515SOL    HW269223   8.770   6.255   3.621 -0.9229 -0.6520  0.9743
22516SOL     OW69224   6.550   3.143   1.860 -0.1321 -0.2221 -0.0472
22516SOL    HW169225   6.565   3.076   1.793 -0.2383 -0.5955  0.2982
22516SOL    HW269226   6.635   3.152   1.905 -0.6729 -1.6840  1.3165
22517SOL     OW69227   2.270   3.401   4.093 -0.1841 -0.4213 -1.1187
22517SOL    HW169228   2.246   3.426   4.182 -2.0952 -0.5053 -1.5879
22517SOL    HW269229   2.365   3.409   4.091 -0.3641  2.5494  0.0365
22518SOL     OW69230   1.559   1.874   3.532 -0.2903  0.3652 -0.9854
22518SOL    HW169231   1.621   1.807   3.562 -0.0417  0.3687 -1.4873
22518SOL    HW269232   1.473   1.833   3.541 -0.0587 -0.4449 -2.3911
22519SOL     OW69233   5.559   0.415   3.135 -0.1697 -0.0083 -0.0074
22519SOL    HW169234   5.607   0.478   3.190 -0.0987  0.1800 -0.2790
22519SOL    HW269235   5.524   0.350   3.196  1.6379 -0.9440  0.0591
22520SOL     OW69236   5.894   5.521   6.804 -0.0125 -0.3240 -0.0358
22520SOL    HW169237   5.858   5.485   6.885  0.0977 -0.2311  0.0524
22520SOL    HW269238   5.955   5.454   6.773 -0.2173 -0.4569 -0.1573
22521SOL     OW69239   7.617   1.239   4.760  0.4076  0.2306  0.2214
22521SOL    HW169240   7.585   1.245   4.850 -0.1710  0.9170 -0.0252
22521SOL    HW269241   7.695   1.295   4.759 -0.2420  1.1468  0.0149
22522SOL     OW69242   2.780   6.623   1.674  0.7618 -0.4331  0.4139
22522SOL    HW169243   2.753   6.672   1.751 -0.9027 -0.1150 -0.3619
22522SOL    HW269244   2.703   6.571   1.650  1.1754 -0.3276 -1.1949
22523SOL     OW69245   5.065   0.359   6.051 -0.1375 -0.0130 -0.3157
22523SOL    HW169246   5.073   0.420   5.978 -1.2392  0.3859 -0.1180
22523SOL    HW269247   5.064   0.273   6.010 -1.2153  0.2258 -0.8287
22524SOL     OW69248   1.702   5.701   2.080 -0.9406 -0.8170  0.1587
22524SOL    HW169249   1.697   5.617   2.126 -0.7479 -0.1754  1.3719
22524SOL    HW269250   1.781   5.743   2.116 -0.2716 -0.6943 -1.4257
22525SOL     OW69251   8.962   1.716   0.781 -0.4995 -0.4585 -0.1403
22525SOL    HW169252   8.884   1.728   0.834 -0.0210  1.6899  0.1599
22525SOL    HW269253   9.032   1.703   0.845 -0.2177  0.2747 -0.2895
22526SOL     OW69254   2.765   5.369   5.940 -0.0930 -0.3397  0.4482
22526SOL    HW169255   2.755   5.434   6.010  0.4189 -0.0878  0.2846
22526SOL    HW269256   2.810   5.415   5.870  0.2999 -0.8810  0.3413
22527SOL     OW69257   4.692   6.116   1.112 -0.2565 -0.2808 -0.3924
22527SOL    HW169258   4.637   6.038   1.108 -1.1048  0.3068 -0.3135
22527SOL    HW269259   4.735   6.112   1.197 -1.0037 -0.1960 -0.0081
22528SOL     OW69260   3.766   1.593   2.839 -0.6008 -0.3461 -0.3940
22528SOL    HW169261   3.793   1.502   2.851 -0.2882 -0.3965 -1.3598
22528SOL    HW269262   3.672   1.592   2.853 -0.3845 -0.5450  1.0498
22529SOL     OW69263   6.700   7.429   8.657 -0.1122 -0.7123 -0.3748
22529SOL    HW169264   6.640   7.493   8.620  0.4888 -0.0355 -0.1762
22529SOL    HW269265   6.651   7.390   8.730  0.5298  1.4838  1.2582
22530SOL     OW69266   7.831   5.382   4.919 -0.1598 -0.2814 -0.2350
22530SOL    HW169267   7.854   5.469   4.951  0.9445 -0.8929  0.6961
22530SOL    HW269268   7.746   5.363   4.959 -0.1200  0.1267  0.0449
22531SOL     OW69269   6.776   8.487   1.889 -0.6640  0.4264  0.1382
22531SOL    HW169270   6.805   8.438   1.812  0.2208 -0.2045  0.8633
22531SOL    HW269271   6.706   8.433   1.926  0.5478 -0.4735  1.1343
22532SOL     OW69272   5.782   4.481   9.046 -0.3057  0.0086  0.0845
22532SOL    HW169273   5.873   4.463   9.070  0.6656  1.4299 -2.3468
22532SOL    HW269274   5.782   4.573   9.018 -2.4802 -0.0008 -0.0561
22533SOL     OW69275   0.760   5.999   1.794  0.2083  0.0676  0.2709
22533SOL    HW169276   0.675   6.035   1.770  0.7097  1.5310  0.6544
22533SOL    HW269277   0.824   6.057   1.753  1.0410 -1.8718 -1.2385
22534SOL     OW69278   0.117   1.988   1.689  0.5348  0.4040 -0.8259
22534SOL    HW169279   0.127   1.896   1.665 -2.0306  0.0943 -0.8456
22534SOL    HW269280   0.102   1.986   1.783  0.9096  0.8372 -0.7580
22535SOL     OW69281   2.766   7.773   7.014  0.0024  0.1808 -0.5754
22535SOL    HW169282   2.766   7.868   7.027 -1.9109  0.2346 -0.7035
22535SOL    HW269283   2.699   7.741   7.075 -0.2168 -0.9477 -1.4006
22536SOL     OW69284   3.346   9.234   5.536 -0.1529  0.1674  0.4125
22536SOL    HW169285   3.318   9.190   5.456  1.7598 -0.0580 -0.1430
22536SOL    HW269286   3.355   9.164   5.600  0.4256  0.0756  0.2292
22537SOL     OW69287   8.682   0.216   0.103  0.2663  0.0570  0.0300
22537SOL    HW169288   8.598   0.195   0.145  0.2558 -3.2951 -1.5115
22537SOL    HW269289   8.661   0.286   0.041 -1.4326 -0.7855 -0.3873
22538SOL     OW69290   6.189   2.660   3.783 -0.1017  0.0478 -0.2674
22538SOL    HW169291   6.100   2.630   3.800 -0.9841  1.0283 -2.8585
22538SOL    HW269292   6.218   2.699   3.865 -2.6496  1.1625  0.1497
22539SOL     OW69293   7.437   4.394   8.603 -0.2054 -0.3298 -0.1539
22539SOL    HW169294   7.357   4.378   8.652  0.1909 -1.3552  0.1630
22539SOL    HW269295   7.427   4.483   8.569 -2.2045 -1.0854 -1.5542
22540SOL     OW69296   0.092   4.312   2.512  0.1995 -0.2562 -0.6694
22540SOL    HW169297   0.007   4.294   2.551  0.7658 -1.2634  0.1324
22540SOL    HW269298   0.105   4.406   2.523  0.6811 -0.6304  2.3114
22541SOL     OW69299   0.120   5.096   5.401 -0.3778  0.1809  0.2854
22541SOL    HW169300   0.036   5.124   5.439 -0.1514 -1.3403  1.9473
22541SOL    HW269301   0.099   5.017   5.352  0.1840 -0.6106  1.2921
22542SOL     OW69302   6.462   1.550   5.026  0.1317 -1.0590  0.2184
22542SOL    HW169303   6.446   1.478   4.966  2.5654 -1.1193 -0.4389
22542SOL    HW269304   6.454   1.512   5.114 -2.6909 -1.1379 -0.0337
22543SOL     OW69305   4.431   0.672   0.826  0.1511 -0.9294 -0.4582
22543SOL    HW169306   4.448   0.674   0.732  1.3435  0.4830 -0.2328
22543SOL    HW269307   4.396   0.758   0.846  1.0802 -0.7811  0.5953
22544SOL     OW69308   7.889   5.384   8.680  0.8419 -0.2918  0.2238
22544SOL    HW169309   7.936   5.455   8.724  0.7971 -0.2776  0.2490
22544SOL    HW269310   7.825   5.353   8.744  0.8062 -0.3003  0.1854
22545SOL     OW69311   1.582   3.880   2.896 -0.4167  0.5443  0.0966
22545SOL    HW169312   1.515   3.811   2.895 -1.0453  1.1439 -1.2217
22545SOL    HW269313   1.564   3.930   2.816  2.4696 -0.1312 -1.0348
22546SOL     OW69314   5.858   0.007   5.558 -0.4098 -0.0852 -0.7313
22546SOL    HW169315   5.797   0.054   5.502 -1.5177  0.0277  0.5437
22546SOL    HW269316   5.834  -0.085   5.549 -1.3183  0.0270  0.3813
22547SOL     OW69317   6.654   3.579   1.417  0.5507 -0.0993 -0.6978
22547SOL    HW169318   6.651   3.519   1.491  0.2643 -0.5928 -1.1018
22547SOL    HW269319   6.734   3.556   1.370  2.3914  2.2603  1.1328
22548SOL     OW69320   1.307   0.179   0.831 -0.1012  0.3864  0.3138
22548SOL    HW169321   1.295   0.176   0.736  0.5633 -1.0654  0.2628
22548SOL    HW269322   1.348   0.264   0.847 -0.9873  1.0025 -0.5940
22549SOL     OW69323   1.490   0.033   6.756  0.2106  0.0002 -0.5492
22549SOL    HW169324   1.474  -0.048   6.707  0.9132 -1.1056  1.0277
22549SOL    HW269325   1.403   0.070   6.769 -0.0385  0.0162 -2.1062
22550SOL     OW69326   3.323   2.575   3.827  0.4420 -0.4668  0.0124
22550SOL    HW169327   3.279   2.490   3.818  1.2595 -0.9239  0.3067
22550SOL    HW269328   3.381   2.564   3.902  1.0063  0.1600 -0.3301
22551SOL     OW69329   0.568   3.208   0.098  0.6989  0.2093  0.1693
22551SOL    HW169330   0.560   3.217   0.193  0.3178  0.4761  0.1107
22551SOL    HW269331   0.619   3.284   0.071  3.8183 -1.6557  0.5840
22552SOL     OW69332   7.446   6.806   3.377 -0.2446  0.0811  0.5456
22552SOL    HW169333   7.391   6.829   3.302  0.6995 -0.8890 -0.4541
22552SOL    HW269334   7.449   6.885   3.430  0.0726  1.1556 -1.0534
22553SOL     OW69335   2.115   9.071   8.305 -0.1454  0.3637 -0.1298
22553SOL    HW169336   2.110   8.994   8.361  0.3871 -0.4542 -1.1865
22553SOL    HW269337   2.209   9.081   8.286 -0.0066  2.3198  1.4243
22554SOL     OW69338   1.028   4.158   2.639 -0.3949  0.4742  0.1385
22554SOL    HW169339   1.068   4.072   2.625 -0.4902  0.6483 -1.2846
22554SOL    HW269340   1.003   4.187   2.551  0.6192  2.4241  0.4756
22555SOL     OW69341   7.471   8.310   1.482  0.3421 -0.2958  0.2919
22555SOL    HW169342   7.484   8.348   1.395  0.7202 -1.3028 -0.0951
22555SOL    HW269343   7.382   8.336   1.506 -0.0427 -0.6468 -0.7250
22556SOL     OW69344   3.086   3.511   6.363  0.0298  0.4167 -0.9449
22556SOL    HW169345   3.171   3.550   6.343  0.5246  0.9475  2.0308
22556SOL    HW269346   3.098   3.468   6.448 -1.9343 -1.8698 -1.7525
22557SOL     OW69347   0.523   8.798   2.488  0.3510  0.4033  0.4357
22557SOL    HW169348   0.578   8.799   2.566  0.6701  0.9415  0.1995
22557SOL    HW269349   0.465   8.722   2.501  2.1436 -1.0717 -0.0225
22558SOL     OW69350   6.499   0.838   7.087  0.0273  0.0380  0.5965
22558SOL    HW169351   6.551   0.770   7.042  1.2273  1.3334 -0.0173
22558SOL    HW269352   6.565   0.898   7.123 -1.0243  0.9105  1.0725
22559SOL     OW69353   1.442   6.525   5.327 -0.1237 -0.1498 -0.8841
22559SOL    HW169354   1.454   6.430   5.335  0.3769 -0.1621 -1.7800
22559SOL    HW269355   1.410   6.537   5.238 -2.4488  0.3085 -0.0445
22560SOL     OW69356   6.093   1.182   2.560  0.1438  0.0346  0.4304
22560SOL    HW169357   6.014   1.163   2.508  1.7124 -0.0213 -1.9956
22560SOL    HW269358   6.142   1.243   2.507  2.1577 -0.5785  1.5476
22561SOL     OW69359   9.007   3.859   7.144 -0.7212  0.5043 -0.1890
22561SOL    HW169360   9.036   3.912   7.070  1.5267 -1.3073 -0.6818
22561SOL    HW269361   9.076   3.793   7.154 -2.8638 -1.6191  1.0897
22562SOL     OW69362   8.063   7.763   5.802 -0.3426  0.2546 -0.0058
22562SOL    HW169363   8.044   7.791   5.713  1.7537 -0.5427 -0.7342
22562SOL    HW269364   8.140   7.814   5.827  0.7311 -1.4826  0.3335
22563SOL     OW69365   0.816   6.559   7.881 -0.1158  0.0100 -0.1267
22563SOL    HW169366   0.728   6.580   7.914 -0.0558  0.8588 -0.4749
22563SOL    HW269367   0.827   6.466   7.899 -0.5299  0.2015  1.2249
22564SOL     OW69368   0.006   2.294   2.403 -0.2238 -0.1685  0.1049
22564SOL    HW169369  -0.054   2.221   2.418  0.2824 -0.6207 -0.0582
22564SOL    HW269370   0.025   2.291   2.309 -1.9248  1.5238 -0.3227
22565SOL     OW69371   5.415   8.826   2.027  0.0816 -0.2458  0.3548
22565SOL    HW169372   5.401   8.825   2.122 -0.9586 -0.9554  0.2038
22565SOL    HW269373   5.366   8.751   1.994 -0.2490  0.4628 -0.8351
22566SOL     OW69374   4.833   5.202   7.486 -0.3727 -0.3143 -0.0021
22566SOL    HW169375   4.795   5.118   7.508  0.3249 -0.2683  1.4332
22566SOL    HW269376   4.881   5.228   7.565  0.6713  0.7088 -0.9579
22567SOL     OW69377   0.991   6.853   7.556 -0.0093 -0.0500 -0.3048
22567SOL    HW169378   1.046   6.923   7.592 -0.6741 -0.2848  1.1869
22567SOL    HW269379   1.011   6.776   7.609 -0.4841 -0.5894 -0.8929
22568SOL     OW69380   3.485   6.500   6.371  0.2559 -0.7248  0.0525
22568SOL    HW169381   3.563   6.500   6.426  0.3612  1.2220 -0.0414
22568SOL    HW269382   3.517   6.473   6.285  0.7744 -0.3096  0.1080
22569SOL     OW69383   4.189   5.783   3.643 -0.0137 -0.3766 -0.3042
22569SOL    HW169384   4.177   5.720   3.571 -0.6547 -0.4625 -0.1207
22569SOL    HW269385   4.241   5.853   3.604 -1.0962 -0.0119 -1.0955
22570SOL     OW69386   5.416   6.891   1.459  0.1220 -0.2036  0.3877
22570SOL    HW169387   5.476   6.817   1.460  0.7085  0.2694  0.4360
22570SOL    HW269388   5.369   6.884   1.376 -0.1299 -0.8742  0.5904
22571SOL     OW69389   4.677   8.997   2.540  0.3528  0.3349 -0.4097
22571SOL    HW169390   4.713   9.053   2.609  0.8838 -0.1595 -0.2820
22571SOL    HW269391   4.604   9.047   2.504 -0.9849 -0.0956  1.6188
22572SOL     OW69392   8.683   8.993   8.321 -0.4060  0.1153 -0.6591
22572SOL    HW169393   8.730   8.933   8.379  1.3781 -0.8321 -2.9802
22572SOL    HW269394   8.739   9.071   8.318  0.0820 -0.2594 -1.8958
22573SOL     OW69395   3.541   3.503   7.202 -0.3837 -0.1042  0.4480
22573SOL    HW169396   3.491   3.422   7.188 -0.9967  0.3844 -0.1916
22573SOL    HW269397   3.476   3.573   7.194  0.7680  0.6953 -2.6362
22574SOL     OW69398   3.298   5.824   7.091  0.1269 -0.0080 -0.7215
22574SOL    HW169399   3.301   5.729   7.099 -0.8873 -0.0397 -0.7436
22574SOL    HW269400   3.270   5.854   7.178  0.8082  0.2994 -0.5984
22575SOL     OW69401   3.914   1.058   5.682  0.2587  0.1949 -0.0746
22575SOL    HW169402   3.934   1.035   5.591  1.3618  0.0183  0.2070
22575SOL    HW269403   3.981   1.012   5.734  0.3496  1.2244  0.7372
22576SOL     OW69404   4.999   4.495   0.321 -0.1929 -0.6805  0.5457
22576SOL    HW169405   5.005   4.425   0.257 -0.6999 -1.1530  1.0145
22576SOL    HW269406   5.037   4.458   0.401  0.6164 -0.0321  0.4724
22577SOL     OW69407   0.493   3.109   3.096  0.1211  0.1901 -0.2533
22577SOL    HW169408   0.530   3.090   3.009  0.0524 -0.7533 -0.0763
22577SOL    HW269409   0.468   3.024   3.131 -0.2157  0.6092  0.5383
22578SOL     OW69410   4.843   4.359   3.736 -0.2720 -0.4510  0.3229
22578SOL    HW169411   4.853   4.283   3.794  0.1860  0.0235  0.8732
22578SOL    HW269412   4.866   4.326   3.649  0.8696 -0.7030  0.7177
22579SOL     OW69413   9.199   5.997   0.663 -0.2443  0.0538 -0.3642
22579SOL    HW169414   9.243   6.035   0.587 -2.8897  1.7362 -1.1325
22579SOL    HW269415   9.266   5.995   0.731  1.6787  0.2347 -2.1909
22580SOL     OW69416   3.708   5.595   8.435  0.4236 -0.7249  0.0685
22580SOL    HW169417   3.771   5.654   8.475 -0.0164 -0.3861  0.2748
22580SOL    HW269418   3.664   5.648   8.368 -1.3312 -0.2074  1.5698
22581SOL     OW69419   4.835   2.057   7.629 -0.2343 -0.1381  0.6631
22581SOL    HW169420   4.771   2.001   7.584 -0.1870 -0.6941  1.2678
22581SOL    HW269421   4.787   2.094   7.703  0.0073 -0.1662  0.8360
22582SOL     OW69422   2.096   5.852   3.484 -0.2735  0.7952  0.4748
22582SOL    HW169423   2.020   5.795   3.497  0.1513  0.1783  0.2522
22582SOL    HW269424   2.143   5.813   3.411 -0.5632  2.0568 -0.4032
22583SOL     OW69425   2.358   5.595   6.499  0.2403  0.7603 -0.0906
22583SOL    HW169426   2.397   5.539   6.432 -0.3609 -0.2647  0.4047
22583SOL    HW269427   2.271   5.615   6.466  0.3036  1.0699 -0.0733
22584SOL     OW69428   1.086   2.195   3.458 -0.4245  0.4126 -0.4520
22584SOL    HW169429   1.102   2.234   3.543  0.4805  0.6440 -0.7241
22584SOL    HW269430   0.999   2.155   3.465  0.2260 -0.7796  1.0185
22585SOL     OW69431   3.134   0.403   6.228 -0.0975  0.2593 -0.2521
22585SOL    HW169432   3.110   0.379   6.317  0.3611  1.9122  0.3307
22585SOL    HW269433   3.056   0.446   6.193 -0.6452 -1.3169 -1.0276
22586SOL     OW69434   2.429   6.722   3.987  0.6494 -0.1176 -0.2649
22586SOL    HW169435   2.412   6.674   3.906 -2.0845 -0.7438  0.6244
22586SOL    HW269436   2.440   6.654   4.054 -2.0393  0.3658  0.7723
22587SOL     OW69437   7.472   5.122   4.009 -0.5182  0.1134  0.9413
22587SOL    HW169438   7.407   5.059   4.042 -1.1797  0.3523  0.1245
22587SOL    HW269439   7.419   5.193   3.972  0.1714 -0.7001 -1.6815
22588SOL     OW69440   2.086   8.383   3.549  0.3633  0.3368 -0.1400
22588SOL    HW169441   2.072   8.452   3.613 -0.8869  0.7966 -0.8800
22588SOL    HW269442   2.144   8.422   3.483  0.1014  0.5003 -0.2737
22589SOL     OW69443   5.350   2.695   6.586 -0.1379 -0.1840 -0.1929
22589SOL    HW169444   5.315   2.612   6.555 -0.7859  0.5356 -1.4347
22589SOL    HW269445   5.403   2.728   6.514 -0.0919  0.6047  0.1919
22590SOL     OW69446   0.147   7.452   2.408 -0.3536 -0.0372  0.1519
22590SOL    HW169447   0.116   7.397   2.480  1.8802 -0.0749  1.1358
22590SOL    HW269448   0.217   7.401   2.367  1.1699  1.6787  0.5528
22591SOL     OW69449   4.446   6.252   9.239  0.2380 -0.2148  0.3509
22591SOL    HW169450   4.465   6.212   9.154 -2.2206 -0.0804 -0.3136
22591SOL    HW269451   4.451   6.346   9.222 -0.6954 -0.1803  0.2131
22592SOL     OW69452   4.617   4.541   4.566 -0.1091  0.3928 -0.3428
22592SOL    HW169453   4.594   4.479   4.635 -1.6069  0.9639 -0.3327
22592SOL    HW269454   4.679   4.492   4.511  0.4732 -0.3313  0.9344
22593SOL     OW69455   7.671   2.314   2.618  0.0259  0.0460  0.4484
22593SOL    HW169456   7.653   2.267   2.536 -0.0642  0.8016  0.0302
22593SOL    HW269457   7.635   2.257   2.686  0.5629 -0.8428  0.0133
22594SOL     OW69458   8.410   6.827   5.297 -0.4295 -0.0099  0.3864
22594SOL    HW169459   8.470   6.758   5.326  0.0675  0.2783  0.0533
22594SOL    HW269460   8.446   6.907   5.335 -0.6295  0.1594  0.2200
22595SOL     OW69461   1.524   5.570   4.449  0.7237 -0.1294 -0.1389
22595SOL    HW169462   1.447   5.535   4.494  0.5764  0.3979  0.0257
22595SOL    HW269463   1.487   5.623   4.378  0.8824  1.7498  1.1372
22596SOL     OW69464   3.893   6.553   1.215 -0.2492  0.1088 -0.0514
22596SOL    HW169465   3.889   6.631   1.270  1.1644 -1.3331  2.1375
22596SOL    HW269466   3.820   6.564   1.154 -0.7143  2.6277  0.8735
22597SOL     OW69467   3.309   4.459   8.943 -0.6886 -0.5904  0.2408
22597SOL    HW169468   3.303   4.552   8.966  1.0948 -0.1061 -1.1263
22597SOL    HW269469   3.293   4.456   8.849 -0.6147 -1.6705  0.2548
22598SOL     OW69470   8.799   3.286   8.793 -0.3974 -0.1504 -0.0004
22598SOL    HW169471   8.816   3.344   8.719  0.4487 -0.4039 -0.0094
22598SOL    HW269472   8.709   3.257   8.781 -0.7582  1.0001 -0.1076
22599SOL     OW69473   6.381   2.665   4.289 -0.0700 -0.3754  0.0347
22599SOL    HW169474   6.377   2.664   4.193  0.0718 -2.4523  0.0268
22599SOL    HW269475   6.294   2.697   4.316  0.7335  2.5978 -0.7860
22600SOL     OW69476   6.221   1.506   2.046  0.1240 -0.4383 -0.4715
22600SOL    HW169477   6.222   1.584   1.991 -0.9992 -0.2743 -0.2667
22600SOL    HW269478   6.200   1.538   2.134  0.5595 -0.8664 -0.2030
22601SOL     OW69479   6.915   5.128   1.200 -0.3430  0.7041  0.2429
22601SOL    HW169480   6.884   5.194   1.263 -0.0006 -0.1798  1.3497
22601SOL    HW269481   6.838   5.074   1.183 -0.3269  0.6882  0.2187
22602SOL     OW69482   0.358   5.911   6.587 -0.4334 -0.3311  0.2197
22602SOL    HW169483   0.434   5.853   6.588 -1.6090 -1.9250 -0.5452
22602SOL    HW269484   0.330   5.914   6.679  0.9053  0.7637  0.6071
22603SOL     OW69485   3.891   6.388   2.362 -0.5359  0.1599 -0.3560
22603SOL    HW169486   3.974   6.347   2.336 -0.7048 -0.3560 -0.0844
22603SOL    HW269487   3.828   6.361   2.296 -0.8629 -0.7883  0.3372
22604SOL     OW69488   7.737   2.304   3.920  0.0741  0.6342  0.6867
22604SOL    HW169489   7.756   2.385   3.873 -1.0508  0.9987  0.8417
22604SOL    HW269490   7.790   2.309   4.000 -0.6394  1.6126  1.0984
22605SOL     OW69491   1.437   5.699   4.160  0.4618  0.0529 -0.0134
22605SOL    HW169492   1.420   5.721   4.068  0.8233  1.0457  0.1518
22605SOL    HW269493   1.472   5.780   4.198  3.3908 -1.2768  0.1983
22606SOL     OW69494   1.941   5.676   7.085  0.2145 -0.3081 -0.6014
22606SOL    HW169495   1.981   5.745   7.139 -0.2834  0.5389 -1.3047
22606SOL    HW269496   1.952   5.596   7.137 -1.2428  0.6747  1.2675
22607SOL     OW69497   1.590   0.755   0.758 -0.3376 -0.1862 -0.0107
22607SOL    HW169498   1.502   0.736   0.789  0.0286 -0.3589  0.9467
22607SOL    HW269499   1.599   0.704   0.678 -0.5920 -1.3043  0.6694
22608SOL     OW69500   4.592   1.459   7.963 -0.6113 -0.0703 -0.8480
22608SOL    HW169501   4.645   1.538   7.968  0.0061 -0.5478  0.2472
22608SOL    HW269502   4.638   1.403   7.901  1.1688 -1.2218  1.4628
22609SOL     OW69503   4.948   8.629   8.985  0.7345  0.0067  1.2478
22609SOL    HW169504   5.026   8.577   9.006  0.4785 -1.8223 -1.9507
22609SOL    HW269505   4.876   8.566   8.987  0.1822  0.5325 -1.1807
22610SOL     OW69506   6.064   3.587   6.244 -0.3116 -0.5646 -0.0990
22610SOL    HW169507   6.120   3.510   6.238  0.9903  0.0337  3.2562
22610SOL    HW269508   5.978   3.553   6.269 -0.2876 -1.0917 -0.7353
22611SOL     OW69509   8.126   3.729   8.870 -1.0182 -0.0007  0.2092
22611SOL    HW169510   8.035   3.746   8.895 -0.3756 -0.3785  2.9222
22611SOL    HW269511   8.174   3.726   8.953  1.4929  0.2377 -1.1814
22612SOL     OW69512   3.842   4.081   5.031 -0.6444  0.1709 -0.1275
22612SOL    HW169513   3.804   4.040   4.953 -0.9390 -1.0549  0.6397
22612SOL    HW269514   3.770   4.127   5.073 -0.4474  0.9784 -0.6662
22613SOL     OW69515   3.375   3.635   6.533  0.0892  0.5737  0.3290
22613SOL    HW169516   3.402   3.627   6.441 -2.3062  0.8399 -0.4177
22613SOL    HW269517   3.318   3.559   6.548  0.0612  0.8070  1.4569
22614SOL     OW69518   7.645   4.639   7.943  0.0389  0.1503  0.1933
22614SOL    HW169519   7.576   4.696   7.908  0.2005  0.6564  0.6982
22614SOL    HW269520   7.726   4.673   7.905  0.3394  1.3826  1.9201
22615SOL     OW69521   7.658   3.502   2.008 -0.0297  0.0669  0.2248
22615SOL    HW169522   7.728   3.440   2.026 -1.1250 -1.3044 -0.1676
22615SOL    HW269523   7.612   3.466   1.933 -0.2211  1.7620 -0.5014
22616SOL     OW69524   8.672   2.381   7.084  0.5117  0.0735  0.2790
22616SOL    HW169525   8.615   2.304   7.087 -1.6175  1.6097  0.2913
22616SOL    HW269526   8.737   2.360   7.018 -0.0788 -1.7112  0.2375
22617SOL     OW69527   7.753   7.252   4.427  0.6720 -0.2231 -0.5541
22617SOL    HW169528   7.718   7.295   4.505  1.2054 -1.9692  0.6720
22617SOL    HW269529   7.722   7.306   4.354  0.0912  1.3846  0.8473
22618SOL     OW69530   4.066   1.975   6.562 -0.2101 -0.0151  0.1690
22618SOL    HW169531   4.149   2.021   6.577 -0.7461  0.7328  0.9575
22618SOL    HW269532   4.091   1.886   6.539  0.7998  0.0526  0.9795
22619SOL     OW69533   0.830   7.306   6.189 -0.6945 -0.3348  0.4569
22619SOL    HW169534   0.838   7.306   6.285 -1.4791 -1.2304  0.5233
22619SOL    HW269535   0.890   7.237   6.161  0.0761  0.4071  0.2463
22620SOL     OW69536   7.191   1.724   6.340  0.6038 -0.8860 -0.0535
22620SOL    HW169537   7.199   1.752   6.249  1.9514 -1.5558 -0.1573
22620SOL    HW269538   7.154   1.636   6.334  0.2762 -0.7596  0.0786
22621SOL     OW69539   1.738   1.293   6.604  0.2697  0.1465 -0.3680
22621SOL    HW169540   1.814   1.295   6.662  1.3917  1.7995 -1.8439
22621SOL    HW269541   1.693   1.212   6.627  2.4660 -0.8660  0.5678
22622SOL     OW69542   5.950   2.708   1.354  0.4797  0.2390  0.2118
22622SOL    HW169543   5.987   2.683   1.438 -0.4936  0.5405  0.7378
22622SOL    HW269544   5.952   2.804   1.353 -1.6825  0.3229  0.9089
22623SOL     OW69545   2.379   0.559   6.252 -0.0847  0.0597  0.4820
22623SOL    HW169546   2.314   0.584   6.186  1.2653  1.3523 -0.3705
22623SOL    HW269547   2.354   0.470   6.277  0.1214 -0.9385 -2.6854
22624SOL     OW69548   2.986   4.507   7.565  0.2414  0.3191  0.2567
22624SOL    HW169549   2.963   4.595   7.595  0.2404  0.3351  0.2086
22624SOL    HW269550   2.909   4.455   7.584  0.3616  0.2580  0.5886
22625SOL     OW69551   4.062   7.362   2.584  0.0724 -0.4140  0.1016
22625SOL    HW169552   4.112   7.375   2.664  0.0745 -1.9385  0.3699
22625SOL    HW269553   3.992   7.427   2.588  0.6952  0.2110  0.8237
22626SOL     OW69554   7.628   7.643   0.227  0.2283 -0.5919  0.8546
22626SOL    HW169555   7.548   7.631   0.278  0.3162  0.5469  1.2806
22626SOL    HW269556   7.659   7.730   0.252  0.2994 -0.0422 -1.1029
22627SOL     OW69557   3.966   3.959   5.911  0.6911 -0.5928 -0.0128
22627SOL    HW169558   3.948   3.896   5.841  0.5562 -0.4711 -0.0870
22627SOL    HW269559   3.989   4.039   5.865 -0.0037 -0.3376  0.0842
22628SOL     OW69560   7.679   6.130   5.610  0.0738  0.2828 -0.3737
22628SOL    HW169561   7.770   6.130   5.640  0.1992  1.2625 -0.7436
22628SOL    HW269562   7.680   6.182   5.530 -0.7808  0.1177 -0.4960
22629SOL     OW69563   4.293   4.180   7.673  0.5781 -0.3447 -0.2015
22629SOL    HW169564   4.298   4.176   7.769 -0.9045 -0.9619 -0.1319
22629SOL    HW269565   4.384   4.186   7.644  1.1312 -1.7112  1.1821
22630SOL     OW69566   7.570   4.013   6.332 -0.7583 -0.0143 -0.1398
22630SOL    HW169567   7.626   4.024   6.409 -1.7842  1.2718  0.4398
22630SOL    HW269568   7.558   3.919   6.325 -0.9893 -0.1230  1.5230
22631SOL     OW69569   6.158   4.322   0.804  0.2303  0.4826  0.0272
22631SOL    HW169570   6.162   4.412   0.836  0.6359  1.2016 -1.9611
22631SOL    HW269571   6.135   4.331   0.711  0.0021 -1.4770 -0.1232
22632SOL     OW69572   7.797   2.698   2.135  0.2953 -0.0770 -0.0882
22632SOL    HW169573   7.855   2.643   2.187 -0.9026 -2.2492 -0.9334
22632SOL    HW269574   7.741   2.742   2.199  0.4252 -0.8576  0.5732
22633SOL     OW69575   3.670   7.320   3.409 -0.0737  0.1404  0.5492
22633SOL    HW169576   3.646   7.389   3.347 -1.5372 -0.7375  0.0964
22633SOL    HW269577   3.757   7.345   3.441  1.1831  0.0630 -2.6479
22634SOL     OW69578   0.280   3.789   4.976 -0.0636 -0.5982  0.5788
22634SOL    HW169579   0.260   3.859   5.039  0.6707 -0.5688  0.7847
22634SOL    HW269580   0.297   3.712   5.031  0.2731 -0.6499  0.4022
22635SOL     OW69581   4.462   4.155   4.163  0.0583  0.4462  0.2468
22635SOL    HW169582   4.446   4.175   4.255  0.9127 -0.4839  0.6106
22635SOL    HW269583   4.446   4.060   4.156  3.5312 -0.2177  0.2650
22636SOL     OW69584   3.553   5.380   2.416 -0.2974  0.0852 -0.7021
22636SOL    HW169585   3.524   5.289   2.422  1.1625 -0.3304  0.1402
22636SOL    HW269586   3.646   5.375   2.395  0.1975  1.3419  1.0251
22637SOL     OW69587   3.317   4.528   4.344 -0.5860  0.0580 -0.6083
22637SOL    HW169588   3.371   4.603   4.368 -1.4007  0.7600 -0.9656
22637SOL    HW269589   3.353   4.500   4.259 -1.0648  0.8103 -1.0700
22638SOL     OW69590   2.591   2.154   7.456 -0.5043 -0.0082  0.3285
22638SOL    HW169591   2.607   2.164   7.362  0.7560 -1.2916  0.3991
22638SOL    HW269592   2.678   2.151   7.495 -0.9309 -3.2457  1.1356
22639SOL     OW69593   7.210   3.289   6.991  0.6624 -0.2444  0.3112
22639SOL    HW169594   7.271   3.216   6.997 -2.2052 -2.5449  2.7115
22639SOL    HW269595   7.175   3.300   7.079 -0.5526  2.6730 -0.4356
22640SOL     OW69596   1.953   7.988   7.512  0.0287  0.0838  0.1754
22640SOL    HW169597   1.989   8.057   7.568 -2.1485  1.2506  0.1797
22640SOL    HW269598   1.902   8.035   7.446  0.7293 -1.3994 -1.4697
22641SOL     OW69599   5.485   1.265   1.522  0.4068  0.1642 -0.0397
22641SOL    HW169600   5.549   1.335   1.508  1.1441 -0.2567  1.2171
22641SOL    HW269601   5.405   1.311   1.549  0.6800  0.5687  0.0885
22642SOL     OW69602   5.280   1.612   4.152  0.1790 -0.0520  0.1229
22642SOL    HW169603   5.227   1.552   4.205  1.5222 -0.6341  0.8360
22642SOL    HW269604   5.291   1.689   4.208  1.6815 -0.7055  0.7570
22643SOL     OW69605   4.234   7.495   2.113 -0.1002  0.3097  0.3174
22643SOL    HW169606   4.317   7.483   2.158  0.5549  1.3430 -0.5634
22643SOL    HW269607   4.258   7.534   2.029 -1.4284  0.0767 -0.1857
22644SOL     OW69608   6.337   5.824   3.222 -0.2400 -0.0391 -0.0512
22644SOL    HW169609   6.345   5.800   3.314  2.2027  2.7337  0.5371
22644SOL    HW269610   6.314   5.743   3.178  0.0165 -1.7206  2.7967
22645SOL     OW69611   1.413   5.638   8.616 -0.3572  0.5415 -0.6150
22645SOL    HW169612   1.486   5.687   8.654  0.2581 -0.1870 -0.8524
22645SOL    HW269613   1.432   5.634   8.522 -0.5080  0.0259 -0.6269
22646SOL     OW69614   4.618   8.750   8.017 -0.1361 -0.1361  0.5599
22646SOL    HW169615   4.599   8.676   8.074  2.4724 -0.2144  1.3945
22646SOL    HW269616   4.709   8.736   7.990 -0.8257  0.7328 -2.3672
22647SOL     OW69617   3.328   4.988   3.823  0.2112 -0.1451  0.4961
22647SOL    HW169618   3.353   4.899   3.849  0.1906 -0.9862 -2.2742
22647SOL    HW269619   3.253   4.976   3.765  0.5081  1.6692 -0.2836
22648SOL     OW69620   8.578   2.661   8.736 -0.0194 -0.3724  0.1786
22648SOL    HW169621   8.673   2.649   8.727  0.3717  0.7728  2.3540
22648SOL    HW269622   8.545   2.575   8.761  0.6679 -0.4707  0.7771
22649SOL     OW69623   8.763   0.637   7.721  0.2465 -0.0200 -0.3875
22649SOL    HW169624   8.765   0.578   7.646  1.9670 -0.8904  0.3128
22649SOL    HW269625   8.768   0.579   7.797  0.8002  0.9658  0.3419
22650SOL     OW69626   1.121   3.623   0.698 -0.6734  0.2459  0.5529
22650SOL    HW169627   1.160   3.672   0.770  0.6253  0.4007 -0.2380
22650SOL    HW269628   1.124   3.682   0.623  0.7649 -0.9517 -0.3723
22651SOL     OW69629   4.420   3.276   6.443 -0.0634 -0.1747  0.4431
22651SOL    HW169630   4.490   3.212   6.451 -0.1981 -0.2685  0.8821
22651SOL    HW269631   4.353   3.247   6.505 -1.5981 -1.5013 -1.7845
22652SOL     OW69632   6.212   0.778   7.921 -0.6917 -0.5934  0.0051
22652SOL    HW169633   6.230   0.778   8.015  1.1659  1.4093 -0.3192
22652SOL    HW269634   6.201   0.870   7.899  0.3254 -0.9411 -2.0101
22653SOL     OW69635   0.349   8.802   1.775  0.1391  0.0445 -0.4130
22653SOL    HW169636   0.327   8.805   1.868 -0.0816  0.9861 -0.4915
22653SOL    HW269637   0.443   8.820   1.772 -0.3715  2.9468 -0.5599
22654SOL     OW69638   7.692   5.294   4.680  0.1212 -0.2986 -0.1526
22654SOL    HW169639   7.730   5.345   4.609  1.5329 -1.4882 -0.2606
22654SOL    HW269640   7.724   5.336   4.760 -1.7088  1.2246 -0.1696
22655SOL     OW69641   3.943   2.354   6.717  0.2881  0.4372 -0.1050
22655SOL    HW169642   3.863   2.320   6.757  0.6007  0.7888  0.8356
22655SOL    HW269643   4.014   2.319   6.772  0.7751  0.1832 -0.8921
22656SOL     OW69644   1.487   6.385   1.059 -0.7656 -0.5112  0.0238
22656SOL    HW169645   1.544   6.363   0.985 -0.2286  2.8783 -0.6623
22656SOL    HW269646   1.545   6.386   1.135  0.0639  2.4881 -0.6022
22657SOL     OW69647   5.523   1.366   6.318 -0.4299  0.2178 -0.0238
22657SOL    HW169648   5.596   1.422   6.293  0.4625 -0.0997  1.7593
22657SOL    HW269649   5.448   1.425   6.323 -0.6297  0.3029 -3.2460
22658SOL     OW69650   6.879   9.186   8.068  0.0722  0.2978 -0.2550
22658SOL    HW169651   6.814   9.125   8.034 -0.8518  2.0486 -1.6942
22658SOL    HW269652   6.845   9.273   8.047  2.5120  1.2696 -0.4284
22659SOL     OW69653   2.603   5.897   0.709  0.2344  0.2877  0.0603
22659SOL    HW169654   2.655   5.944   0.643  2.0082 -2.4689 -0.5991
22659SOL    HW269655   2.622   5.943   0.791  0.2714  2.0002 -0.8822
22660SOL     OW69656   7.635   7.943   0.209 -0.2474 -0.3332  0.2464
22660SOL    HW169657   7.610   7.921   0.119  0.9500 -0.8130  0.0161
22660SOL    HW269658   7.557   7.983   0.247 -1.1783 -1.3338 -0.5884
22661SOL     OW69659   1.879   8.066   4.918  0.5455 -0.2525 -0.2884
22661SOL    HW169660   1.944   8.062   4.848  0.2793 -1.0670 -0.4906
22661SOL    HW269661   1.809   8.122   4.883  1.8930  2.0414  0.5726
22662SOL     OW69662   6.274   0.859   8.210  0.3436 -0.3167 -0.1169
22662SOL    HW169663   6.325   0.803   8.269  2.1801  1.5642  0.1254
22662SOL    HW269664   6.336   0.927   8.182 -1.4009  0.6597 -1.6822
22663SOL     OW69665   7.373   2.251   1.931 -0.1637 -0.4559 -1.0468
22663SOL    HW169666   7.291   2.268   1.886  0.1457 -0.7400 -1.7184
22663SOL    HW269667   7.437   2.240   1.861  0.2055 -1.4710 -0.5596
22664SOL     OW69668   1.654   2.908   2.948  0.2295 -0.4181 -0.4041
22664SOL    HW169669   1.664   2.934   2.857  0.7981 -2.5189 -0.9865
22664SOL    HW269670   1.590   2.969   2.985  0.9266  1.2318 -1.8589
22665SOL     OW69671   6.684   6.155   8.192  0.2953  0.4245  0.5464
22665SOL    HW169672   6.629   6.146   8.114  1.3643 -0.5260 -0.1099
22665SOL    HW269673   6.637   6.108   8.260  0.4284 -0.6393 -0.0869
22666SOL     OW69674   2.630   1.619   5.599 -0.0278 -0.0625 -0.2933
22666SOL    HW169675   2.552   1.600   5.651 -0.2750  1.8010  0.0368
22666SOL    HW269676   2.703   1.596   5.656 -0.3186 -0.4556 -0.0740
22667SOL     OW69677   0.380   8.263   3.129 -0.6316 -1.0141 -0.5842
22667SOL    HW169678   0.374   8.298   3.040 -2.0508 -2.1322 -0.9412
22667SOL    HW269679   0.298   8.290   3.171  0.2226 -0.1104  0.5432
22668SOL     OW69680   9.092   6.505   2.705  0.6517  1.1983  0.1729
22668SOL    HW169681   9.059   6.584   2.750 -0.4848  0.9828 -0.2725
22668SOL    HW269682   9.167   6.537   2.654  1.5462  1.5752  1.6909
22669SOL     OW69683   3.177   7.782   3.430  0.6491 -0.3221 -0.3592
22669SOL    HW169684   3.148   7.713   3.370  0.5044 -1.4966  1.0386
22669SOL    HW269685   3.099   7.834   3.447 -0.0569 -1.9250  1.3519
22670SOL     OW69686   6.642   7.498   4.755  0.2871 -0.4749 -0.3500
22670SOL    HW169687   6.633   7.539   4.840  1.1657 -0.6027 -0.1870
22670SOL    HW269688   6.629   7.404   4.772  0.7092 -0.5299 -0.3040
22671SOL     OW69689   7.739   4.206   5.767  0.2377  0.1365  0.2244
22671SOL    HW169690   7.776   4.293   5.783 -1.3818  0.8523  0.2188
22671SOL    HW269691   7.767   4.153   5.842  1.6843  0.5133 -0.0477
22672SOL     OW69692   3.553   3.563   4.740 -0.4482 -0.0941 -0.1998
22672SOL    HW169693   3.604   3.604   4.670 -1.9924 -1.6249 -2.2913
22672SOL    HW269694   3.617   3.510   4.788  0.6343  0.9623 -0.4691
22673SOL     OW69695   1.376   3.884   6.337 -0.3152 -0.7412  0.1066
22673SOL    HW169696   1.307   3.892   6.403  0.3889  0.1325  0.7609
22673SOL    HW269697   1.418   3.800   6.357 -1.6034 -1.6005 -0.7228
22674SOL     OW69698   5.507   1.463   5.178  0.3192  0.1848  0.5505
22674SOL    HW169699   5.603   1.465   5.182  0.3040  0.1106  0.9459
22674SOL    HW269700   5.482   1.555   5.172  0.4900  0.1259 -1.4031
22675SOL     OW69701   0.990   1.388   2.295  0.7600  0.5793  0.2404
22675SOL    HW169702   1.060   1.452   2.312  0.8397  0.8374 -0.9973
22675SOL    HW269703   1.000   1.323   2.365  1.2737  1.4194  0.9683
22676SOL     OW69704   3.531   8.871   0.260  0.4678 -0.4444 -0.0430
22676SOL    HW169705   3.594   8.829   0.318 -0.3903 -2.8372 -0.7720
22676SOL    HW269706   3.585   8.916   0.194  1.4055 -0.8872  0.4145
22677SOL     OW69707   0.098   2.305   2.121  0.0604  0.0170  0.4494
22677SOL    HW169708   0.076   2.301   2.029 -0.5165 -0.3797  0.6070
22677SOL    HW269709   0.184   2.262   2.128 -0.0266 -0.1989  0.1474
22678SOL     OW69710   8.887   5.884   1.814 -0.1611 -0.0139 -0.1870
22678SOL    HW169711   8.916   5.952   1.754  0.6180  0.3220  0.5461
22678SOL    HW269712   8.947   5.891   1.889  0.7345 -2.2979 -0.6223
22679SOL     OW69713   2.404   5.903   5.920 -0.8211 -0.5283 -0.5164
22679SOL    HW169714   2.348   5.839   5.962 -1.1631  0.7934  1.1116
22679SOL    HW269715   2.345   5.973   5.893 -0.1918  0.1030 -0.2917
22680SOL     OW69716   9.017   3.568   7.921 -1.1927 -0.3254 -0.1825
22680SOL    HW169717   9.007   3.589   7.828 -1.5333  0.7212  0.0870
22680SOL    HW269718   9.097   3.615   7.947 -0.4930 -1.4942 -0.2039
22681SOL     OW69719   4.639   1.471   0.140  0.3875 -0.1034  0.2233
22681SOL    HW169720   4.573   1.463   0.208  1.7227  1.1141  1.6999
22681SOL    HW269721   4.659   1.564   0.137  1.8430 -0.4245 -0.3798
22682SOL     OW69722   2.677   0.767   5.988 -0.2648  0.5000  0.2871
22682SOL    HW169723   2.693   0.718   5.907 -1.8078  0.5363 -0.0664
22682SOL    HW269724   2.712   0.854   5.971  1.7291 -0.2163  0.6057
22683SOL     OW69725   4.215   8.343   7.133 -0.4358 -0.1360 -0.4038
22683SOL    HW169726   4.147   8.297   7.084 -1.0733  0.3468  0.0201
22683SOL    HW269727   4.210   8.433   7.102 -1.0047  0.2261  0.7055
22684SOL     OW69728   7.617   5.013   5.031  0.3389 -0.5793 -0.1874
22684SOL    HW169729   7.646   5.104   5.030  1.2841 -0.8728  0.2218
22684SOL    HW269730   7.601   4.992   4.938  0.8359 -0.2201 -0.3555
22685SOL     OW69731   4.781   1.465   1.633 -0.5178  0.1731  0.3697
22685SOL    HW169732   4.821   1.524   1.698 -0.3234 -0.1159  0.5115
22685SOL    HW269733   4.838   1.473   1.556 -0.8915  0.7097  0.1445
22686SOL     OW69734   5.278   7.761   9.059 -0.4230 -0.2039 -0.5726
22686SOL    HW169735   5.209   7.800   9.006  1.3413  3.5191 -0.3132
22686SOL    HW269736   5.236   7.745   9.144 -0.5728  3.8543  0.2188
22687SOL     OW69737   1.103   7.263   8.923  0.3072 -0.1186  0.1239
22687SOL    HW169738   1.064   7.324   8.986 -0.6678  0.3273 -0.8993
22687SOL    HW269739   1.032   7.240   8.864  1.7897  1.4389 -2.3502
22688SOL     OW69740   6.891   5.599   1.019 -0.1736 -0.3618 -0.0957
22688SOL    HW169741   6.892   5.504   1.017  1.3318 -0.3453 -0.5119
22688SOL    HW269742   6.983   5.625   1.017 -0.5657  1.1069 -0.3091
22689SOL     OW69743   6.222   6.542   1.496  0.0329  0.2008  0.1858
22689SOL    HW169744   6.286   6.499   1.438 -1.1895 -2.5540  0.7991
22689SOL    HW269745   6.138   6.531   1.452 -0.5615  0.3241  1.2624
22690SOL     OW69746   8.683   1.951   0.737  0.0784  0.1088  0.1546
22690SOL    HW169747   8.634   2.030   0.761 -1.6686 -0.6181 -0.8895
22690SOL    HW269748   8.675   1.946   0.642  1.5215 -0.4741  0.0605
22691SOL     OW69749   6.952   3.346   7.862 -0.1577  0.5923  0.4836
22691SOL    HW169750   6.918   3.306   7.782 -0.7244 -0.6812  1.3346
22691SOL    HW269751   7.047   3.331   7.858 -0.1630  0.7155 -0.0452
22692SOL     OW69752   8.977   5.102   1.162  0.3784  0.0878 -0.0080
22692SOL    HW169753   9.071   5.120   1.158  0.1125  2.0883  1.6997
22692SOL    HW269754   8.937   5.188   1.175 -1.4241 -1.1315  2.9370
22693SOL     OW69755   4.885   0.745   0.110 -0.2946  0.3039 -0.5238
22693SOL    HW169756   4.979   0.745   0.093  0.0147  0.4179  1.0957
22693SOL    HW269757   4.877   0.782   0.198 -1.7612 -0.6802 -0.2342
22694SOL     OW69758   1.340   6.008   6.704  0.2447 -0.0721 -0.1906
22694SOL    HW169759   1.377   5.921   6.692  2.9089  0.8691  0.9836
22694SOL    HW269760   1.315   6.011   6.796 -1.4566 -0.1739 -0.6256
22695SOL     OW69761   0.953   2.861   8.477  0.2458 -0.8136 -0.1699
22695SOL    HW169762   0.979   2.834   8.565  1.5718  1.0574  0.0305
22695SOL    HW269763   1.033   2.894   8.436 -0.9350  1.1131 -1.0200
22696SOL     OW69764   5.820   5.697   0.195 -0.1407  0.3680 -0.1737
22696SOL    HW169765   5.835   5.788   0.168  0.3595  0.6195  0.9395
22696SOL    HW269766   5.788   5.703   0.285  1.3276 -0.6194  0.4392
22697SOL     OW69767   1.364   7.622   7.182 -0.0231 -0.5132  0.3685
22697SOL    HW169768   1.456   7.631   7.207  0.1376 -1.9159  0.3562
22697SOL    HW269769   1.365   7.555   7.113 -0.7322  1.5379 -1.6784
22698SOL     OW69770   7.302   4.184   1.551 -0.6743 -0.2881  0.1175
22698SOL    HW169771   7.245   4.204   1.477 -3.5549 -1.7741  1.8285
22698SOL    HW269772   7.289   4.090   1.566  2.0818 -0.6105  0.7217
22699SOL     OW69773   9.287   2.146   6.157  0.2755 -0.8050 -0.1277
22699SOL    HW169774   9.360   2.133   6.096 -0.9616  0.7874 -2.0187
22699SOL    HW269775   9.226   2.076   6.137  1.0996 -1.9181  1.2017
22700SOL     OW69776   5.444   2.590   6.272 -0.5557  0.0676 -0.4041
22700SOL    HW169777   5.473   2.570   6.183  2.0545 -1.2226  0.6781
22700SOL    HW269778   5.377   2.524   6.290 -0.3482 -0.3405 -1.0659
22701SOL     OW69779   2.809   1.430   1.425  0.6702  0.0189  0.3025
22701SOL    HW169780   2.786   1.339   1.444  1.4871 -0.0609  0.9816
22701SOL    HW269781   2.793   1.441   1.332 -0.7056 -0.4378  0.4845
22702SOL     OW69782   6.024   4.178   5.774  0.2092  0.2226  0.0471
22702SOL    HW169783   6.035   4.236   5.849 -1.2179  1.0736 -0.3767
22702SOL    HW269784   6.022   4.236   5.698 -0.9121 -0.3937 -0.4160
22703SOL     OW69785   8.624   5.815   1.166  0.0087  0.0678 -0.6557
22703SOL    HW169786   8.578   5.899   1.172  0.1426  0.1578 -0.8840
22703SOL    HW269787   8.706   5.830   1.214  0.7232  0.5394 -2.0017
22704SOL     OW69788   5.170   3.054   8.544 -0.0778 -0.2127  0.7561
22704SOL    HW169789   5.213   3.088   8.623  0.7431  1.4292 -0.3701
22704SOL    HW269790   5.163   2.960   8.559  2.2354 -0.2508  1.7849
22705SOL     OW69791   1.411   2.852   3.616 -0.1397  0.5110 -0.5619
22705SOL    HW169792   1.398   2.935   3.661  0.0275  0.0776  0.2936
22705SOL    HW269793   1.497   2.859   3.575 -1.3441  1.8760 -2.9399
22706SOL     OW69794   5.051   3.360   0.860 -0.1752 -0.1235  0.1914
22706SOL    HW169795   5.063   3.410   0.941 -1.2735 -0.0219  0.2948
22706SOL    HW269796   4.973   3.397   0.820  0.1059 -0.4801 -0.6943
22707SOL     OW69797   4.921   3.756   2.791  0.3249  0.3327  0.0274
22707SOL    HW169798   4.970   3.727   2.867 -0.1552  1.5030  0.7978
22707SOL    HW269799   4.987   3.774   2.724  0.7099 -1.1364  0.0101
22708SOL     OW69800   4.790   2.873   0.958  0.4575  0.3709 -0.0803
22708SOL    HW169801   4.872   2.869   1.008 -0.6267  0.6962  1.7642
22708SOL    HW269802   4.731   2.924   1.013 -0.6064  1.2082 -1.9607
22709SOL     OW69803   7.434   1.463   3.594  0.0707  0.5693  0.0203
22709SOL    HW169804   7.366   1.472   3.661  1.6179  1.0118  1.5788
22709SOL    HW269805   7.427   1.372   3.564 -0.4777  0.2944  0.9682
22710SOL     OW69806   1.105   9.103   5.620  0.1936  0.4902 -0.7359
22710SOL    HW169807   1.187   9.151   5.632 -0.1663  0.6052  1.5088
22710SOL    HW269808   1.088   9.062   5.705 -2.6756  1.4286 -0.7979
22711SOL     OW69809   8.783   3.805   9.120  0.2907  0.2730  0.5018
22711SOL    HW169810   8.717   3.829   9.186 -0.3011 -3.7409  1.4748
22711SOL    HW269811   8.733   3.798   9.038  0.0687  0.2663  0.6372
22712SOL     OW69812   1.117   3.137   0.339 -0.5560  0.0384 -0.3270
22712SOL    HW169813   1.160   3.078   0.402 -0.4744 -0.7152 -1.0831
22712SOL    HW269814   1.057   3.081   0.290 -1.1130  0.7531 -0.4791
22713SOL     OW69815   3.789   2.173   0.465  0.4642  0.0816  0.2858
22713SOL    HW169816   3.762   2.097   0.413 -0.2953 -1.3287  2.6897
22713SOL    HW269817   3.878   2.154   0.491 -0.2295 -0.7088  2.1418
22714SOL     OW69818   0.882   3.117   2.218  0.1434 -0.9528  0.5874
22714SOL    HW169819   0.907   3.035   2.260  1.1659 -0.1694  1.5139
22714SOL    HW269820   0.939   3.123   2.142  0.2399 -0.9683  0.6591
22715SOL     OW69821   8.814   1.771   3.944 -0.5420  0.4441 -0.1642
22715SOL    HW169822   8.808   1.818   3.861 -0.4247 -1.6925 -1.4203
22715SOL    HW269823   8.755   1.696   3.933  0.9348 -0.9057  0.9674
22716SOL     OW69824   8.624   2.453   7.971 -0.0735 -0.7336  0.1219
22716SOL    HW169825   8.617   2.494   7.885 -0.3120 -1.1799 -0.0727
22716SOL    HW269826   8.709   2.483   8.005  0.1374 -0.7619 -0.3738
22717SOL     OW69827   7.496   4.127   8.005  0.1406 -0.5234  0.0475
22717SOL    HW169828   7.583   4.137   8.043  0.3761  2.3986 -1.1795
22717SOL    HW269829   7.442   4.095   8.078  2.1520 -2.1585  0.8758
22718SOL     OW69830   7.967   0.193   2.062 -0.1256  0.0371 -0.1701
22718SOL    HW169831   7.934   0.213   1.974 -0.8040 -0.4287 -0.0260
22718SOL    HW269832   7.949   0.272   2.112  1.9810  1.0188 -0.9113
22719SOL     OW69833   4.580   0.265   4.747  0.0984  0.1318  0.0872
22719SOL    HW169834   4.566   0.251   4.654  0.7570 -0.6305  0.0898
22719SOL    HW269835   4.501   0.230   4.789  0.6234 -1.3238 -0.0748
22720SOL     OW69836   5.433   6.345   7.671  0.4422 -0.5231  0.1848
22720SOL    HW169837   5.500   6.380   7.730 -0.9732 -1.7125  2.5849
22720SOL    HW269838   5.406   6.420   7.618  0.6569  0.9639  2.1208
22721SOL     OW69839   1.508   2.256   0.921 -0.0132  0.2809 -0.2208
22721SOL    HW169840   1.465   2.316   0.983  1.4514  2.7866 -1.5992
22721SOL    HW269841   1.438   2.196   0.895 -1.0688  0.1901  2.5622
22722SOL     OW69842   7.031   7.480   3.960  0.0469  0.0777  0.0285
22722SOL    HW169843   6.968   7.410   3.938  0.0303  0.1287 -0.0878
22722SOL    HW269844   6.981   7.561   3.949  0.0272  0.1000  0.2990
22723SOL     OW69845   2.603   6.190   7.757  0.0066  0.2234  0.4105
22723SOL    HW169846   2.698   6.194   7.759  0.0634 -0.7851 -0.0481
22723SOL    HW269847   2.576   6.276   7.723  0.6857  1.0010  1.7904
22724SOL     OW69848   1.597   2.084   4.704  0.2442 -0.0262 -0.7423
22724SOL    HW169849   1.608   2.012   4.766  4.1442  1.3784  0.3486
22724SOL    HW269850   1.517   2.128   4.733  0.1291 -1.4326  1.1587
22725SOL     OW69851   6.172   8.632   6.649  0.1252  0.0248  0.1067
22725SOL    HW169852   6.266   8.649   6.659 -0.1520  0.5152  2.0674
22725SOL    HW269853   6.167   8.563   6.582  1.9200 -0.6118  0.6018
22726SOL     OW69854   7.828   1.574   8.518  0.0401  0.0755  0.5211
22726SOL    HW169855   7.791   1.602   8.435 -3.1450 -2.3908  1.0306
22726SOL    HW269856   7.922   1.591   8.509 -0.4113  1.0214 -3.0726
22727SOL     OW69857   4.173   5.943   7.920 -0.1811  0.0318  0.2851
22727SOL    HW169858   4.113   5.976   7.853 -0.3814 -0.8605  0.0206
22727SOL    HW269859   4.250   6.000   7.913  0.8249 -1.5795 -2.3924
22728SOL     OW69860   7.495   3.670   4.412 -0.8642  0.3816  0.3016
22728SOL    HW169861   7.568   3.683   4.351 -2.0521  0.8004 -1.0720
22728SOL    HW269862   7.519   3.594   4.463  0.7579  0.8026  0.1859
22729SOL     OW69863   2.779   5.710   6.669  0.3852 -0.0975 -0.7398
22729SOL    HW169864   2.751   5.732   6.757 -0.7573 -0.3578 -1.0347
22729SOL    HW269865   2.728   5.768   6.612  0.3403 -0.6739 -1.2923
22730SOL     OW69866   9.243   0.955   5.496 -0.4145  0.2536  0.1517
22730SOL    HW169867   9.300   0.922   5.566  0.8653 -1.3563 -1.5939
22730SOL    HW269868   9.268   1.047   5.487  1.2131 -0.1630  0.1341
22731SOL     OW69869   8.419   5.526   8.874  0.3584 -0.6980  0.2067
22731SOL    HW169870   8.404   5.608   8.826  0.0630 -0.8648  0.0060
22731SOL    HW269871   8.441   5.553   8.963 -1.9535 -0.4461  0.7368
22732SOL     OW69872   0.847   4.493   2.103  0.2263 -0.4960  0.3605
22732SOL    HW169873   0.844   4.416   2.160  0.2345  0.4002  1.5989
22732SOL    HW269874   0.771   4.544   2.128  0.4663  0.1096 -0.1481
22733SOL     OW69875   5.975   1.270   4.395  0.3273 -0.3542  0.5578
22733SOL    HW169876   5.991   1.364   4.383  0.3494 -0.3108  0.9110
22733SOL    HW269877   5.880   1.261   4.386  0.6545 -0.8333 -3.0326
22734SOL     OW69878   3.315   9.103   7.625  0.0346 -0.0675 -0.7541
22734SOL    HW169879   3.400   9.078   7.660 -0.6943 -1.9976 -0.3302
22734SOL    HW269880   3.288   9.028   7.572 -1.1559  0.7751 -1.3598
22735SOL     OW69881   0.076   6.149   5.475  0.6459  0.5510 -0.2327
22735SOL    HW169882   0.024   6.221   5.510  1.0471 -0.0935  1.7358
22735SOL    HW269883   0.038   6.070   5.515  0.7957 -0.2534 -1.6406
22736SOL     OW69884   4.321   5.868   1.364 -0.4775  0.2569  0.2271
22736SOL    HW169885   4.262   5.793   1.364  0.0381 -0.1812 -1.7966
22736SOL    HW269886   4.345   5.880   1.272  0.3958  2.1596  0.6714
22737SOL     OW69887   6.035   8.432   6.980  0.4876  0.2450  0.8302
22737SOL    HW169888   6.130   8.423   6.983  0.3908 -0.7352  1.1339
22737SOL    HW269889   6.020   8.515   6.934  1.4760 -0.3474 -0.5888
22738SOL     OW69890   4.171   5.180   2.971 -0.4367  0.3973  0.1454
22738SOL    HW169891   4.154   5.113   3.038 -0.8673  1.2102  0.8530
22738SOL    HW269892   4.092   5.235   2.972  0.7633  2.1382  1.0059
22739SOL     OW69893   0.878   1.877   4.420  0.0978  0.6456 -0.2292
22739SOL    HW169894   0.809   1.874   4.353  3.0254  0.3986 -3.3570
22739SOL    HW269895   0.886   1.970   4.441 -0.0431  0.8622 -1.1006
22740SOL     OW69896   1.706   1.980   4.225  0.0812  0.0381 -0.5729
22740SOL    HW169897   1.689   1.886   4.235 -0.0632 -0.0800 -1.8464
22740SOL    HW269898   1.649   2.022   4.290 -0.7838 -0.6826 -0.8607
22741SOL     OW69899   8.686   3.227   7.935 -0.0591  0.4007 -0.5996
22741SOL    HW169900   8.693   3.173   7.856  0.5116  2.2310 -1.8133
22741SOL    HW269901   8.776   3.254   7.953 -0.1495 -0.1895  0.8393
22742SOL     OW69902   0.840   3.305   0.989  0.2435 -0.1295  0.2728
22742SOL    HW169903   0.907   3.287   0.923  0.3387  1.0873  0.0309
22742SOL    HW269904   0.758   3.308   0.940  0.2522  0.2674  0.2780
22743SOL     OW69905   4.479   8.858   0.495 -0.3974  0.1734 -0.2786
22743SOL    HW169906   4.518   8.845   0.408 -0.8839 -0.7040 -0.3704
22743SOL    HW269907   4.385   8.843   0.482 -0.4673 -0.0064  0.4074
22744SOL     OW69908   5.508   8.725   3.055  0.2104 -0.0108 -0.6021
22744SOL    HW169909   5.584   8.710   2.998  1.4275  1.9575  0.4217
22744SOL    HW269910   5.469   8.639   3.066  0.9244 -0.7000 -3.0514
22745SOL     OW69911   1.873   7.326   6.946 -0.0643  0.6110 -0.3201
22745SOL    HW169912   1.895   7.236   6.921 -0.5254 -0.1449  1.8770
22745SOL    HW269913   1.956   7.366   6.969 -0.3442 -0.9000  3.7339
22746SOL     OW69914   2.040   6.636   1.962  0.2892 -0.0388 -0.6479
22746SOL    HW169915   1.973   6.596   2.018 -0.5182 -0.4488 -1.8770
22746SOL    HW269916   2.056   6.570   1.894 -0.9012  1.6052 -2.5784
22747SOL     OW69917   8.364   7.216   2.570  0.5704 -0.3063  0.9229
22747SOL    HW169918   8.438   7.264   2.609  0.2478 -0.7307  2.0941
22747SOL    HW269919   8.388   7.124   2.578  0.6100 -0.3921 -0.1352
22748SOL     OW69920   0.906   5.225   3.762 -0.1673 -0.7443  0.0029
22748SOL    HW169921   0.913   5.314   3.798 -2.3950 -0.4000 -0.3513
22748SOL    HW269922   0.984   5.180   3.796  0.1701  0.8822  1.4955
22749SOL     OW69923   7.621   8.706   5.956  0.4400 -0.0812  0.1614
22749SOL    HW169924   7.644   8.613   5.955 -0.1155 -0.2265  0.3818
22749SOL    HW269925   7.576   8.718   6.040 -1.3952 -0.0838 -0.8056
22750SOL     OW69926   1.552   3.987   1.298  0.0606  0.1868 -0.5075
22750SOL    HW169927   1.577   3.981   1.390 -0.6264  1.1728 -0.2481
22750SOL    HW269928   1.593   3.911   1.257 -1.1037 -1.2667  0.9533
22751SOL     OW69929   6.306   5.200   2.153  0.4741  1.0557 -0.9859
22751SOL    HW169930   6.339   5.154   2.230  0.7780  0.2133 -1.6228
22751SOL    HW269931   6.342   5.153   2.079 -2.1288  0.1126 -1.7213
22752SOL     OW69932   2.170   7.391   5.242  0.0143  0.0795 -0.0820
22752SOL    HW169933   2.184   7.381   5.147  1.7672  1.0883  0.0658
22752SOL    HW269934   2.117   7.470   5.250  1.6531  1.1761 -0.0838
22753SOL     OW69935   9.021   4.966   1.490 -0.5073 -0.5817  0.2906
22753SOL    HW169936   8.937   4.964   1.444 -1.0657 -2.3531  1.3332
22753SOL    HW269937   9.062   4.883   1.468  0.6393 -0.0443  0.3906
22754SOL     OW69938   6.621   1.752   7.963  0.2635  0.0519 -0.8556
22754SOL    HW169939   6.617   1.842   7.995 -1.4527 -0.0719 -0.6828
22754SOL    HW269940   6.644   1.700   8.040 -2.5205 -0.0816 -0.0565
22755SOL     OW69941   1.838   3.152   6.530 -0.7391 -0.2041  0.0759
22755SOL    HW169942   1.859   3.194   6.446 -1.0306  0.7239  0.4623
22755SOL    HW269943   1.764   3.095   6.509 -1.2974  0.5808 -0.1592
22756SOL     OW69944   7.516   2.489   2.217 -0.0479  0.3553 -0.1974
22756SOL    HW169945   7.462   2.557   2.258  0.4914  1.4352 -1.2722
22756SOL    HW269946   7.484   2.408   2.256 -2.5768  0.9469 -0.9334
22757SOL     OW69947   1.519   8.637   5.971 -0.1096 -0.2853 -0.2700
22757SOL    HW169948   1.537   8.692   5.894 -1.1203 -0.5851 -0.7322
22757SOL    HW269949   1.496   8.699   6.040  0.1612 -0.0459 -0.3954
22758SOL     OW69950   9.266   7.416   5.901  0.0175  0.4370 -0.3292
22758SOL    HW169951   9.183   7.402   5.947  0.9726 -0.4880  1.1710
22758SOL    HW269952   9.320   7.340   5.925  1.8567  1.8257  0.0512
22759SOL     OW69953   1.695   7.623   3.780  0.3856  0.8969  0.3927
22759SOL    HW169954   1.685   7.716   3.762 -0.1258  0.6102 -0.9177
22759SOL    HW269955   1.631   7.581   3.722 -0.8153 -0.1582  2.4309
22760SOL     OW69956   8.909   0.792   1.940  0.2691  0.4844  0.1351
22760SOL    HW169957   8.934   0.868   1.993  1.3420 -0.8931  1.6445
22760SOL    HW269958   8.977   0.785   1.874  0.6283  0.3441  0.5160
22761SOL     OW69959   2.040   7.281   2.943  0.3901  0.4002 -0.4610
22761SOL    HW169960   2.085   7.313   2.865  0.3926  0.0882 -0.5893
22761SOL    HW269961   2.107   7.230   2.990 -0.4467 -2.0569 -1.8390
22762SOL     OW69962   8.085   2.330   7.173 -0.0238 -0.2638 -0.1934
22762SOL    HW169963   8.111   2.238   7.183  0.2743 -0.0988  0.5401
22762SOL    HW269964   7.995   2.333   7.204 -0.3800 -0.5102 -1.1907
22763SOL     OW69965   1.652   2.725   4.439  0.3896 -0.0749 -0.5252
22763SOL    HW169966   1.599   2.665   4.492  0.7948 -1.2156 -1.3829
22763SOL    HW269967   1.688   2.670   4.369  0.5828  1.2200 -1.4703
22764SOL     OW69968   6.396   4.524   1.850 -0.2073 -0.2528  0.1024
22764SOL    HW169969   6.317   4.494   1.805 -1.1692  0.0718  1.5442
22764SOL    HW269970   6.365   4.591   1.912  1.2793  0.3484  0.2276
22765SOL     OW69971   1.075   7.806   7.768 -0.2507  0.4082 -0.3126
22765SOL    HW169972   1.153   7.825   7.716  0.7688 -1.1518  0.6262
22765SOL    HW269973   1.049   7.718   7.742 -1.5970  0.8334 -0.4637
22766SOL     OW69974   3.876   0.335   4.515  0.4757 -0.0974  0.1224
22766SOL    HW169975   3.843   0.415   4.475 -0.8099 -0.3217  0.6938
22766SOL    HW269976   3.899   0.279   4.441 -1.0694 -0.1836 -0.3200
22767SOL     OW69977   1.451   2.296   6.976 -0.0830 -0.3537  0.0346
22767SOL    HW169978   1.405   2.261   6.900  0.4111  1.4116 -1.1076
22767SOL    HW269979   1.385   2.296   7.046 -0.7218 -1.3689 -0.5606
22768SOL     OW69980   4.529   4.000   7.902  0.3852 -0.0043  0.1496
22768SOL    HW169981   4.491   3.915   7.878  1.6648 -0.3361 -0.7567
22768SOL    HW269982   4.550   4.042   7.818 -0.0260  1.1217  0.5972
22769SOL     OW69983   6.746   4.566   6.599  0.1585  0.5456  0.5669
22769SOL    HW169984   6.838   4.539   6.599 -0.2888 -1.0807 -1.3132
22769SOL    HW269985   6.749   4.661   6.606  2.0224  0.5775 -0.4049
22770SOL     OW69986   3.110   6.666   2.913  0.2914 -0.1896 -0.4204
22770SOL    HW169987   3.078   6.625   2.993 -0.2146 -0.1215 -0.5863
22770SOL    HW269988   3.131   6.592   2.855 -2.4822 -0.2199 -1.4521
22771SOL     OW69989   8.631   7.311   7.114 -0.1031  0.3934  0.1570
22771SOL    HW169990   8.653   7.242   7.052  0.7871  1.2183 -0.4627
22771SOL    HW269991   8.569   7.368   7.068  0.0656  0.6539  0.2474
22772SOL     OW69992   5.207   4.445   3.762  0.6465  0.6600  0.9184
22772SOL    HW169993   5.301   4.462   3.759  0.7220  0.0277 -1.4553
22772SOL    HW269994   5.186   4.409   3.676 -1.1650 -2.4444  2.5531
22773SOL     OW69995   2.017   8.698   1.289  0.0467 -0.4050 -0.1816
22773SOL    HW169996   2.070   8.775   1.312 -0.6025 -0.4100  1.4118
22773SOL    HW269997   2.028   8.689   1.195  1.9524  0.2946 -0.0506
22774SOL     OW69998   8.159   1.367   7.348 -0.3413 -0.0289  0.2250
22774SOL    HW169999   8.175   1.417   7.428  1.3276 -1.0612  0.5837
22774SOL    HW270000   8.230   1.393   7.289 -0.7780 -0.2862 -0.4229
22775SOL     OW70001   8.004   6.083   9.170  0.0571  0.0010  0.5154
22775SOL    HW170002   8.088   6.054   9.207  0.6478  0.1878 -0.6449
22775SOL    HW270003   8.020   6.087   9.076 -0.8616  1.3458  0.4056
22776SOL     OW70004   4.760   2.678   1.849 -0.5580 -0.6230  0.0530
22776SOL    HW170005   4.762   2.603   1.790  2.1913  0.8046 -1.7467
22776SOL    HW270006   4.729   2.751   1.794  2.4964  0.8352  0.1841
22777SOL     OW70007   3.297   2.089   4.996  0.3504  0.0207  0.1147
22777SOL    HW170008   3.311   2.095   5.091  0.9133 -2.1927  0.2035
22777SOL    HW270009   3.310   2.178   4.964  1.6794  0.5044  1.9271
22778SOL     OW70010   8.981   1.247   7.397  0.1608 -0.2421  0.3656
22778SOL    HW170011   8.916   1.179   7.418  1.0613 -0.8419  1.2144
22778SOL    HW270012   8.956   1.321   7.452 -1.4205  0.4876 -1.2820
22779SOL     OW70013   8.094   4.809   0.608 -0.2113  0.1342  0.1050
22779SOL    HW170014   8.041   4.828   0.686 -1.0833  1.5092 -0.8001
22779SOL    HW270015   8.181   4.842   0.630 -0.4531  0.5132  0.5070
22780SOL     OW70016   6.139   7.602   0.096 -0.7648  0.0431  0.5894
22780SOL    HW170017   6.058   7.610   0.045 -0.0156 -0.6362 -0.7457
22780SOL    HW270018   6.110   7.568   0.180 -1.8447 -0.4778  0.0321
22781SOL     OW70019   9.159   4.315   2.642 -0.2777 -0.5551 -0.0881
22781SOL    HW170020   9.197   4.385   2.695 -1.5209  1.4528 -1.7768
22781SOL    HW270021   9.066   4.316   2.665 -0.6162 -0.4379 -1.4214
22782SOL     OW70022   6.279   4.995   7.446 -0.1326 -0.0490  0.0944
22782SOL    HW170023   6.250   5.086   7.449 -1.5476 -0.4576 -0.7995
22782SOL    HW270024   6.351   4.991   7.510 -0.3725  1.5675  0.4936
22783SOL     OW70025   7.372   8.461   1.953 -0.3563 -0.5943 -0.4070
22783SOL    HW170026   7.419   8.538   1.919  0.6760 -0.2386  1.7318
22783SOL    HW270027   7.285   8.494   1.976  0.0884 -0.0609  0.5189
22784SOL     OW70028   8.085   3.971   4.888 -0.3531 -0.1416  0.1037
22784SOL    HW170029   8.131   3.901   4.935  1.4348 -1.0910 -2.9609
22784SOL    HW270030   8.017   3.926   4.839  0.6005  0.2809 -1.6305
22785SOL     OW70031   5.390   6.306   6.142 -0.3626 -0.1891 -0.1523
22785SOL    HW170032   5.437   6.231   6.107  0.0127 -0.6397  1.2805
22785SOL    HW270033   5.447   6.381   6.125  0.3938 -0.5805  0.5877
22786SOL     OW70034   5.979   2.174   5.420 -0.4517 -0.3469  0.2464
22786SOL    HW170035   6.029   2.100   5.455 -0.3403 -1.0196 -1.2959
22786SOL    HW270036   5.907   2.187   5.482 -1.3933 -2.7675 -0.3298
22787SOL     OW70037   7.735   5.364   1.308  0.2281 -0.0791  0.0749
22787SOL    HW170038   7.704   5.336   1.395 -0.2530  0.0948 -0.0382
22787SOL    HW270039   7.717   5.290   1.251 -0.5914  0.2654 -0.1241
22788SOL     OW70040   1.088   1.620   8.489 -0.0309 -0.5222 -0.4690
22788SOL    HW170041   1.110   1.532   8.520 -1.4795 -0.4275  0.8610
22788SOL    HW270042   1.055   1.665   8.566 -1.7725  0.3564 -1.6980
22789SOL     OW70043   5.250   4.576   7.244  0.1526 -0.2129 -0.5283
22789SOL    HW170044   5.283   4.526   7.170 -1.0729 -0.4601 -0.9277
22789SOL    HW270045   5.187   4.517   7.286 -0.1585  0.4287 -0.0851
22790SOL     OW70046   8.497   2.215   5.086  0.3968 -0.2814 -0.6489
22790SOL    HW170047   8.529   2.210   5.176  0.4169  1.0136 -0.5791
22790SOL    HW270048   8.412   2.171   5.088  0.5861 -0.6332 -0.1008
22791SOL     OW70049   5.042   4.498   6.892 -0.0823  0.1398  0.2324
22791SOL    HW170050   5.036   4.552   6.814 -1.8205 -0.9908 -0.4254
22791SOL    HW270051   5.011   4.555   6.963 -1.6586  0.0936 -0.4127
22792SOL     OW70052   9.127   3.361   4.946  0.5911 -0.2528  0.3721
22792SOL    HW170053   9.099   3.288   5.001 -1.2891  1.1643  1.3730
22792SOL    HW270054   9.198   3.325   4.893 -0.6912 -2.9710  0.3952
22793SOL     OW70055   5.879   3.192   0.673  0.3708  0.5784  0.0795
22793SOL    HW170056   5.803   3.239   0.708  0.3462  0.8384 -0.3234
22793SOL    HW270057   5.918   3.253   0.610  0.6130  0.2445 -0.0937
22794SOL     OW70058   7.462   1.833   1.439  0.3521 -0.4341 -0.1621
22794SOL    HW170059   7.373   1.825   1.404 -0.6130 -1.9157  2.4484
22794SOL    HW270060   7.464   1.920   1.479  0.0137 -0.4462 -0.1140
22795SOL     OW70061   3.463   5.069   7.722  0.1155  0.2351 -0.6622
22795SOL    HW170062   3.477   5.051   7.629  1.6772 -1.3225 -0.1378
22795SOL    HW270063   3.532   5.021   7.767 -0.3832  1.2891  1.2967
22796SOL     OW70064   1.900   8.021   8.955 -0.3732  0.1107 -0.5488
22796SOL    HW170065   1.815   7.978   8.964 -0.1201  0.0817  1.8924
22796SOL    HW270066   1.898   8.093   9.017  1.3528  0.1936 -0.5572
22797SOL     OW70067   7.174   1.656   3.984  0.0137 -0.3455 -0.2124
22797SOL    HW170068   7.084   1.662   3.952 -1.7168  0.7837  4.3594
22797SOL    HW270069   7.206   1.746   3.982 -0.4442 -0.1057  1.8556
22798SOL     OW70070   1.364   6.516   2.684  0.6501  0.3149 -0.0214
22798SOL    HW170071   1.368   6.600   2.638  1.1475 -0.4686 -1.4481
22798SOL    HW270072   1.280   6.478   2.657 -0.1838  0.9209  1.6614
22799SOL     OW70073   8.808   1.721   4.607  0.2130  0.0282 -0.3564
22799SOL    HW170074   8.729   1.773   4.592 -0.1264 -0.5942 -0.7526
22799SOL    HW270075   8.821   1.723   4.702  0.0157  0.5641 -0.3436
22800SOL     OW70076   1.635   8.152   6.745 -0.2002  0.1798 -0.3421
22800SOL    HW170077   1.674   8.212   6.681  0.4981  1.1909  1.0110
22800SOL    HW270078   1.561   8.200   6.782 -0.7967 -0.5257 -0.6144
22801SOL     OW70079   9.090   2.400   4.732  0.1395  0.5126 -0.5423
22801SOL    HW170080   9.021   2.462   4.708 -0.1899 -0.1977 -1.4406
22801SOL    HW270081   9.064   2.368   4.818  0.3430  1.6632 -0.0412
22802SOL     OW70082   3.825   8.282   2.778  0.2149 -0.0330  0.7836
22802SOL    HW170083   3.847   8.231   2.856  1.2339 -1.1609 -0.2155
22802SOL    HW270084   3.811   8.216   2.709  0.0749  0.9730 -0.1648
22803SOL     OW70085   2.521   8.206   0.755  0.1130  0.5216 -0.1328
22803SOL    HW170086   2.501   8.205   0.662  0.0970  0.1621 -0.1268
22803SOL    HW270087   2.451   8.257   0.795 -0.1570  0.2474 -0.2551
22804SOL     OW70088   5.054   2.015   1.913 -0.4106 -0.0445  0.0330
22804SOL    HW170089   5.062   1.985   1.822 -2.0333 -0.2700 -0.0436
22804SOL    HW270090   5.114   2.090   1.918 -1.4355  0.9149 -1.6404
22805SOL     OW70091   4.055   6.875   0.929 -0.1746  0.5726  0.5672
22805SOL    HW170092   4.097   6.818   0.865  0.5073  0.0694  1.4517
22805SOL    HW270093   4.028   6.952   0.879  1.1868  0.6061 -0.1349
22806SOL     OW70094   0.620   1.078   6.589 -0.0661 -0.2426 -0.5625
22806SOL    HW170095   0.601   1.089   6.496 -2.0089 -0.2035 -0.1963
22806SOL    HW270096   0.551   1.127   6.634  1.2784  0.3681  0.9082
22807SOL     OW70097   2.754   7.505   1.985 -0.8002 -0.1737  0.2213
22807SOL    HW170098   2.754   7.427   1.929  0.8264 -0.0607  0.0658
22807SOL    HW270099   2.763   7.470   2.074  0.2629 -0.1491  0.1260
22808SOL     OW70100   4.496   1.365   1.353  0.7621 -0.0984  0.0891
22808SOL    HW170101   4.540   1.445   1.321  0.3498 -0.1820 -0.6971
22808SOL    HW270102   4.561   1.296   1.339  2.0560  0.4332  2.9853
22809SOL     OW70103   5.623   6.521   4.612 -0.4711  0.1078  0.0048
22809SOL    HW170104   5.612   6.580   4.537  0.0991 -3.1485 -2.7702
22809SOL    HW270105   5.534   6.494   4.635 -0.5753  0.1354 -0.3589
22810SOL     OW70106   3.660   3.218   6.565  0.3698  0.2631  0.1802
22810SOL    HW170107   3.749   3.251   6.574  0.0727  0.7739  1.2699
22810SOL    HW270108   3.633   3.244   6.477  1.0257  0.7407  0.1213
22811SOL     OW70109   3.374   4.875   8.164 -0.2211 -0.1461 -0.1020
22811SOL    HW170110   3.293   4.824   8.165 -0.3360  0.0339 -0.1675
22811SOL    HW270111   3.346   4.965   8.148 -0.0804  0.0438  0.6629
22812SOL     OW70112   5.781   3.474   3.421  0.8398 -0.3410  0.1001
22812SOL    HW170113   5.785   3.483   3.326  2.6210  0.2227  0.2062
22812SOL    HW270114   5.695   3.437   3.439  0.6954 -0.9321 -1.7795
22813SOL     OW70115   0.245   4.455   2.233  0.1952  0.3884  0.3406
22813SOL    HW170116   0.162   4.408   2.225  1.0933 -1.1326 -0.2283
22813SOL    HW270117   0.241   4.522   2.164 -1.1400  1.2744  1.2420
22814SOL     OW70118   1.502   7.841   5.107 -0.1342 -0.2338  0.1879
22814SOL    HW170119   1.589   7.816   5.075 -1.2778 -0.9657 -2.5309
22814SOL    HW270120   1.484   7.779   5.177 -0.2083 -2.9643 -2.1320
22815SOL     OW70121   5.952   8.154   1.550 -0.5546  0.6051  0.0601
22815SOL    HW170122   5.936   8.209   1.626  0.1185  0.6994  0.1337
22815SOL    HW270123   6.005   8.209   1.492  2.3885 -0.8853  1.2771
22816SOL     OW70124   7.997   2.259   4.025 -0.1939  0.0738  0.5136
22816SOL    HW170125   8.025   2.195   4.090 -0.3932 -1.6062 -1.0193
22816SOL    HW270126   8.050   2.240   3.948 -0.6568  1.4057 -0.1536
22817SOL     OW70127   6.174   4.066   8.730 -0.8038  0.7314  0.2820
22817SOL    HW170128   6.104   4.038   8.790 -1.9036  1.6577 -0.5486
22817SOL    HW270129   6.172   4.162   8.734 -0.0020  0.7749 -0.2510
22818SOL     OW70130   1.437   7.097   9.239  0.2759  0.1024 -0.2831
22818SOL    HW170131   1.403   7.167   9.183 -0.0511  0.8510  0.8211
22818SOL    HW270132   1.473   7.143   9.315  2.9540 -0.7281 -0.9905
22819SOL     OW70133   7.311   3.876   0.959  0.5364 -0.0913  0.5422
22819SOL    HW170134   7.326   3.893   0.866 -2.3139 -0.7350 -0.0807
22819SOL    HW270135   7.336   3.957   1.003  1.1811  0.4862 -0.8536
22820SOL     OW70136   6.093   1.578   5.389  0.0433  0.0861 -0.2897
22820SOL    HW170137   6.091   1.652   5.451 -1.3562  0.1380 -0.3786
22820SOL    HW270138   6.059   1.505   5.440 -0.3568 -0.0564 -0.7665
22821SOL     OW70139   6.090   0.110   1.249 -0.0942 -0.2348 -0.4746
22821SOL    HW170140   6.156   0.098   1.181 -1.0819 -0.1566 -1.4578
22821SOL    HW270141   6.006   0.107   1.202 -0.7072  1.9402  0.4340
22822SOL     OW70142   3.069   4.177   2.300 -0.1018  0.1927  0.1040
22822SOL    HW170143   3.096   4.164   2.391 -0.0746 -0.9719 -0.0540
22822SOL    HW270144   2.984   4.134   2.294 -0.5700  1.1506 -0.1701
22823SOL     OW70145   5.549   7.547   5.507 -0.0286 -0.1020 -0.0562
22823SOL    HW170146   5.499   7.629   5.508 -1.3009 -0.8216 -2.0941
22823SOL    HW270147   5.587   7.543   5.419  2.6194 -0.2139  1.0398
22824SOL     OW70148   8.351   3.849   1.647  0.2291 -0.1735 -0.5274
22824SOL    HW170149   8.386   3.810   1.567  1.1210 -0.4714 -0.0039
22824SOL    HW270150   8.277   3.901   1.618 -1.7936 -3.2535 -1.0898
22825SOL     OW70151   4.777   1.062   5.682 -0.7545  0.0452 -0.1311
22825SOL    HW170152   4.827   1.123   5.735 -0.2243 -0.8405  0.4041
22825SOL    HW270153   4.790   0.977   5.724 -1.8881 -0.3631 -0.5643
22826SOL     OW70154   1.607   4.901   1.255  0.0227  0.9131  0.0318
22826SOL    HW170155   1.663   4.935   1.325 -1.2061  1.8946  0.5847
22826SOL    HW270156   1.526   4.952   1.264 -1.8314 -2.0864  0.7685
22827SOL     OW70157   7.974   8.551   3.733  0.2373 -0.5252  0.2492
22827SOL    HW170158   7.906   8.575   3.670  2.3157 -3.4117 -3.3528
22827SOL    HW270159   8.003   8.634   3.771 -1.5522  1.2648 -2.1487
22828SOL     OW70160   0.742   6.869   6.814  0.6674  0.1356 -0.3966
22828SOL    HW170161   0.805   6.829   6.874  0.4895  0.3130 -0.0885
22828SOL    HW270162   0.787   6.873   6.730  0.9726  0.0221 -0.2384
22829SOL     OW70163   2.156   6.101   6.916 -0.0010 -0.1878  0.0608
22829SOL    HW170164   2.073   6.146   6.904 -1.2564 -2.1872  1.1213
22829SOL    HW270165   2.217   6.170   6.943 -1.1028  1.4123 -1.4242
22830SOL     OW70166   4.221   8.176   8.923  0.0901 -0.0543  0.0017
22830SOL    HW170167   4.308   8.136   8.915  0.2970  0.3656  0.1611
22830SOL    HW270168   4.170   8.134   8.854 -0.2234 -1.9508  1.3535
22831SOL     OW70169   8.925   7.924   8.000  0.0503  0.1335  0.2054
22831SOL    HW170170   8.899   7.853   7.941 -0.0969  0.7757 -0.5099
22831SOL    HW270171   9.021   7.926   7.994 -0.0949  2.1839 -2.3966
22832SOL     OW70172   4.777   2.965   0.526 -0.1240  0.2830  0.9717
22832SOL    HW170173   4.728   2.907   0.585  0.3024  0.6921  1.7309
22832SOL    HW270174   4.747   2.940   0.439 -1.3308  0.1991  1.3989
22833SOL     OW70175   3.801   0.869   0.601  0.2997  0.4306  0.3155
22833SOL    HW170176   3.883   0.837   0.639  0.1572 -0.1174  0.1689
22833SOL    HW270177   3.827   0.939   0.542  0.6296  0.4927  0.5345
22834SOL     OW70178   6.162   6.395   4.940 -0.1425 -0.2845 -0.1834
22834SOL    HW170179   6.236   6.437   4.896  0.4419  0.0853  1.1405
22834SOL    HW270180   6.200   6.318   4.982 -0.7339 -0.7420 -0.4888
22835SOL     OW70181   9.093   5.661   3.942 -0.0961  0.4993  0.1380
22835SOL    HW170182   9.132   5.691   4.024  0.0358  0.4284  0.1019
22835SOL    HW270183   9.087   5.566   3.952  0.1118  0.4690 -0.0171
22836SOL     OW70184   2.246   1.122   6.271  1.0553  0.2878  0.1913
22836SOL    HW170185   2.247   1.112   6.366  1.8242  2.4796  0.4360
22836SOL    HW270186   2.332   1.092   6.242 -0.4061 -3.8353 -0.2601
22837SOL     OW70187   1.965   6.101   6.084  0.1841 -0.1677  0.2672
22837SOL    HW170188   1.905   6.108   6.157  0.3718 -1.3650  0.5494
22837SOL    HW270189   1.957   6.184   6.037 -0.3109  0.3958  1.3519
22838SOL     OW70190   3.689   3.985   8.099 -0.2691  0.0493  0.2908
22838SOL    HW170191   3.615   4.000   8.041  0.9653  1.3537 -0.9844
22838SOL    HW270192   3.762   4.028   8.056  1.1775 -0.9654  1.6761
22839SOL     OW70193   5.480   4.427   0.356 -0.4946 -0.0253  0.0666
22839SOL    HW170194   5.457   4.453   0.445 -0.0334 -0.5195  0.3347
22839SOL    HW270195   5.559   4.374   0.367 -1.3254 -1.3843 -0.4840
22840SOL     OW70196   1.378   2.495   0.230 -0.6068 -0.1203  0.1988
22840SOL    HW170197   1.473   2.485   0.243 -0.6035  1.0886  1.2353
22840SOL    HW270198   1.344   2.511   0.318 -1.7047 -0.0446 -0.2408
22841SOL     OW70199   6.902   5.128   0.466  0.4840  0.3794  0.1336
22841SOL    HW170200   6.966   5.155   0.400  1.8563  2.0270  2.0858
22841SOL    HW270201   6.854   5.209   0.487 -0.0546 -0.1638  1.0206
22842SOL     OW70202   4.799   7.954   5.827  0.3240 -0.0292  0.2563
22842SOL    HW170203   4.847   7.882   5.788  0.0352 -0.4329  0.6335
22842SOL    HW270204   4.720   7.962   5.773 -0.2731 -0.8557  0.9930
22843SOL     OW70205   0.587   2.895   4.034  0.6071  0.1880  0.4989
22843SOL    HW170206   0.646   2.833   4.075  0.0888 -0.4985  0.2155
22843SOL    HW270207   0.635   2.978   4.035  0.2568  0.3997  3.2496
22844SOL     OW70208   7.820   5.892   9.102 -0.1890  0.1303 -0.1752
22844SOL    HW170209   7.880   5.964   9.120  1.6375 -1.3376 -0.1997
22844SOL    HW270210   7.751   5.902   9.167  0.7014  1.1819  0.6335
22845SOL     OW70211   4.138   7.779   7.803  0.5039 -0.0450  0.4520
22845SOL    HW170212   4.086   7.744   7.875 -0.7024  0.3611 -0.2067
22845SOL    HW270213   4.190   7.704   7.772 -0.0340 -0.5759  0.8204
22846SOL     OW70214   7.079   8.601   4.419 -0.4475 -0.4435 -0.5500
22846SOL    HW170215   7.080   8.601   4.323 -1.1723  0.7623 -0.5759
22846SOL    HW270216   7.020   8.530   4.443 -1.8391  0.5201 -1.0445
22847SOL     OW70217   4.073   6.518   8.778 -0.3585  0.1875  0.0458
22847SOL    HW170218   4.144   6.473   8.732 -0.5229  1.3769 -1.4085
22847SOL    HW270219   3.996   6.503   8.724 -0.7525  0.7933  0.4268
22848SOL     OW70220   2.321   6.839   0.864  0.4908  0.4926  0.4490
22848SOL    HW170221   2.249   6.806   0.811  0.0604 -0.1873  1.4259
22848SOL    HW270222   2.390   6.860   0.802 -0.2613  0.3810 -0.4264
22849SOL     OW70223   8.585   7.174   3.884 -0.0702 -0.0059 -0.0718
22849SOL    HW170224   8.673   7.149   3.857  0.1947  2.4311 -1.5980
22849SOL    HW270225   8.527   7.126   3.824  0.3324  0.8341 -1.1438
22850SOL     OW70226   7.076   3.632   6.491 -0.3330  0.1441 -0.3528
22850SOL    HW170227   6.989   3.597   6.513 -0.2708 -0.0344 -0.3868
22850SOL    HW270228   7.061   3.725   6.473 -0.2843  0.4354  1.0610
22851SOL     OW70229   6.354   5.003   5.379 -0.3312  0.4357  0.1515
22851SOL    HW170230   6.353   5.097   5.399  0.4820  0.6262 -0.6584
22851SOL    HW270231   6.445   4.984   5.355 -0.4147 -0.6343  0.6414
22852SOL     OW70232   5.902   1.893   8.503 -0.0937 -0.1161  0.2255
22852SOL    HW170233   5.839   1.913   8.434 -0.2137 -0.0885  0.3445
22852SOL    HW270234   5.976   1.853   8.456 -0.1930 -0.1355  0.0856
22853SOL     OW70235   0.212   5.890   4.782 -0.1571 -0.1696  0.1023
22853SOL    HW170236   0.267   5.908   4.859 -0.0964 -0.3846  0.1077
22853SOL    HW270237   0.245   5.949   4.714  0.1889 -0.4206  0.0548
22854SOL     OW70238   3.761   0.834   3.079 -0.2712  0.5158 -0.4190
22854SOL    HW170239   3.766   0.739   3.088 -0.8785  0.4594 -0.6064
22854SOL    HW270240   3.851   0.865   3.090  0.3809 -0.3164 -2.9717
22855SOL     OW70241   3.467   3.831   0.566 -0.4314 -0.2100  0.3062
22855SOL    HW170242   3.409   3.851   0.493  0.6317  0.1207 -0.4649
22855SOL    HW270243   3.498   3.742   0.548 -1.5738 -0.8200  1.3125
22856SOL     OW70244   5.614   7.792   6.189  0.7646  0.3060 -0.4849
22856SOL    HW170245   5.615   7.843   6.108  2.7138 -0.6983 -1.1205
22856SOL    HW270246   5.683   7.726   6.177  0.4254 -0.4657  1.5980
22857SOL     OW70247   3.765   0.341   1.045  0.4019 -0.9260 -0.1473
22857SOL    HW170248   3.712   0.356   1.124 -0.0792 -1.5120 -0.3546
22857SOL    HW270249   3.712   0.376   0.974  1.2533  0.4725 -0.1087
22858SOL     OW70250   6.680   4.052   1.405 -0.1629 -0.7037  0.1838
22858SOL    HW170251   6.608   4.109   1.378  0.8614  0.6480  0.2452
22858SOL    HW270252   6.666   3.970   1.357 -1.3538 -0.2061 -0.3122
22859SOL     OW70253   2.891   4.922   2.740 -0.0263 -0.0117  0.3286
22859SOL    HW170254   2.821   4.865   2.773  0.1241 -0.6765 -0.5023
22859SOL    HW270255   2.933   4.871   2.671  1.7805  0.0714  1.3515
22860SOL     OW70256   8.289   3.154   0.535  0.4259  0.0624 -0.4932
22860SOL    HW170257   8.350   3.224   0.558 -2.0108  1.7195  1.2560
22860SOL    HW270258   8.253   3.181   0.451  0.2226  0.4250 -0.2946
22861SOL     OW70259   5.444   0.084   6.376 -0.4747 -0.5696  0.0847
22861SOL    HW170260   5.401   0.093   6.291  1.0841 -0.2045 -0.6800
22861SOL    HW270261   5.436   0.171   6.416 -1.6695 -0.8836  0.5446
22862SOL     OW70262   5.817   6.101   7.867 -0.1284  0.0257 -0.1021
22862SOL    HW170263   5.750   6.038   7.841  0.1343  0.7743 -2.7595
22862SOL    HW270264   5.891   6.083   7.809  1.1182  0.7463  1.2217
22863SOL     OW70265   5.366   8.321   2.130  0.0318  0.0999 -0.3082
22863SOL    HW170266   5.282   8.288   2.100  2.2365 -4.3038 -2.1294
22863SOL    HW270267   5.361   8.318   2.225 -1.6912 -0.5479 -0.4100
22864SOL     OW70268   2.635   3.801   8.156  0.2891 -0.4354 -0.2598
22864SOL    HW170269   2.640   3.751   8.075  0.6356  3.4860 -2.7796
22864SOL    HW270270   2.547   3.840   8.154  0.0380 -0.8535  1.6261
22865SOL     OW70271   8.956   2.768   0.479  0.4705  0.0157 -0.1437
22865SOL    HW170272   8.903   2.812   0.545  0.3580 -1.5261  0.8104
22865SOL    HW270273   9.046   2.775   0.511  0.3493 -1.2845  0.5073
22866SOL     OW70274   4.194   1.340   0.977  0.3059  0.2933  0.2999
22866SOL    HW170275   4.141   1.261   0.988  0.8836 -0.4816 -2.0319
22866SOL    HW270276   4.184   1.388   1.059 -0.6393 -1.8492  1.4791
22867SOL     OW70277   2.135   2.452   0.233 -0.0159 -0.0958  0.2134
22867SOL    HW170278   2.131   2.357   0.227 -1.2813 -0.0108 -0.3997
22867SOL    HW270279   2.091   2.473   0.315  0.2917 -0.0280  0.3649
22868SOL     OW70280   3.107   2.773   0.156  0.1599  0.0769  0.4785
22868SOL    HW170281   3.051   2.840   0.118  0.2482  0.7289  1.4720
22868SOL    HW270282   3.196   2.805   0.142  0.2482 -0.3966 -0.0672
22869SOL     OW70283   0.528   7.094   0.674 -0.1119  0.6271  0.1493
22869SOL    HW170284   0.481   7.166   0.717 -0.4876  1.5882 -1.8009
22869SOL    HW270285   0.460   7.033   0.648  0.0565  0.3510  0.3514
22870SOL     OW70286   6.303   0.958   3.985 -0.1638 -0.3046  0.6465
22870SOL    HW170287   6.234   0.893   3.998  0.1117 -0.0183  3.9474
22870SOL    HW270288   6.359   0.949   4.062  1.3456  2.0828 -0.1237
22871SOL     OW70289   8.773   9.025   2.252 -0.6064 -0.2692  0.1998
22871SOL    HW170290   8.708   8.994   2.188 -0.2455 -0.5282 -0.0375
22871SOL    HW270291   8.800   8.946   2.299  1.3678 -0.5628 -1.3620
22872SOL     OW70292   5.420   3.966   0.957 -0.1341  0.9140 -0.3559
22872SOL    HW170293   5.399   4.009   1.040 -1.5361  0.2622 -0.3610
22872SOL    HW270294   5.514   3.978   0.948 -0.1548  2.0556  0.7259
22873SOL     OW70295   5.667   5.782   9.110  0.2800  0.0129 -0.7184
22873SOL    HW170296   5.652   5.793   9.016 -0.7305 -0.4400 -0.6117
22873SOL    HW270297   5.658   5.870   9.147 -0.6618 -0.0279 -0.8549
22874SOL     OW70298   4.594   2.480   1.427 -0.3138 -0.1745  0.1093
22874SOL    HW170299   4.535   2.554   1.418 -0.8991 -0.6325  0.1797
22874SOL    HW270300   4.575   2.424   1.353  0.8287  0.2216 -0.5020
22875SOL     OW70301   3.935   8.356   6.898 -0.4132  0.0209 -0.6227
22875SOL    HW170302   3.931   8.268   6.861 -0.3797 -1.0038  1.7546
22875SOL    HW270303   4.004   8.400   6.848 -0.0880 -1.4406 -1.4959
22876SOL     OW70304   1.830   2.633   1.994  0.0605  0.2662  0.0488
22876SOL    HW170305   1.766   2.678   1.939 -1.8277 -0.3953  1.6271
22876SOL    HW270306   1.911   2.682   1.982 -0.4172  0.3984 -2.9264
22877SOL     OW70307   0.591   2.785   8.848  0.2061 -0.0842  0.2828
22877SOL    HW170308   0.616   2.863   8.797 -0.5525 -0.4460 -0.6585
22877SOL    HW270309   0.568   2.720   8.782 -2.4953 -0.0137  1.0995
22878SOL     OW70310   7.058   3.430   4.479 -0.1107  0.1332 -0.2512
22878SOL    HW170311   6.981   3.398   4.526 -1.6415  0.6921 -2.3374
22878SOL    HW270312   7.055   3.525   4.491 -0.6619  0.3012 -1.7016
22879SOL     OW70313   2.408   0.029   8.318 -0.3957 -0.6147 -0.2548
22879SOL    HW170314   2.387   0.122   8.312 -0.3181 -0.6159 -0.5449
22879SOL    HW270315   2.401  -0.003   8.228  1.7321 -0.4328 -0.5190
22880SOL     OW70316   7.107   8.941   1.359 -0.2707  0.2205  0.0457
22880SOL    HW170317   7.066   9.023   1.332 -0.3402  0.7056  1.5667
22880SOL    HW270318   7.043   8.900   1.418 -0.5312 -1.2717 -1.2300
22881SOL     OW70319   5.241   4.672   2.639  0.2525  0.2781  0.1137
22881SOL    HW170320   5.300   4.739   2.673 -0.4205  0.8428  0.1827
22881SOL    HW270321   5.153   4.705   2.658 -0.1418  0.5562 -2.0480
22882SOL     OW70322   8.686   5.028   0.394  0.4168 -0.3252 -0.3433
22882SOL    HW170323   8.601   5.032   0.351  0.0780 -1.5523  0.1911
22882SOL    HW270324   8.745   4.993   0.327  0.6373  1.0383 -0.8883
22883SOL     OW70325   4.951   5.338   1.467 -0.0044  0.4401  0.4759
22883SOL    HW170326   5.021   5.389   1.427 -0.4499  1.1561  0.6097
22883SOL    HW270327   4.881   5.338   1.402  0.1027 -0.2433  0.3575
22884SOL     OW70328   0.223   0.793   7.525 -0.3688  0.0237 -0.3601
22884SOL    HW170329   0.288   0.821   7.589  0.0123  0.2479 -0.8391
22884SOL    HW270330   0.155   0.751   7.577  0.1904 -0.2768  0.1448
22885SOL     OW70331   3.882   1.958   3.367 -0.6776 -0.0067 -0.1718
22885SOL    HW170332   3.873   1.934   3.459  2.2628  0.6509  0.3260
22885SOL    HW270333   3.804   1.920   3.325 -1.7230 -0.8820  2.4401
22886SOL     OW70334   7.174   6.350   6.598  0.2016 -0.3648 -0.0943
22886SOL    HW170335   7.156   6.389   6.513 -1.6453 -1.6978 -0.3375
22886SOL    HW270336   7.170   6.423   6.659  0.2410  0.3878 -0.9784
22887SOL     OW70337   6.145   0.622   2.200 -0.1576  0.1430 -0.0232
22887SOL    HW170338   6.235   0.648   2.216 -0.3633  0.3160  0.9136
22887SOL    HW270339   6.150   0.531   2.172  0.2173 -0.2413  1.2605
22888SOL     OW70340   7.279   1.975   6.537  0.1946  0.3951  0.5777
22888SOL    HW170341   7.373   1.988   6.554  0.4079  0.0535 -0.3418
22888SOL    HW270342   7.271   1.881   6.519 -0.2166  0.5517 -0.0545
22889SOL     OW70343   4.710   2.666   4.503 -0.0554 -0.1163 -0.7303
22889SOL    HW170344   4.789   2.687   4.553 -1.3153 -1.9225  2.1429
22889SOL    HW270345   4.654   2.743   4.513 -0.4604 -0.6255  1.0306
22890SOL     OW70346   1.653   8.689   7.465  0.3336  0.2744  0.6059
22890SOL    HW170347   1.626   8.614   7.519  0.2396  0.2611  0.5395
22890SOL    HW270348   1.664   8.760   7.528  1.2198 -0.0120  0.7711
22891SOL     OW70349   4.015   1.341   8.730 -0.7963 -0.1906 -0.2267
22891SOL    HW170350   4.085   1.366   8.669 -0.8662 -0.8216 -0.5682
22891SOL    HW270351   4.055   1.274   8.786 -0.7951  0.2419  0.2870
22892SOL     OW70352   6.657   8.799   4.646  0.6940 -0.3368 -0.1807
22892SOL    HW170353   6.590   8.745   4.688  0.3997  0.3706  0.2512
22892SOL    HW270354   6.702   8.738   4.587  0.4134 -1.0808  0.3625
22893SOL     OW70355   5.203   3.558   0.011  0.2606 -0.2591  1.0419
22893SOL    HW170356   5.217   3.469   0.042  0.9502 -0.0489  1.3272
22893SOL    HW270357   5.290   3.598   0.008  0.1670 -0.1289 -0.7458
22894SOL     OW70358   0.859   1.250   6.435  0.2811  0.4174  0.2161
22894SOL    HW170359   0.845   1.230   6.528 -0.7986 -0.3975 -0.1097
22894SOL    HW270360   0.933   1.195   6.410  0.5889  0.6540  0.6019
22895SOL     OW70361   3.136   3.383   9.193  0.1950  0.0868 -0.1141
22895SOL    HW170362   3.150   3.293   9.165 -1.0974 -0.2065  0.1368
22895SOL    HW270363   3.119   3.432   9.112  0.6720  0.0603 -0.2288
22896SOL     OW70364   3.515   7.099   1.318  0.5878  0.1687  0.1514
22896SOL    HW170365   3.535   7.141   1.401  0.4118  0.1783  0.1887
22896SOL    HW270366   3.600   7.068   1.286  0.4939 -0.9844  0.9619
22897SOL     OW70367   0.698   0.917   0.429 -0.1956 -0.3260 -0.1627
22897SOL    HW170368   0.735   0.834   0.399 -0.5757 -0.0752 -1.3594
22897SOL    HW270369   0.641   0.892   0.502 -1.5813 -1.3305 -1.5655
22898SOL     OW70370   2.322   1.405   9.120  0.4016 -0.5934  0.1427
22898SOL    HW170371   2.392   1.459   9.155  0.0946  0.9486 -1.5092
22898SOL    HW270372   2.361   1.319   9.107  2.5275  0.6620 -2.3278
22899SOL     OW70373   3.476   6.686   3.398 -0.0092 -0.0165  0.1596
22899SOL    HW170374   3.449   6.755   3.338  2.3230  0.3416 -0.5142
22899SOL    HW270375   3.522   6.623   3.344 -0.9023 -1.4355  1.0127
22900SOL     OW70376   2.986   0.160   3.877  0.7213 -0.3195  0.1530
22900SOL    HW170377   2.916   0.095   3.884  1.1853 -0.8657 -0.2163
22900SOL    HW270378   2.979   0.195   3.789  0.1143  0.5478  0.5407
22901SOL     OW70379   6.735   6.467   9.172 -0.6039  0.4054  0.2319
22901SOL    HW170380   6.708   6.462   9.080 -2.1780  0.1152  0.6943
22901SOL    HW270381   6.714   6.557   9.198  0.7463  0.7892  0.0535
22902SOL     OW70382   2.115   9.079   2.607  0.1515 -0.1936  0.3230
22902SOL    HW170383   2.031   9.059   2.647 -1.8243 -1.2114 -4.0951
22902SOL    HW270384   2.094   9.108   2.518  4.4183  0.3722 -0.6345
22903SOL     OW70385   8.603   3.270   1.645 -0.2263  0.0525  0.3489
22903SOL    HW170386   8.659   3.192   1.647  0.5558  0.4866 -2.8062
22903SOL    HW270387   8.516   3.236   1.626  0.1711 -0.0383 -1.3495
22904SOL     OW70388   7.650   1.528   0.371  0.4010 -0.2449 -0.2783
22904SOL    HW170389   7.705   1.462   0.414 -0.2719 -0.3341  0.4510
22904SOL    HW270390   7.607   1.480   0.300  2.1964  0.1089 -1.6362
22905SOL     OW70391   6.587   8.610   1.542 -0.4136  0.0277 -0.0281
22905SOL    HW170392   6.603   8.623   1.635  0.8488 -3.3077  0.2901
22905SOL    HW270393   6.496   8.582   1.537 -0.7542  1.0923  0.0839
22906SOL     OW70394   9.237   0.632   6.167 -0.3029  0.1226 -0.4337
22906SOL    HW170395   9.279   0.709   6.127 -0.0383 -0.1598 -0.7041
22906SOL    HW270396   9.144   0.644   6.148 -0.3584  0.8009  0.2514
22907SOL     OW70397   0.349   2.928   7.287  0.3074  0.0886 -0.2265
22907SOL    HW170398   0.307   2.927   7.373 -0.3999  0.4272 -0.5737
22907SOL    HW270399   0.390   3.014   7.281  2.4644 -0.8150  0.7889
22908SOL     OW70400   4.449   3.812   2.722  0.3042  0.4294  0.3009
22908SOL    HW170401   4.358   3.821   2.695 -0.2946 -1.0691  1.7068
22908SOL    HW270402   4.499   3.860   2.656 -1.3932  0.0867 -1.2728
22909SOL     OW70403   4.731   3.163   7.739  0.2504 -0.1328 -0.2648
22909SOL    HW170404   4.822   3.135   7.748  0.3289  0.1419 -0.2169
22909SOL    HW270405   4.694   3.152   7.827  0.2009 -0.3683 -0.3135
22910SOL     OW70406   0.895   4.940   4.474  0.2227  0.8071  0.8879
22910SOL    HW170407   0.973   4.993   4.461  0.7251 -0.2854 -0.6947
22910SOL    HW270408   0.824   4.991   4.435  0.5275  0.7842  0.3034
22911SOL     OW70409   7.594   4.772   2.058 -0.3164  0.2621 -0.0770
22911SOL    HW170410   7.598   4.700   2.121  1.5228  0.2179 -0.2000
22911SOL    HW270411   7.593   4.851   2.113 -0.5591  0.1824  0.0342
22912SOL     OW70412   8.400   7.087   8.244 -0.2273  0.4362 -1.0629
22912SOL    HW170413   8.439   7.057   8.326 -2.1439 -0.0230 -0.2720
22912SOL    HW270414   8.450   7.165   8.220  1.2753 -0.2590 -0.2213
22913SOL     OW70415   6.258   0.364   4.636 -0.0735 -0.4177 -0.4523
22913SOL    HW170416   6.337   0.414   4.656 -1.9202  1.1755  3.2915
22913SOL    HW270417   6.261   0.290   4.696 -1.3136 -0.4517 -0.4137
22914SOL     OW70418   2.676   4.535   1.163 -0.3924 -0.1507  0.2397
22914SOL    HW170419   2.739   4.574   1.103  1.1367  1.3631  2.7296
22914SOL    HW270420   2.715   4.451   1.187 -0.5222 -0.3058 -0.0848
22915SOL     OW70421   3.281   4.597   7.087 -0.0777 -0.6747  0.2803
22915SOL    HW170422   3.323   4.655   7.023 -0.7973 -0.7816 -0.2868
22915SOL    HW270423   3.351   4.578   7.151  0.5493 -0.3077 -0.2901
22916SOL     OW70424   7.871   0.490   0.064  0.2797  0.6685  0.1756
22916SOL    HW170425   7.869   0.426   0.135  3.2110  0.5518  0.2107
22916SOL    HW270426   7.962   0.518   0.059 -0.2671  2.2142 -2.1951
22917SOL     OW70427   0.310   6.546   3.666  0.4000  0.1421  0.3669
22917SOL    HW170428   0.310   6.451   3.660  0.6891  0.1733 -0.1364
22917SOL    HW270429   0.305   6.576   3.575  0.3193  0.6082  0.5208
22918SOL     OW70430   2.298   8.314   2.675 -0.0078  0.0088  0.4547
22918SOL    HW170431   2.205   8.336   2.686 -0.2711 -0.8208  0.0114
22918SOL    HW270432   2.308   8.303   2.580 -0.1375 -2.6833  0.7066
22919SOL     OW70433   7.100   1.836   1.883 -0.2278  0.1002 -0.5809
22919SOL    HW170434   7.101   1.824   1.788  0.6815 -1.4357 -0.3927
22919SOL    HW270435   7.157   1.767   1.917 -0.4505  0.7036  1.0770
22920SOL     OW70436   0.921   6.240   0.098 -0.6248  0.3251 -0.3232
22920SOL    HW170437   0.913   6.284   0.013 -2.1572  0.6313 -0.0403
22920SOL    HW270438   0.991   6.288   0.142 -0.8685  1.1748 -0.8241
22921SOL     OW70439   7.434   6.757   4.091  0.2433  0.4729 -0.3777
22921SOL    HW170440   7.457   6.845   4.122  1.0835 -0.8305  2.8113
22921SOL    HW270441   7.340   6.763   4.072  0.0060  1.7081  1.0671
22922SOL     OW70442   7.312   0.694   5.137 -0.2296 -0.2786 -0.2926
22922SOL    HW170443   7.384   0.655   5.086 -1.0983 -0.7390 -1.1923
22922SOL    HW270444   7.352   0.768   5.182  1.0341 -1.1018 -0.0286
22923SOL     OW70445   9.225   8.806   3.906 -0.2242  0.8967 -0.4386
22923SOL    HW170446   9.261   8.840   3.824 -1.3457 -0.0671 -1.3508
22923SOL    HW270447   9.168   8.734   3.879 -2.1919  1.8499  1.0385
22924SOL     OW70448   5.786   1.270   9.233 -0.3014  0.4867  0.0313
22924SOL    HW170449   5.733   1.223   9.298  0.3827 -1.2356 -0.6102
22924SOL    HW270450   5.871   1.281   9.274  0.2557 -0.9672 -0.6986
22925SOL     OW70451   0.848   8.436   0.991  0.1803 -0.4976  0.3010
22925SOL    HW170452   0.885   8.458   1.076  2.3406 -1.5271 -0.3448
22925SOL    HW270453   0.819   8.345   1.000 -0.8129 -0.1882  0.3269
22926SOL     OW70454   5.621   5.840   7.253  0.3256  0.7499 -0.0049
22926SOL    HW170455   5.604   5.747   7.239  1.5791  0.1860  1.9875
22926SOL    HW270456   5.553   5.867   7.316  0.5183  0.9654  0.1087
22927SOL     OW70457   1.751   4.120   4.964 -0.0219 -0.0845  0.1144
22927SOL    HW170458   1.797   4.185   4.911 -0.7481  0.0360 -0.3696
22927SOL    HW270459   1.704   4.066   4.901 -0.2826 -0.4081  0.5828
22928SOL     OW70460   5.845   2.183   4.963 -0.0098  0.2023  0.6453
22928SOL    HW170461   5.757   2.211   4.938  0.3722 -0.7470 -1.8765
22928SOL    HW270462   5.878   2.254   5.017 -1.6182  1.4337  0.0415
22929SOL     OW70463   4.071   0.318   8.011 -0.2834  0.1424  0.5130
22929SOL    HW170464   4.122   0.256   7.960  2.4775  0.3500  2.8815
22929SOL    HW270465   4.072   0.399   7.959  2.3330  0.3026  0.7254
22930SOL     OW70466   4.345   9.085   6.327  0.0101 -0.4375 -0.7421
22930SOL    HW170467   4.353   8.989   6.328  2.7784 -0.2798 -1.7953
22930SOL    HW270468   4.424   9.115   6.373 -0.2029  1.3419 -1.5183
22931SOL     OW70469   6.332   2.572   0.626 -0.0675 -0.3278  0.2140
22931SOL    HW170470   6.244   2.608   0.636  0.2085  0.5176 -0.2707
22931SOL    HW270471   6.336   2.499   0.687 -0.9814 -0.1350  0.5101
22932SOL     OW70472   4.065   2.695   3.521 -0.3071 -0.6969 -0.0738
22932SOL    HW170473   4.004   2.687   3.447 -0.8084  0.3582  0.2207
22932SOL    HW270474   4.088   2.604   3.542 -1.8123 -1.1218 -0.1607
22933SOL     OW70475   7.724   8.184   1.780 -0.5390 -0.2315  0.0589
22933SOL    HW170476   7.735   8.120   1.851 -1.7958 -0.2540  0.2492
22933SOL    HW270477   7.629   8.195   1.773 -0.3548  1.0418 -0.4962
22934SOL     OW70478   2.690   4.438   2.736 -0.6041  0.3078  0.1593
22934SOL    HW170479   2.595   4.445   2.744 -0.9961 -2.4189 -1.4949
22934SOL    HW270480   2.704   4.375   2.665  2.4449  0.2494  0.7234
22935SOL     OW70481   5.841   7.890   5.533  0.1598 -0.4746 -0.4510
22935SOL    HW170482   5.785   7.892   5.455 -1.2374 -0.8784  0.5126
22935SOL    HW270483   5.779   7.879   5.606  1.5470 -1.4437  0.5913
22936SOL     OW70484   9.226   4.943   7.934 -0.1807 -0.1154 -0.0064
22936SOL    HW170485   9.145   4.900   7.959 -0.5369  0.3809 -0.2951
22936SOL    HW270486   9.280   4.873   7.897 -0.3351 -0.5136  0.5202
22937SOL     OW70487   0.144   1.560   4.038 -0.3312 -0.4607  0.3974
22937SOL    HW170488   0.062   1.550   4.086 -0.5584 -0.5254 -0.0046
22937SOL    HW270489   0.143   1.650   4.006  0.1008 -0.2321  1.0323
22938SOL     OW70490   5.812   1.428   2.527 -0.4030  0.0561  0.7197
22938SOL    HW170491   5.856   1.377   2.459  0.2539 -0.6900  1.6956
22938SOL    HW270492   5.735   1.464   2.483 -0.8139 -1.6782 -0.0295
22939SOL     OW70493   1.946   1.132   1.223  0.1868  0.1796 -0.7147
22939SOL    HW170494   1.913   1.112   1.135  0.8687  0.4551 -1.0422
22939SOL    HW270495   2.035   1.164   1.208  0.8439 -1.1651  0.1891
22940SOL     OW70496   6.517   2.021   4.031  0.1431  0.0929  0.0240
22940SOL    HW170497   6.605   2.003   3.998  0.0722  0.3178 -0.2939
22940SOL    HW270498   6.530   2.046   4.122  0.4239  0.2871 -0.0701
22941SOL     OW70499   4.473   3.473   0.943  0.2932  0.1635  0.3647
22941SOL    HW170500   4.434   3.496   1.027  0.7647 -0.4519  0.7569
22941SOL    HW270501   4.541   3.540   0.930 -1.7406  2.0117 -0.9465
22942SOL     OW70502   5.372   2.181   3.999  0.1054  0.2764  0.1492
22942SOL    HW170503   5.299   2.148   3.947 -0.1139  0.7212  0.1673
22942SOL    HW270504   5.342   2.172   4.090 -0.6771  2.1540  0.0998
22943SOL     OW70505   6.041   6.405   5.445  0.0076  0.1224 -0.2368
22943SOL    HW170506   6.115   6.439   5.496 -0.7004 -1.2637  1.7822
22943SOL    HW270507   6.037   6.312   5.469 -2.0915  0.0873 -0.6876
22944SOL     OW70508   0.666   0.239   2.863 -0.2104  0.2755  0.3439
22944SOL    HW170509   0.657   0.309   2.928  2.1381  0.8434  0.0939
22944SOL    HW270510   0.717   0.279   2.792 -1.8204 -0.6472 -1.3828
22945SOL     OW70511   3.860   6.565   6.978 -0.1145  0.1938 -0.0190
22945SOL    HW170512   3.839   6.472   6.984  1.8527 -0.2876 -0.1952
22945SOL    HW270513   3.832   6.602   7.062  1.1686 -0.9960  0.9487
22946SOL     OW70514   3.055   0.454   4.756  0.1006  0.6715  0.0723
22946SOL    HW170515   3.138   0.427   4.717 -0.0752 -1.3284  1.0340
22946SOL    HW270516   3.079   0.496   4.838  0.2206  1.1684 -0.2137
22947SOL     OW70517   4.810   6.051   6.035 -0.6378 -0.6133  0.4086
22947SOL    HW170518   4.855   6.031   6.116  0.6703 -1.5744 -0.5425
22947SOL    HW270519   4.733   6.102   6.062  1.4685  1.8504  1.9819
22948SOL     OW70520   8.004   4.243   4.070 -0.2319  0.5368  0.3977
22948SOL    HW170521   7.982   4.336   4.070  0.6632  0.7558  1.8629
22948SOL    HW270522   8.033   4.224   4.159  1.2206 -0.7540 -0.3144
22949SOL     OW70523   2.170   2.715   7.951  0.0809 -0.1775 -0.5872
22949SOL    HW170524   2.194   2.802   7.981 -0.7747 -0.3644  0.7069
22949SOL    HW270525   2.144   2.669   8.031  0.4650 -1.6001 -1.2544
22950SOL     OW70526   1.870   0.710   8.777  0.1728  0.3560  0.3097
22950SOL    HW170527   1.861   0.616   8.760 -0.3968  0.3934  0.3826
22950SOL    HW270528   1.949   0.735   8.730 -0.2049  0.0307 -0.5176
22951SOL     OW70529   2.280   5.915   0.135  0.4213  0.0435  0.6277
22951SOL    HW170530   2.290   6.002   0.097  0.4278 -0.2170  0.0286
22951SOL    HW270531   2.358   5.904   0.190  2.4550 -1.1484 -2.3701
22952SOL     OW70532   3.917   5.349   6.434  0.0431  0.4314 -0.1151
22952SOL    HW170533   3.868   5.267   6.440  0.2751  0.2536 -0.6728
22952SOL    HW270534   3.979   5.335   6.363 -0.5553  1.4331 -0.8379
22953SOL     OW70535   9.202   0.381   2.740  0.0292 -0.3483 -0.1032
22953SOL    HW170536   9.167   0.333   2.815 -0.2154  1.3181  0.8774
22953SOL    HW270537   9.295   0.360   2.738  0.1449  0.0083  1.0118
22954SOL     OW70538   6.618   7.883   0.996 -0.6192  0.8358 -0.1349
22954SOL    HW170539   6.687   7.876   1.061 -0.6080  0.1370 -0.2182
22954SOL    HW270540   6.538   7.899   1.047 -0.5054  0.9374  0.0097
22955SOL     OW70541   0.375   4.768   4.192 -0.8857  0.3188  0.8384
22955SOL    HW170542   0.369   4.794   4.100  0.6180 -0.7243  0.4263
22955SOL    HW270543   0.285   4.744   4.216 -1.2547  0.4014 -0.4245
22956SOL     OW70544   6.161   3.784   6.722 -0.4301  0.0820  0.0287
22956SOL    HW170545   6.243   3.833   6.731 -0.7662  0.5684  0.5289
22956SOL    HW270546   6.160   3.753   6.632  0.1013  0.4395 -0.0982
22957SOL     OW70547   6.524   5.344   6.316 -0.1104 -0.2691  0.4968
22957SOL    HW170548   6.548   5.432   6.344 -1.6024  0.2009  0.3181
22957SOL    HW270549   6.607   5.296   6.314  0.5290  0.7455  1.9580
22958SOL     OW70550   4.117   7.999   3.765 -0.2126  0.3079 -0.1362
22958SOL    HW170551   4.056   7.965   3.831 -1.1303  0.2513 -1.0012
22958SOL    HW270552   4.065   8.062   3.715  0.9426  1.5992  0.2475
22959SOL     OW70553   4.755   2.258   0.344 -0.1575 -0.0532 -0.3217
22959SOL    HW170554   4.775   2.345   0.377  0.5722 -0.4216  0.1992
22959SOL    HW270555   4.786   2.198   0.412  1.2502 -0.8131 -1.6024
22960SOL     OW70556   4.500   0.123   5.215 -0.1115  0.2763 -0.1180
22960SOL    HW170557   4.540   0.179   5.281 -3.2442  1.0742  1.1764
22960SOL    HW270558   4.421   0.170   5.188 -1.5385 -2.4005 -0.7427
22961SOL     OW70559   7.186   3.383   9.046 -0.0323 -0.0972  0.6763
22961SOL    HW170560   7.188   3.404   8.952  1.0610 -3.0813 -0.0444
22961SOL    HW270561   7.097   3.406   9.074 -0.5720  0.2604 -1.2556
22962SOL     OW70562   5.817   9.087   2.486 -0.0728  0.0369 -0.2259
22962SOL    HW170563   5.733   9.072   2.441  1.0947 -0.4213 -2.3091
22962SOL    HW270564   5.882   9.048   2.428  1.6808  1.1717  0.9595
22963SOL     OW70565   6.579   4.950   3.580 -0.4495  0.1338 -0.5706
22963SOL    HW170566   6.501   4.967   3.632 -0.5183 -1.8618  0.0311
22963SOL    HW270567   6.600   5.034   3.539 -1.5928  1.2365  1.0423
22964SOL     OW70568   1.771   8.514   7.683 -0.1381 -0.1323 -0.4805
22964SOL    HW170569   1.737   8.437   7.729  0.0080  1.1946  1.9512
22964SOL    HW270570   1.703   8.580   7.692  0.5534  0.6454 -0.8498
22965SOL     OW70571   4.231   3.437   2.606 -0.3574  0.5166  0.1944
22965SOL    HW170572   4.273   3.504   2.551  0.1026  0.8613  0.9569
22965SOL    HW270573   4.283   3.437   2.686 -1.4593  0.5212  0.9164
22966SOL     OW70574   7.804   0.240   7.119  0.0552 -0.0211 -0.3131
22966SOL    HW170575   7.822   0.334   7.122  2.9158 -0.5251  0.5944
22966SOL    HW270576   7.856   0.204   7.191 -1.9478 -2.1603  0.1023
22967SOL     OW70577   3.250   1.341   0.235  0.1336  0.4204  0.1444
22967SOL    HW170578   3.305   1.294   0.297 -0.5034 -0.3761  0.1215
22967SOL    HW270579   3.201   1.272   0.189  0.6397  1.0008 -1.2796
22968SOL     OW70580   0.106   9.202   7.601 -0.8521  0.2933  0.7428
22968SOL    HW170581   0.147   9.189   7.516  1.7535  0.3988  1.9299
22968SOL    HW270582   0.084   9.295   7.603 -2.4192 -0.0334 -0.4265
22969SOL     OW70583   0.144   0.396   2.482 -0.1473  0.2188  0.3675
22969SOL    HW170584   0.154   0.488   2.507  0.4221  0.0947  0.6025
22969SOL    HW270585   0.157   0.347   2.563  1.1149 -0.1547 -0.0468
22970SOL     OW70586   6.279   1.016   1.390  0.3296 -0.2082  0.1046
22970SOL    HW170587   6.318   1.053   1.470  0.7657  1.1473 -0.7230
22970SOL    HW270588   6.265   1.091   1.333 -1.7623 -0.9316 -0.3599
22971SOL     OW70589   3.084   3.047   6.051 -0.3996 -0.3873  0.3655
22971SOL    HW170590   3.041   3.108   5.991  0.7402 -0.1276 -0.1965
22971SOL    HW270591   3.138   3.103   6.107 -2.7513 -0.4357  2.8028
22972SOL     OW70592   0.398   9.225   7.945  0.3928  0.1205 -0.1656
22972SOL    HW170593   0.492   9.212   7.955  0.5850  0.7935 -1.0175
22972SOL    HW270594   0.377   9.296   8.007  0.3350 -0.4164  0.4402
22973SOL     OW70595   2.812   2.454   4.536  0.4354 -0.0424  0.5051
22973SOL    HW170596   2.801   2.549   4.537  0.3922 -0.0408 -0.3152
22973SOL    HW270597   2.886   2.438   4.478 -0.0220 -0.5610  0.0573
22974SOL     OW70598   8.356   4.634   3.790  0.0871 -0.0059 -0.2314
22974SOL    HW170599   8.342   4.666   3.702 -0.5184 -1.0358 -0.5195
22974SOL    HW270600   8.306   4.693   3.846 -0.2648  0.1020 -0.6605
22975SOL     OW70601   0.087   3.992   1.472  0.1170 -0.0817  0.0863
22975SOL    HW170602   0.176   3.963   1.494  0.1849  0.7189  0.8766
22975SOL    HW270603   0.041   3.993   1.556 -1.5554 -3.4458 -0.6800
22976SOL     OW70604   3.215   9.116   2.432 -0.6394 -0.3048  0.1315
22976SOL    HW170605   3.239   9.134   2.341 -0.3386  0.7412  0.4085
22976SOL    HW270606   3.290   9.067   2.467 -0.4273 -0.0669  0.0164
22977SOL     OW70607   1.942   4.509   3.716  0.1804  0.0004  0.1045
22977SOL    HW170608   1.871   4.479   3.773  2.6468  0.1820  3.3864
22977SOL    HW270609   1.907   4.588   3.674 -2.5349 -1.4637 -0.4849
22978SOL     OW70610   1.522   9.134   2.995 -0.6832  0.1953  0.4657
22978SOL    HW170611   1.556   9.106   3.081 -1.6348  0.1824  0.8419
22978SOL    HW270612   1.575   9.211   2.973 -0.7764  0.5181  1.3122
22979SOL     OW70613   6.193   2.453   6.766 -0.6735 -0.2178  0.2482
22979SOL    HW170614   6.267   2.394   6.774 -1.2270 -0.8847  0.5339
22979SOL    HW270615   6.178   2.462   6.672 -0.1024  0.0820  0.1883
22980SOL     OW70616   5.317   3.551   9.019  0.7139 -0.8027 -0.2297
22980SOL    HW170617   5.357   3.605   9.087  1.4230 -0.8509 -0.6068
22980SOL    HW270618   5.381   3.551   8.948 -0.6417  0.4638 -1.4804
22981SOL     OW70619   8.387   9.170   2.155  0.0124 -0.4314 -0.6500
22981SOL    HW170620   8.428   9.242   2.108 -2.1450  1.0568 -0.3183
22981SOL    HW270621   8.293   9.184   2.143 -0.5172 -1.3727  2.0535
22982SOL     OW70622   7.011   3.148   6.869  0.2274 -0.0870  0.2756
22982SOL    HW170623   7.048   3.225   6.912  1.5979 -1.5011  1.7287
22982SOL    HW270624   7.038   3.156   6.777 -0.5487  1.6803  0.1942
22983SOL     OW70625   2.421   5.370   5.578 -0.3283  0.0908 -0.0019
22983SOL    HW170626   2.392   5.428   5.507 -0.7977 -3.7362 -3.0810
22983SOL    HW270627   2.341   5.332   5.613  0.2008 -2.7828 -1.7258
22984SOL     OW70628   0.031   0.294   5.395 -0.2207 -0.0513 -1.0466
22984SOL    HW170629   0.064   0.225   5.452 -2.0412  0.2667  0.4324
22984SOL    HW270630   0.085   0.370   5.416 -1.2882  0.2473  0.7871
22985SOL     OW70631   1.604   9.058   2.394 -0.8439 -0.5542 -0.1294
22985SOL    HW170632   1.673   8.999   2.364  0.4226  0.9429 -0.2188
22985SOL    HW270633   1.528   9.033   2.343 -0.1108 -1.5514 -0.7635
22986SOL     OW70634   5.441   0.054   6.760 -0.2837  0.3753  0.3874
22986SOL    HW170635   5.374   0.110   6.721 -0.8792 -0.1712  0.6078
22986SOL    HW270636   5.403  -0.033   6.758  0.6644 -0.0359 -0.0035
22987SOL     OW70637   6.630   5.213   7.520 -0.0876 -0.2933  0.0870
22987SOL    HW170638   6.563   5.264   7.476  0.0294  0.0331  0.2846
22987SOL    HW270639   6.581   5.146   7.569 -0.2979  0.2439  0.6197
22988SOL     OW70640   4.253   2.966   0.613  0.2620  0.4375  0.5607
22988SOL    HW170641   4.211   3.036   0.563  0.1524  0.3606  0.5465
22988SOL    HW270642   4.291   3.011   0.688 -1.3004  0.2820  1.4759
22989SOL     OW70643   0.264   6.009   1.383  0.6955  0.0869  0.1494
22989SOL    HW170644   0.331   5.985   1.319 -0.5532 -1.5340 -0.5833
22989SOL    HW270645   0.225   5.926   1.409 -0.9697  1.0006  0.6377
22990SOL     OW70646   3.527   3.867   7.611 -0.0617  0.4774 -0.3754
22990SOL    HW170647   3.622   3.856   7.602 -0.2195 -0.1579 -1.2960
22990SOL    HW270648   3.517   3.960   7.632  0.7588  0.5706 -0.3466
22991SOL     OW70649   5.311   2.798   0.006  0.3103 -0.4264 -0.3819
22991SOL    HW170650   5.388   2.813  -0.049  0.5433  0.6361  0.2148
22991SOL    HW270651   5.294   2.704   0.000  2.1920 -0.8078  0.1995
22992SOL     OW70652   2.780   3.791   0.610  0.0319 -0.1357 -0.0806
22992SOL    HW170653   2.693   3.824   0.630 -0.2336 -0.4743 -0.6440
22992SOL    HW270654   2.767   3.696   0.598  0.5803 -0.2736  0.4368
22993SOL     OW70655   9.224   6.650   6.799  0.1451 -0.3939 -0.3666
22993SOL    HW170656   9.215   6.599   6.719  0.7697  0.6957 -1.1471
22993SOL    HW270657   9.235   6.741   6.769  1.3173 -0.0894  0.9165
22994SOL     OW70658   6.712   4.644   1.526 -0.0427  0.2884 -0.4167
22994SOL    HW170659   6.638   4.682   1.574 -0.5167 -1.4464  0.2535
22994SOL    HW270660   6.753   4.719   1.483 -0.9942  1.5548  0.8250
22995SOL     OW70661   4.154   3.453   8.198 -0.2234  0.3269 -0.1226
22995SOL    HW170662   4.196   3.539   8.209 -0.3292  0.4240 -0.4972
22995SOL    HW270663   4.098   3.463   8.121 -1.6666  0.4754  0.9229
22996SOL     OW70664   8.127   4.347   7.949 -0.0650  0.0027  0.4680
22996SOL    HW170665   8.043   4.339   7.904  0.6733 -1.8336 -0.6199
22996SOL    HW270666   8.104   4.378   8.037 -1.7499  0.8257 -0.2484
22997SOL     OW70667   4.421   3.405   0.372  0.1978  0.2586 -0.4365
22997SOL    HW170668   4.477   3.331   0.346  0.5627  0.7218 -0.9816
22997SOL    HW270669   4.366   3.421   0.296 -0.0902  0.3546 -0.2068
22998SOL     OW70670   6.519   0.342   5.299  0.4524 -0.2359  0.4836
22998SOL    HW170671   6.588   0.383   5.246 -0.2638  1.5122  0.8724
22998SOL    HW270672   6.554   0.343   5.388 -0.2947  1.1602  0.7667
22999SOL     OW70673   8.782   2.762   7.924  0.2345 -0.1579  0.3850
22999SOL    HW170674   8.703   2.789   7.878  0.5323  1.2349  0.6801
22999SOL    HW270675   8.829   2.843   7.942  1.5924 -0.9429  0.4753
23000SOL     OW70676   6.588   1.486   7.737  0.1391  0.0542  0.6984
23000SOL    HW170677   6.607   1.407   7.787  0.4636 -1.0695 -1.1758
23000SOL    HW270678   6.674   1.521   7.715  0.0092 -0.1856 -0.2045
23001SOL     OW70679   0.946   6.985   3.646 -0.3545 -0.8840 -0.3537
23001SOL    HW170680   1.019   6.936   3.608 -0.3692 -0.8753 -0.3937
23001SOL    HW270681   0.966   7.077   3.628  0.1218 -0.8128  0.5064
23002SOL     OW70682   5.611   6.724   0.626 -0.4293 -0.0567 -0.1930
23002SOL    HW170683   5.672   6.796   0.638 -0.1459 -0.4776  0.9508
23002SOL    HW270684   5.618   6.701   0.533  0.7022  0.2924 -0.1929
23003SOL     OW70685   0.486   4.061   0.793  0.5529  0.3446  0.1447
23003SOL    HW170686   0.530   3.977   0.805 -0.7288 -0.1361  1.5774
23003SOL    HW270687   0.409   4.057   0.850  0.0176  2.1632 -0.4025
23004SOL     OW70688   0.573   3.742   0.818 -0.2850 -0.9066 -0.1629
23004SOL    HW170689   0.559   3.647   0.813 -1.0088 -0.8624  0.7990
23004SOL    HW270690   0.665   3.751   0.843 -0.2243 -1.3601 -0.2107
23005SOL     OW70691   9.095   1.946   6.063 -0.4791 -0.3501  0.1128
23005SOL    HW170692   8.999   1.956   6.063 -0.3957  0.5236  0.9668
23005SOL    HW270693   9.114   1.894   6.141 -0.3530 -1.6122 -0.7463
23006SOL     OW70694   6.503   2.015   2.341 -0.3631 -0.3270 -0.0904
23006SOL    HW170695   6.443   1.941   2.334 -0.2995 -0.6777  2.6227
23006SOL    HW270696   6.517   2.043   2.251 -3.4619 -1.1461 -0.8812
23007SOL     OW70697   2.685   5.398   0.803 -0.0009  0.1786 -0.1117
23007SOL    HW170698   2.669   5.474   0.748  0.8927  0.6905  0.3220
23007SOL    HW270699   2.603   5.385   0.851 -0.2461  0.7047 -0.3830
23008SOL     OW70700   3.584   2.747   7.594  0.3082 -0.1973  0.6579
23008SOL    HW170701   3.539   2.664   7.580 -0.5411  0.4675 -0.7177
23008SOL    HW270702   3.612   2.774   7.506  1.9561  0.2106  1.2921
23009SOL     OW70703   0.389   3.041   3.746 -0.0483  0.2782  0.8620
23009SOL    HW170704   0.424   3.100   3.813 -0.9457 -0.2755  1.8318
23009SOL    HW270705   0.397   2.954   3.784 -0.2463 -0.0789  0.1027
23010SOL     OW70706   5.286   6.094   2.139 -0.1453 -0.2096 -0.5547
23010SOL    HW170707   5.313   6.018   2.189  0.7772 -0.8088 -1.9216
23010SOL    HW270708   5.261   6.159   2.204  1.5680 -0.7648  0.6733
23011SOL     OW70709   2.303   2.409   0.642  0.2412  0.2396  0.7397
23011SOL    HW170710   2.333   2.381   0.556  2.7639  2.3002  0.8848
23011SOL    HW270711   2.354   2.357   0.704 -0.5970 -0.2865  0.9923
23012SOL     OW70712   5.482   3.607   9.265 -0.2532  0.0270  0.2214
23012SOL    HW170713   5.566   3.646   9.239 -0.4358 -0.3287 -0.9229
23012SOL    HW270714   5.505   3.545   9.334  0.1827  1.3328  1.2873
23013SOL     OW70715   4.499   3.683   8.042 -0.0078  0.2665  0.5755
23013SOL    HW170716   4.454   3.599   8.047  2.8771 -1.4454 -0.7609
23013SOL    HW270717   4.459   3.728   7.968  0.4968 -1.2752 -0.6675
23014SOL     OW70718   8.438   5.544   2.161 -0.2945  0.4801 -0.2769
23014SOL    HW170719   8.466   5.595   2.237  3.3681  2.0462 -2.5432
23014SOL    HW270720   8.369   5.597   2.120 -3.2371 -0.9911  2.5524
23015SOL     OW70721   1.587   5.522   6.255 -0.4618  0.1939  0.0188
23015SOL    HW170722   1.529   5.452   6.284  1.3609 -1.1082  0.6003
23015SOL    HW270723   1.530   5.585   6.211 -1.8909 -2.5071 -2.0846
23016SOL     OW70724   0.581   6.096   4.426 -0.8350  0.3783  0.6471
23016SOL    HW170725   0.529   6.174   4.405 -0.7028  0.6601  1.3414
23016SOL    HW270726   0.664   6.110   4.381 -0.7164  0.7717  0.9781
23017SOL     OW70727   5.148   7.335   5.372 -0.2242  0.6179  0.0560
23017SOL    HW170728   5.204   7.398   5.327 -1.8923  2.3467  0.3644
23017SOL    HW270729   5.187   7.326   5.459  0.0694  1.1724 -0.0173
23018SOL     OW70730   6.349   0.526   0.247  0.1088 -0.0988  0.1914
23018SOL    HW170731   6.417   0.563   0.191 -0.5520  1.3186  0.3019
23018SOL    HW270732   6.275   0.513   0.188 -0.7441  1.8245  0.7950
23019SOL     OW70733   0.839   7.710   8.741  0.0737  0.7144  0.6981
23019SOL    HW170734   0.821   7.803   8.757 -2.0476  0.1599  1.8224
23019SOL    HW270735   0.752   7.669   8.742  1.1363 -1.5781  2.3059
23020SOL     OW70736   4.477   5.053   7.508 -0.2424  0.2567  0.1578
23020SOL    HW170737   4.468   5.121   7.574  0.8178  1.0019 -0.4503
23020SOL    HW270738   4.466   5.098   7.425 -2.8954 -0.8977 -0.1788
23021SOL     OW70739   9.029   7.719   0.744  0.2198  0.1229  0.8492
23021SOL    HW170740   9.071   7.740   0.827 -1.4609 -0.6821  1.9380
23021SOL    HW270741   8.993   7.631   0.757  0.8484 -0.4281 -1.0954
23022SOL     OW70742   1.546   1.087   7.022  0.0844  0.3339 -0.5584
23022SOL    HW170743   1.585   1.123   7.102 -1.3640  0.3610  0.1593
23022SOL    HW270744   1.556   1.157   6.957  0.0798  0.8283 -0.0270
23023SOL     OW70745   0.404   2.442   8.930  0.2334 -0.1326  0.0359
23023SOL    HW170746   0.437   2.504   8.865 -0.2436 -0.2140 -0.2803
23023SOL    HW270747   0.417   2.356   8.890  1.7837 -0.3045  0.8622
23024SOL     OW70748   8.515   2.761   6.689 -0.0219  0.5629  0.5155
23024SOL    HW170749   8.598   2.807   6.675 -0.5199  1.2454 -0.2569
23024SOL    HW270750   8.468   2.815   6.753  0.5233 -0.3370  1.6883
23025SOL     OW70751   6.221   2.739   7.232  0.3132 -0.0395  1.1837
23025SOL    HW170752   6.239   2.743   7.138 -0.8364 -1.2810  0.8971
23025SOL    HW270753   6.147   2.799   7.245 -1.2141 -1.7839  0.8409
23026SOL     OW70754   2.952   5.829   3.442  0.0554  0.2093 -0.9350
23026SOL    HW170755   2.931   5.849   3.350 -2.1215 -0.2550 -0.5650
23026SOL    HW270756   2.868   5.836   3.488  0.7162 -1.7128  0.6329
23027SOL     OW70757   4.897   8.424   5.573  0.2996  0.2954  0.1429
23027SOL    HW170758   4.904   8.499   5.514  3.0292  0.5768  0.7284
23027SOL    HW270759   4.829   8.449   5.636  0.4682  1.8523 -0.2632
23028SOL     OW70760   6.092   7.567   1.949 -0.3257  0.0396 -0.1369
23028SOL    HW170761   6.174   7.554   1.998 -1.3252 -1.0631  1.3255
23028SOL    HW270762   6.078   7.484   1.904 -0.6165  0.2289 -0.3974
23029SOL     OW70763   8.005   0.524   8.127  0.2684  0.0271  0.2411
23029SOL    HW170764   7.979   0.537   8.219  0.3437 -2.3896  0.6506
23029SOL    HW270765   8.100   0.510   8.131  0.2285 -0.3474 -0.1638
23030SOL     OW70766   5.527   6.666   5.116  0.5019 -0.5764 -0.3138
23030SOL    HW170767   5.467   6.737   5.094  0.2793 -0.3224  1.0681
23030SOL    HW270768   5.480   6.586   5.091 -0.8353 -0.4330  1.6225
23031SOL     OW70769   0.961   0.266   6.910  0.0718 -0.5119  0.3263
23031SOL    HW170770   0.985   0.286   6.819  2.0410 -0.7779  0.7659
23031SOL    HW270771   1.022   0.318   6.963 -1.9719  0.7448  1.5290
23032SOL     OW70772   8.972   0.911   5.472  0.0555  0.6049 -0.0632
23032SOL    HW170773   9.059   0.933   5.506 -0.6562  4.2669 -0.4042
23032SOL    HW270774   8.984   0.905   5.377  0.2010 -0.4751  0.0095
23033SOL     OW70775   5.271   8.298   2.687 -0.7184 -0.0800 -0.1422
23033SOL    HW170776   5.198   8.360   2.683 -0.0869  0.5943 -2.1449
23033SOL    HW270777   5.230   8.212   2.678 -1.4924  0.1190  1.4382
23034SOL     OW70778   9.031   0.188   1.828  0.5147  0.1442  0.2386
23034SOL    HW170779   9.008   0.281   1.833  1.4879  0.5613 -2.5497
23034SOL    HW270780   8.976   0.153   1.758 -1.8966 -2.0585  3.1065
23035SOL     OW70781   6.115   6.509   3.045 -0.1458  0.5453  0.2906
23035SOL    HW170782   6.112   6.414   3.049 -0.1773  0.5626  0.6797
23035SOL    HW270783   6.076   6.531   2.961  2.6844  0.0482 -1.2187
23036SOL     OW70784   4.252   1.250   1.333  0.8543  0.1082 -0.3630
23036SOL    HW170785   4.339   1.288   1.334  0.8135  0.2468 -1.5328
23036SOL    HW270786   4.220   1.258   1.423  2.2557 -0.4344  0.1862
23037SOL     OW70787   6.822   2.489   7.475  0.0887  0.4777 -0.7227
23037SOL    HW170788   6.735   2.487   7.433 -0.0734  1.6730 -0.4744
23037SOL    HW270789   6.803   2.486   7.569  0.3225  0.5646 -0.6727
23038SOL     OW70790   4.478   6.056   6.068  0.1962 -0.2600 -0.3254
23038SOL    HW170791   4.440   6.002   6.138  0.6469 -2.3998 -1.6909
23038SOL    HW270792   4.482   6.144   6.105 -0.5547 -1.1581  1.9664
23039SOL     OW70793   5.491   5.223   7.727  0.0371 -0.3717  0.0893
23039SOL    HW170794   5.480   5.318   7.714 -0.3168 -0.6047 -1.3912
23039SOL    HW270795   5.504   5.214   7.822  2.4589  1.3877 -0.0070
23040SOL     OW70796   3.670   6.079   6.267 -0.4491 -0.0285  0.1594
23040SOL    HW170797   3.662   6.084   6.172 -0.0435  0.7511  0.1575
23040SOL    HW270798   3.644   5.990   6.289  0.3858 -0.5140 -0.7787
23041SOL     OW70799   6.054   7.348   6.225  0.4379  0.1060  0.5528
23041SOL    HW170800   6.021   7.287   6.159  2.2913  0.0371 -0.3285
23041SOL    HW270801   5.980   7.407   6.241 -0.5465 -0.8300 -0.4344
23042SOL     OW70802   5.744   3.639   7.891  0.3464 -0.0250  0.1481
23042SOL    HW170803   5.805   3.653   7.963  0.4777  0.2269 -0.0106
23042SOL    HW270804   5.659   3.669   7.925  1.0691  3.7252 -1.0318
23043SOL     OW70805   1.419   9.135   2.760  0.0336  0.3475  0.0516
23043SOL    HW170806   1.370   9.056   2.739 -0.3540  0.4413  0.5711
23043SOL    HW270807   1.447   9.122   2.851  0.2088  0.6799  0.0456
23044SOL     OW70808   0.508   5.147   4.756 -0.0319 -0.2065  0.3482
23044SOL    HW170809   0.582   5.130   4.814 -0.1087  0.1019  0.5414
23044SOL    HW270810   0.508   5.074   4.695  0.5383 -0.1200  0.2419
23045SOL     OW70811   9.254   2.559   5.402  0.2295 -0.7998 -0.0206
23045SOL    HW170812   9.298   2.535   5.321 -1.2165 -0.7944 -0.8212
23045SOL    HW270813   9.174   2.505   5.403 -1.4821  1.6640 -0.3067
23046SOL     OW70814   6.530   1.244   5.968  0.4185  0.8361  0.1896
23046SOL    HW170815   6.434   1.245   5.972  0.4913  1.7123  2.3449
23046SOL    HW270816   6.558   1.266   6.057  2.6281  0.5144 -0.3991
23047SOL     OW70817   8.818   4.501   7.376 -0.2371 -0.3011 -0.0176
23047SOL    HW170818   8.825   4.413   7.338  2.1216  0.3515 -1.2066
23047SOL    HW270819   8.770   4.551   7.311  1.2699  0.0784 -0.8761
23048SOL     OW70820   3.284   7.153   3.841  0.2246  0.2725 -0.1800
23048SOL    HW170821   3.319   7.097   3.771 -0.2369 -1.1329  0.6918
23048SOL    HW270822   3.248   7.229   3.795 -0.2678 -0.7347 -1.4898
23049SOL     OW70823   3.478   8.634   3.520  0.6014  0.2144  0.2047
23049SOL    HW170824   3.513   8.614   3.607  0.6189 -0.0728  0.1325
23049SOL    HW270825   3.414   8.703   3.535 -0.0231 -0.4286  0.5657
23050SOL     OW70826   1.091   0.973   1.146  0.6077 -0.1004 -0.0346
23050SOL    HW170827   1.068   1.044   1.086  0.6746 -0.2055 -0.1828
23050SOL    HW270828   1.054   1.001   1.230  0.6541  0.1211 -0.0868
23051SOL     OW70829   6.701   7.824   1.967 -0.4645 -0.2924  0.0334
23051SOL    HW170830   6.630   7.829   2.032 -1.1271 -3.0027 -0.4503
23051SOL    HW270831   6.657   7.834   1.883  0.1135  0.8341 -0.1516
23052SOL     OW70832   1.475   1.231   1.645 -0.3003 -0.4308  0.0080
23052SOL    HW170833   1.419   1.171   1.694  0.3753 -0.3496  0.8868
23052SOL    HW270834   1.543   1.175   1.607  0.5887 -0.1752  1.1981
23053SOL     OW70835   9.064   2.706   8.170 -0.2797 -0.0994 -0.6623
23053SOL    HW170836   9.046   2.800   8.165  1.0255  0.2188  0.3936
23053SOL    HW270837   9.056   2.686   8.263  0.4612 -0.8259 -0.7552
23054SOL     OW70838   7.684   2.545   8.902  0.1678 -0.4910  0.4960
23054SOL    HW170839   7.748   2.503   8.844  0.5240  1.1170 -0.3071
23054SOL    HW270840   7.645   2.473   8.951  1.9770 -1.5842  0.3756
23055SOL     OW70841   8.333   2.578   5.752  0.0056 -0.6435 -0.2966
23055SOL    HW170842   8.336   2.673   5.759  1.7335 -0.7845  1.0954
23055SOL    HW270843   8.328   2.561   5.657  0.0131  0.8176 -0.5657
23056SOL     OW70844   5.876   0.205   9.020 -0.2900 -0.3644 -0.2325
23056SOL    HW170845   5.876   0.287   8.970  1.5818 -0.5542 -0.5728
23056SOL    HW270846   5.844   0.230   9.107 -1.2919  0.4170 -0.8214
23057SOL     OW70847   7.888   3.317   5.843 -0.4707  0.1857  0.2207
23057SOL    HW170848   7.859   3.266   5.919 -4.0610  0.1041 -1.1223
23057SOL    HW270849   7.891   3.408   5.875  2.2956 -0.3460  1.5938
23058SOL     OW70850   7.878   4.800   5.372 -0.2263  0.2585  0.8684
23058SOL    HW170851   7.944   4.731   5.363 -1.4235 -1.0519  1.8132
23058SOL    HW270852   7.892   4.856   5.296  0.8874 -0.9291  0.1609
23059SOL     OW70853   0.271   8.542   8.705 -0.0480  0.1647 -0.0667
23059SOL    HW170854   0.341   8.607   8.703  0.3762 -0.2341  1.1771
23059SOL    HW270855   0.205   8.575   8.644  0.8326  0.9908 -0.5766
23060SOL     OW70856   8.919   2.024   4.841  0.1486  1.1167 -0.5270
23060SOL    HW170857   8.895   2.028   4.748  1.7800  0.9211 -0.9754
23060SOL    HW270858   8.892   1.937   4.869 -1.6651  1.6915 -0.4279
23061SOL     OW70859   1.175   1.607   2.361  0.8566  0.3921  0.2861
23061SOL    HW170860   1.206   1.639   2.446  2.5919 -1.1777  0.2805
23061SOL    HW270861   1.252   1.613   2.305 -0.0667  0.6289 -0.9722
23062SOL     OW70862   1.173   1.617   8.182  0.0967 -0.4508  0.2534
23062SOL    HW170863   1.149   1.561   8.108  0.0809 -0.6062  0.3775
23062SOL    HW270864   1.238   1.678   8.146 -0.6966  0.1565 -0.1533
23063SOL     OW70865   5.453   9.139   9.181 -0.4316  0.0236  0.4500
23063SOL    HW170866   5.548   9.143   9.185 -0.3861 -1.1650  0.9537
23063SOL    HW270867   5.432   9.050   9.211 -1.7448  0.6232  1.3507
23064SOL     OW70868   1.238   2.833   8.433 -0.3911 -0.4460 -1.1429
23064SOL    HW170869   1.254   2.823   8.527  2.0927  0.5234 -1.4194
23064SOL    HW270870   1.261   2.924   8.415 -2.7624 -0.0432 -2.3626
23065SOL     OW70871   3.479   2.965   1.227  0.5250  0.4499 -0.1976
23065SOL    HW170872   3.443   2.971   1.315 -0.4351  0.4975 -0.5886
23065SOL    HW270873   3.542   3.038   1.222  3.0582 -1.5389  1.5557
23066SOL     OW70874   2.427   6.496   2.550 -0.6458  0.6480  0.4393
23066SOL    HW170875   2.501   6.508   2.490  1.4695 -0.4206  2.7329
23066SOL    HW270876   2.349   6.515   2.497  1.2268  1.2534 -2.1869
23067SOL     OW70877   6.755   0.861   3.842  0.6563 -0.1276  0.1161
23067SOL    HW170878   6.717   0.927   3.784  1.5523  0.6128  0.3670
23067SOL    HW270879   6.802   0.802   3.783 -1.7669 -1.7076 -0.3255
23068SOL     OW70880   6.880   2.089   7.723  0.1434  0.0977  0.3542
23068SOL    HW170881   6.844   2.005   7.751 -0.1991  0.4366  0.9515
23068SOL    HW270882   6.833   2.154   7.775 -1.1230  0.8124 -1.6321
23069SOL     OW70883   0.945   8.180   0.136 -0.0590  0.4226  0.5926
23069SOL    HW170884   1.009   8.133   0.188  0.3298  1.3721  0.9876
23069SOL    HW270885   0.860   8.143   0.162  0.2297  0.0360  0.9836
23070SOL     OW70886   8.555   0.955   6.968 -0.3453 -0.4198 -0.1316
23070SOL    HW170887   8.636   0.990   7.006 -1.4360 -0.1635  1.9965
23070SOL    HW270888   8.495   0.947   7.042 -2.2297 -0.7616 -1.6695
23071SOL     OW70889   7.722   1.142   3.439 -0.2145 -0.1400  0.1117
23071SOL    HW170890   7.664   1.184   3.375  0.9831 -0.9263 -1.5142
23071SOL    HW270891   7.664   1.118   3.512 -1.9993 -1.1497 -1.5955
23072SOL     OW70892   6.301   1.151   3.607 -0.1703  0.1917 -0.1638
23072SOL    HW170893   6.324   1.150   3.514  1.0905  0.0992  0.1329
23072SOL    HW270894   6.340   1.232   3.641 -0.0859 -0.0841  0.4120
23073SOL     OW70895   4.453   2.343   9.190 -0.5047  0.4156  0.2633
23073SOL    HW170896   4.396   2.285   9.239 -0.7612  0.6701  0.2700
23073SOL    HW270897   4.537   2.298   9.187 -0.6417  0.1482  0.4586
23074SOL     OW70898   9.252   3.894   9.147  0.4306  0.2003 -0.1990
23074SOL    HW170899   9.303   3.974   9.159  0.7180  0.1922 -1.3138
23074SOL    HW270900   9.175   3.921   9.097 -0.7879  0.2462  1.6540
23075SOL     OW70901   2.414   8.080   3.895 -0.5951  0.1391 -0.5473
23075SOL    HW170902   2.391   8.032   3.815  1.5173  1.3148 -1.9133
23075SOL    HW270903   2.386   8.170   3.877 -0.7339  0.2770  0.3390
23076SOL     OW70904   2.831   3.386   1.729 -0.7804 -0.2728  0.1350
23076SOL    HW170905   2.810   3.406   1.820  0.8473 -2.4476  1.0376
23076SOL    HW270906   2.897   3.451   1.704  0.5117 -1.0824  1.3108
23077SOL     OW70907   6.854   7.425   7.958  0.6878 -0.4079  0.1546
23077SOL    HW170908   6.857   7.487   7.885 -0.3971 -0.3033  0.1962
23077SOL    HW270909   6.853   7.480   8.036 -0.6643 -0.4699  0.1808
23078SOL     OW70910   0.475   9.214   6.903 -0.1555 -0.0556 -0.3167
23078SOL    HW170911   0.548   9.187   6.846 -1.4844  0.9862 -2.5913
23078SOL    HW270912   0.463   9.307   6.883  0.7957  0.9139  3.3795
23079SOL     OW70913   0.129   6.825   1.786  0.5729  0.5374  0.3497
23079SOL    HW170914   0.167   6.777   1.860  0.6905 -0.0859 -0.1117
23079SOL    HW270915   0.076   6.894   1.827 -0.4863 -0.6648  1.0446
23080SOL     OW70916   4.913   7.697   4.870  0.2342  0.1171 -0.1689
23080SOL    HW170917   4.943   7.720   4.958  1.9915  4.4932 -1.7482
23080SOL    HW270918   4.819   7.683   4.880  0.6018 -0.7371  2.6072
23081SOL     OW70919   3.798   4.376   7.008 -0.8527 -0.3078 -0.1426
23081SOL    HW170920   3.831   4.309   6.948  0.3745  0.4054 -0.2765
23081SOL    HW270921   3.714   4.341   7.039 -0.4170 -1.7224 -0.5199
23082SOL     OW70922   1.181   3.677   7.027  0.5330 -0.8837 -0.0860
23082SOL    HW170923   1.242   3.749   7.016 -0.7784  0.4218  0.9741
23082SOL    HW270924   1.221   3.622   7.094  1.7569 -1.4152 -1.2201
23083SOL     OW70925   6.950   6.800   8.969  0.0212  0.5330  0.1431
23083SOL    HW170926   7.002   6.859   9.023 -0.4471 -0.6790  2.0013
23083SOL    HW270927   6.989   6.713   8.983 -1.0511 -0.0289 -0.2493
23084SOL     OW70928   5.768   5.007   0.367 -0.5690 -0.2989  0.4825
23084SOL    HW170929   5.817   5.081   0.403  0.0724 -0.9499  0.9823
23084SOL    HW270930   5.689   5.045   0.330  1.1236  1.0524 -1.9608
23085SOL     OW70931   3.844   6.332   4.518 -0.1689  0.1143  0.1711
23085SOL    HW170932   3.921   6.276   4.503 -0.1195  0.1222  0.4005
23085SOL    HW270933   3.800   6.334   4.433  0.7530  1.1270 -0.2875
23086SOL     OW70934   4.091   1.498   5.984  0.5032 -0.1909  0.5254
23086SOL    HW170935   4.095   1.419   5.931 -1.3008  0.4522 -0.6406
23086SOL    HW270936   4.062   1.566   5.923  0.5644  1.0459  1.8409
23087SOL     OW70937   4.033   7.625   6.374 -0.0530  0.0884 -0.1467
23087SOL    HW170938   4.038   7.593   6.284  2.6700 -1.4190  0.5050
23087SOL    HW270939   4.122   7.651   6.396 -0.7243  0.6522  2.0451
23088SOL     OW70940   5.249   2.970   5.612 -0.0881  0.6823  0.6198
23088SOL    HW170941   5.227   2.909   5.682  0.0251  0.2546  0.2824
23088SOL    HW270942   5.332   2.938   5.577 -0.5327  0.4270 -0.2347
23089SOL     OW70943   0.944   2.786   2.037  0.0423 -0.1174 -0.3798
23089SOL    HW170944   0.974   2.870   2.004 -1.4595  0.2014 -0.9618
23089SOL    HW270945   0.967   2.787   2.130  0.3349  0.7902 -0.4598
23090SOL     OW70946   9.109   3.233   2.283  0.3336  0.3545 -0.7344
23090SOL    HW170947   9.128   3.139   2.287  0.9635  0.5264  0.6568
23090SOL    HW270948   9.159   3.271   2.355 -2.1754  1.3562  0.5652
23091SOL     OW70949   3.840   8.071   2.961 -0.7212  0.1549 -0.2496
23091SOL    HW170950   3.766   8.011   2.962 -0.5296 -0.2265 -3.4633
23091SOL    HW270951   3.915   8.017   2.937  0.8061  0.3967  3.6128
23092SOL     OW70952   7.636   4.590   5.052 -0.0218  0.4784 -0.0059
23092SOL    HW170953   7.654   4.515   5.109 -2.1483  0.8685  1.2306
23092SOL    HW270954   7.652   4.557   4.963 -0.6390 -1.3594  0.5438
23093SOL     OW70955   7.005   5.925   3.128  0.1997 -0.2130 -0.0764
23093SOL    HW170956   7.041   5.925   3.039 -1.5395  0.3831 -0.7858
23093SOL    HW270957   6.983   5.833   3.144  0.5544 -0.3291 -0.2323
23094SOL     OW70958   4.925   4.328   8.212  0.1191  0.3878  0.5056
23094SOL    HW170959   5.007   4.283   8.194 -0.9908 -1.8764  0.9005
23094SOL    HW270960   4.928   4.348   8.306  0.4328  0.7575  0.4162
23095SOL     OW70961   6.116   3.342   7.276 -0.1764 -0.6018  0.2400
23095SOL    HW170962   6.182   3.383   7.220 -1.1827 -0.0515 -0.5718
23095SOL    HW270963   6.118   3.249   7.250 -0.1215 -0.4825 -0.1898
23096SOL     OW70964   7.893   1.199   8.311 -0.2713  0.0630 -0.0391
23096SOL    HW170965   7.985   1.188   8.287  0.7904  3.3325  2.1522
23096SOL    HW270966   7.884   1.154   8.395  0.0190  1.9002  1.0027
23097SOL     OW70967   6.364   0.857   0.216 -0.2768  0.1376 -0.1694
23097SOL    HW170968   6.309   0.935   0.214  0.0668  0.3602 -2.3587
23097SOL    HW270969   6.453   0.890   0.203 -0.0328 -0.5355 -0.2182
23098SOL     OW70970   8.071   6.492   6.869  0.0891 -0.1275 -0.0432
23098SOL    HW170971   8.024   6.411   6.851  1.8576 -0.5571 -3.1173
23098SOL    HW270972   8.156   6.464   6.902 -0.4007  0.5717  1.8811
23099SOL     OW70973   7.937   2.462   5.890  0.6580  0.1237 -0.0659
23099SOL    HW170974   7.924   2.453   5.984 -0.0558  0.4821 -0.1316
23099SOL    HW270975   7.990   2.386   5.866  0.1399 -0.4151  0.4807
23100SOL     OW70976   4.419   5.628   5.758  0.1883 -0.1969 -0.0479
23100SOL    HW170977   4.368   5.583   5.825 -1.4673 -0.2833 -1.3390
23100SOL    HW270978   4.452   5.706   5.802 -1.7916  0.3184  0.5659
23101SOL     OW70979   7.410   4.356   4.433  0.7145 -0.2155  0.0088
23101SOL    HW170980   7.447   4.277   4.393 -1.2198 -0.9927 -0.3185
23101SOL    HW270981   7.473   4.425   4.412  1.5554 -1.3229 -1.2355
23102SOL     OW70982   8.270   3.101   2.021  0.1882  0.3476  0.1010
23102SOL    HW170983   8.201   3.064   2.076  1.0052 -1.1153  0.1743
23102SOL    HW270984   8.333   3.138   2.084 -0.1051  0.9240  0.0597
23103SOL     OW70985   9.063   4.304   7.992 -0.3178 -0.1441 -0.2251
23103SOL    HW170986   8.992   4.304   7.928 -1.3404 -1.7187  0.8704
23103SOL    HW270987   9.019   4.288   8.076  1.2033  0.0149  0.6123
23104SOL     OW70988   2.355   9.218   5.077  0.7775 -0.1197 -0.1818
23104SOL    HW170989   2.313   9.132   5.071 -1.6758  1.1481 -1.9461
23104SOL    HW270990   2.449   9.199   5.080  0.2581 -2.8546 -0.5451
23105SOL     OW70991   1.428   3.703   4.066  0.1723  0.2086  0.0218
23105SOL    HW170992   1.493   3.639   4.097 -0.3655 -0.2353  0.2331
23105SOL    HW270993   1.471   3.745   3.992 -0.2452 -1.8348 -1.4304
23106SOL     OW70994   1.976   2.001   6.250 -0.0517  0.5304  0.2272
23106SOL    HW170995   2.017   2.087   6.254  0.3432  0.3538 -0.0040
23106SOL    HW270996   1.976   1.979   6.157  1.8774 -0.6974  0.4927
23107SOL     OW70997   7.702   5.882   5.459 -0.2444 -0.4786 -0.2263
23107SOL    HW170998   7.779   5.841   5.499 -2.0192 -1.1928  2.6704
23107SOL    HW270999   7.677   5.951   5.521 -2.1716 -0.5332 -0.9174
23108SOL     OW71000   1.943   5.276   0.999  0.1324  0.3076  0.1497
23108SOL    HW171001   1.908   5.351   0.951  0.6502  0.2350 -0.3401
23108SOL    HW271002   1.883   5.266   1.074 -0.4929  0.6124 -0.3025
23109SOL     OW71003   7.378   0.868   0.991  0.3338 -0.2930 -0.4174
23109SOL    HW171004   7.419   0.946   1.029 -1.6788  0.6975 -0.2072
23109SOL    HW271005   7.331   0.901   0.914  0.2890 -1.4581 -0.8883
23110SOL     OW71006   1.816   8.247   8.673 -0.3945  0.3416 -0.0413
23110SOL    HW171007   1.876   8.270   8.602 -0.6893 -0.6304 -0.6065
23110SOL    HW271008   1.729   8.250   8.634 -0.7663  2.0777  0.8628
23111SOL     OW71009   0.635   2.069   4.818 -0.3784 -0.1056 -0.2008
23111SOL    HW171010   0.651   2.007   4.889 -1.7817  0.2350  0.4185
23111SOL    HW271011   0.708   2.130   4.822 -0.2851 -0.2797  0.7432
23112SOL     OW71012   5.035   4.134   2.497  0.0964 -0.7519  0.4041
23112SOL    HW171013   5.071   4.223   2.497 -0.4042 -0.5306 -0.9526
23112SOL    HW271014   5.101   4.082   2.451  0.1112 -0.9697  0.6711
23113SOL     OW71015   9.062   4.269   4.659 -0.1862  0.4642 -0.0248
23113SOL    HW171016   9.058   4.209   4.586  0.5341 -1.0651  1.1619
23113SOL    HW271017   9.041   4.216   4.736  0.1110  1.7866  1.0066
23114SOL     OW71018   0.777   4.268   2.229 -0.2386  0.1255 -0.1483
23114SOL    HW171019   0.774   4.192   2.170 -0.4041 -0.9305  1.1795
23114SOL    HW271020   0.691   4.269   2.271 -0.1590  0.9249  0.0064
23115SOL     OW71021   4.003   8.488   0.440 -0.0463  0.6424  0.1213
23115SOL    HW171022   3.989   8.519   0.530 -2.2037  1.8729 -0.5927
23115SOL    HW271023   3.928   8.432   0.422  1.1223 -0.7770 -0.4487
23116SOL     OW71024   2.976   6.603   5.810 -0.0874 -0.1291  0.0913
23116SOL    HW171025   3.000   6.519   5.848  0.4075  0.3632  0.8959
23116SOL    HW271026   3.047   6.623   5.748 -1.2109 -1.2247 -1.5846
23117SOL     OW71027   6.971   3.968   7.398 -0.4537  0.4782 -0.8635
23117SOL    HW171028   6.972   4.015   7.481  0.6937 -0.1234 -0.5266
23117SOL    HW271029   6.951   3.878   7.421  0.2786  0.2296 -1.1953
23118SOL     OW71030   3.563   4.127   6.866  0.0110 -0.5010  0.1653
23118SOL    HW171031   3.533   4.048   6.911  0.0544  1.2944  3.5164
23118SOL    HW271032   3.502   4.138   6.793 -3.4091 -0.6230  2.9026
23119SOL     OW71033   6.671   0.516   5.966  0.3545 -0.2925 -0.2519
23119SOL    HW171034   6.614   0.590   5.947  0.1301 -0.4727 -0.2904
23119SOL    HW271035   6.611   0.446   5.993  0.5738 -0.4137 -0.0696
23120SOL     OW71036   5.736   3.008   6.201  0.0408 -0.9984 -0.0817
23120SOL    HW171037   5.683   2.991   6.279  0.9100 -1.6093  0.3802
23120SOL    HW271038   5.804   2.941   6.202  1.0518  0.0062 -0.4594
23121SOL     OW71039   6.677   0.696   2.069  0.4152  0.0674 -0.4550
23121SOL    HW171040   6.722   0.613   2.076 -1.5197 -0.9222  0.7499
23121SOL    HW271041   6.728   0.756   2.123  1.1681 -0.6227 -0.3978
23122SOL     OW71042   1.241   8.660   1.529  0.0707  0.1406 -0.2332
23122SOL    HW171043   1.156   8.661   1.485 -0.6548 -0.7730  1.1076
23122SOL    HW271044   1.236   8.731   1.593  0.6239  0.6147 -0.7138
23123SOL     OW71045   8.384   1.265   8.106  0.0026 -0.5606  0.9806
23123SOL    HW171046   8.290   1.257   8.089 -0.1469  1.0400  0.8946
23123SOL    HW271047   8.409   1.347   8.061  1.5920 -1.3640  0.3540
23124SOL     OW71048   6.874   0.662   2.855 -0.2089 -0.7177 -0.2076
23124SOL    HW171049   6.936   0.614   2.910 -1.5515  0.7439  2.6896
23124SOL    HW271050   6.929   0.706   2.790  1.6743 -0.4462  1.5255
23125SOL     OW71051   3.066   1.359   8.257  0.4983 -0.2984  0.1885
23125SOL    HW171052   2.987   1.408   8.279  0.6806  0.0258  0.1212
23125SOL    HW271053   3.034   1.273   8.231  0.1133  0.0471 -0.5017
23126SOL     OW71054   3.310   3.998   1.098  0.6705 -0.0214  0.4723
23126SOL    HW171055   3.309   3.972   1.006  0.1265  0.7283  0.2583
23126SOL    HW271056   3.344   3.922   1.145  1.6895 -0.1300 -0.4361
23127SOL     OW71057   3.862   7.096   5.239  0.8612  0.0822 -0.6360
23127SOL    HW171058   3.800   7.167   5.255 -0.4067 -1.1929  0.2653
23127SOL    HW271059   3.829   7.053   5.160  0.0244 -1.1680  0.3687
23128SOL     OW71060   8.228   6.873   0.114 -0.3168  0.2701  0.4016
23128SOL    HW171061   8.307   6.926   0.120 -0.9559  1.2956 -0.1470
23128SOL    HW271062   8.238   6.806   0.182  1.7891 -0.6515 -0.7675
23129SOL     OW71063   5.030   7.358   6.063 -0.3960  0.0939  0.1365
23129SOL    HW171064   4.995   7.373   5.975  0.1150  0.6096  0.0196
23129SOL    HW271065   5.118   7.323   6.047  0.1668  1.3374  0.4501
23130SOL     OW71066   7.069   4.943   1.907 -0.5172  0.2170 -0.1080
23130SOL    HW171067   7.047   4.997   1.983 -0.3371 -0.3294  0.3350
23130SOL    HW271068   7.032   4.991   1.833 -0.5752  0.8228  0.3064
23131SOL     OW71069   4.502   6.520   5.563 -0.0683  0.1023  0.5035
23131SOL    HW171070   4.470   6.574   5.491  1.2326 -1.1420 -1.0459
23131SOL    HW271071   4.460   6.435   5.549 -1.7045  0.5136  2.6245
23132SOL     OW71072   4.622   5.776   2.256  0.2931  0.6237 -0.0822
23132SOL    HW171073   4.701   5.799   2.305  0.9683  0.3705 -1.0337
23132SOL    HW271074   4.638   5.811   2.168  0.1121 -0.9802 -0.7683
23133SOL     OW71075   2.600   1.242   3.476 -0.3983 -0.1720 -0.4451
23133SOL    HW171076   2.509   1.270   3.483 -0.1855 -0.0269  2.7475
23133SOL    HW271077   2.597   1.161   3.425 -2.1809  0.3350 -1.1570
23134SOL     OW71078   8.344   7.734   0.786  0.0938 -0.3099  0.8225
23134SOL    HW171079   8.414   7.776   0.736  0.7727 -1.2114  1.0138
23134SOL    HW271080   8.268   7.739   0.728  0.7880 -1.0267 -0.1629
23135SOL     OW71081   4.403   5.949   9.057 -0.3191  0.1738  0.0855
23135SOL    HW171082   4.461   5.882   9.092 -0.6831  0.3417  1.0404
23135SOL    HW271083   4.459   6.026   9.046  0.5788 -0.8726 -3.0297
23136SOL     OW71084   1.453   4.403   4.977  0.2323 -0.3205 -0.0094
23136SOL    HW171085   1.477   4.449   4.897  0.5312  1.0672  0.8609
23136SOL    HW271086   1.535   4.365   5.009  0.0681 -1.0869 -0.4847
23137SOL     OW71087   6.541   2.676   1.869 -0.0523 -0.0671  0.1213
23137SOL    HW171088   6.594   2.689   1.948 -0.3462  0.3889  0.2489
23137SOL    HW271089   6.519   2.583   1.869  2.2742 -0.6724 -0.8944
23138SOL     OW71090   7.043   4.490   8.133 -0.4805 -0.0673  0.3499
23138SOL    HW171091   6.983   4.529   8.069 -0.6150 -1.4128 -0.3552
23138SOL    HW271092   7.008   4.403   8.148  0.7795 -0.5280  0.6422
23139SOL     OW71093   8.910   4.784   3.448  0.1819 -0.2722  0.1404
23139SOL    HW171094   8.908   4.797   3.543 -0.4002  1.1645 -0.0555
23139SOL    HW271095   8.919   4.872   3.412  1.0837 -0.8598 -1.1323
23140SOL     OW71096   4.304   0.476   6.235 -0.0140  0.2770 -0.2557
23140SOL    HW171097   4.391   0.489   6.273 -0.6844 -1.1215  1.7831
23140SOL    HW271098   4.263   0.409   6.289 -1.8823 -0.0625 -2.0188
23141SOL     OW71099   7.383   3.433   2.563 -0.3600 -0.2067 -0.2297
23141SOL    HW171100   7.366   3.346   2.528 -1.0932 -0.5763  1.0349
23141SOL    HW271101   7.454   3.467   2.508 -1.2908 -0.8763 -1.9006
23142SOL     OW71102   3.634   3.999   3.472 -0.0405  0.0282  0.3755
23142SOL    HW171103   3.567   3.933   3.456  0.5210 -0.2702 -0.7794
23142SOL    HW271104   3.622   4.064   3.403  2.3231 -1.2196 -1.2942
23143SOL     OW71105   8.912   7.130   0.186 -0.4978 -0.0577 -0.8068
23143SOL    HW171106   9.001   7.095   0.182 -0.0907  1.0052 -1.3434
23143SOL    HW271107   8.863   7.066   0.237  0.8894  0.0167  0.6492
23144SOL     OW71108   1.332   1.278   0.212  0.3406  0.0887 -0.4500
23144SOL    HW171109   1.265   1.344   0.228 -0.5116 -1.0908  1.0051
23144SOL    HW271110   1.359   1.250   0.299  2.2120  0.0144 -1.0312
23145SOL     OW71111   5.830   1.115   6.938  0.0423  0.2193  0.4401
23145SOL    HW171112   5.772   1.071   6.876  0.2723 -3.6338  2.8145
23145SOL    HW271113   5.771   1.160   6.998 -0.3417  0.0372  0.1994
23146SOL     OW71114   8.804   4.313   8.990 -0.8589  0.5948  0.1990
23146SOL    HW171115   8.849   4.375   9.048 -0.8095  0.9669 -0.2416
23146SOL    HW271116   8.763   4.368   8.923  0.4757  0.0553 -1.0822
23147SOL     OW71117   2.130   5.645   6.331 -0.1925  0.3905 -0.3379
23147SOL    HW171118   2.037   5.651   6.351 -0.4040  2.1023 -1.7611
23147SOL    HW271119   2.135   5.582   6.260 -0.2899  0.4600 -0.4064
23148SOL     OW71120   6.244   3.937   9.112 -0.1358 -0.6115  0.3283
23148SOL    HW171121   6.167   3.881   9.104  0.5173 -1.8139  2.1363
23148SOL    HW271122   6.319   3.878   9.102  0.5653  0.2236  0.5432
23149SOL     OW71123   2.648   6.682   8.305 -0.7088  0.0255 -0.0195
23149SOL    HW171124   2.706   6.613   8.274 -0.9263  0.0783 -0.5599
23149SOL    HW271125   2.688   6.763   8.272 -1.3812  0.0215 -0.8780
23150SOL     OW71126   9.195   4.897   5.742 -0.0452  0.2124  0.2556
23150SOL    HW171127   9.231   4.972   5.789  0.1087  1.4390 -1.7695
23150SOL    HW271128   9.264   4.830   5.747  1.5045  1.6334 -1.3578
23151SOL     OW71129   2.395   7.624   1.282 -0.5340  0.5163 -0.4837
23151SOL    HW171130   2.415   7.577   1.201  1.2143  2.0659 -0.9846
23151SOL    HW271131   2.471   7.612   1.337 -0.8745  1.1506  0.1378
23152SOL     OW71132   5.776   1.634   6.012  0.1535  0.5975  0.0714
23152SOL    HW171133   5.826   1.602   5.937  0.6756 -0.5394  0.8823
23152SOL    HW271134   5.783   1.730   6.006  1.5203  0.4796 -0.4416
23153SOL     OW71135   6.290   7.705   2.132 -0.2324  0.6898  0.5971
23153SOL    HW171136   6.373   7.751   2.136 -0.6499  1.3361  2.0567
23153SOL    HW271137   6.231   7.766   2.087  0.0654  0.2375 -0.4252
23154SOL     OW71138   0.796   8.084   1.978  0.3613  0.0798 -0.0227
23154SOL    HW171139   0.881   8.119   2.005  1.4708 -1.3497 -1.6009
23154SOL    HW271140   0.732   8.141   2.022  2.1063  1.9726  0.1433
23155SOL     OW71141   2.782   1.907   4.873 -0.7773  0.2016  0.1177
23155SOL    HW171142   2.866   1.862   4.887  1.2081  3.6738 -0.0521
23155SOL    HW271143   2.792   1.952   4.790 -2.8899  0.6393  0.0660
23156SOL     OW71144   8.214   3.033   6.294  0.3704 -0.4984  0.1675
23156SOL    HW171145   8.308   3.025   6.276  0.6815 -0.2204  1.6193
23156SOL    HW271146   8.189   3.116   6.255  0.9014 -0.1774  0.5123
23157SOL     OW71147   1.041   6.267   1.147  0.1221 -0.0150  0.3155
23157SOL    HW171148   1.110   6.334   1.139 -0.3994  0.3339 -1.6815
23157SOL    HW271149   0.974   6.307   1.201  1.5350 -0.4185  2.4392
23158SOL     OW71150   7.261   9.045   1.756  0.4664 -0.2774  0.1553
23158SOL    HW171151   7.334   9.093   1.796  0.9908 -0.4041 -0.6498
23158SOL    HW271152   7.228   9.103   1.688  1.0746 -1.0377 -0.7968
23159SOL     OW71153   6.091   5.430   5.860  0.1780  0.0583  0.0232
23159SOL    HW171154   6.107   5.524   5.852  1.3671 -0.2737 -1.8502
23159SOL    HW271155   6.155   5.401   5.925 -0.0773  0.5154  0.4798
23160SOL     OW71156   7.653   3.118   5.244 -0.0102 -0.1168  0.6732
23160SOL    HW171157   7.738   3.132   5.203  1.2375 -0.1337  3.1675
23160SOL    HW271158   7.642   3.023   5.246  1.1117 -0.2204  2.6738
23161SOL     OW71159   5.049   1.456   6.111 -0.3823 -0.2611  0.6174
23161SOL    HW171160   5.045   1.361   6.106 -1.2840 -0.1526 -1.4969
23161SOL    HW271161   4.964   1.486   6.077  1.1310  1.3226 -2.0411
23162SOL     OW71162   2.798   0.365   8.311 -0.0371  0.2603 -0.4014
23162SOL    HW171163   2.835   0.423   8.243 -0.8425  1.0730 -0.1557
23162SOL    HW271164   2.734   0.420   8.356 -0.1860 -0.5744  0.4035
23163SOL     OW71165   0.523   1.370   0.958 -0.0284  0.2970  0.1237
23163SOL    HW171166   0.469   1.362   0.879 -0.6059 -0.3593  0.5744
23163SOL    HW271167   0.473   1.428   1.015 -0.7410 -1.0502  0.9205
23164SOL     OW71168   6.578   7.395   4.481  0.1778 -0.5993  0.1217
23164SOL    HW171169   6.546   7.485   4.487 -0.3540 -0.6538 -1.6431
23164SOL    HW271170   6.641   7.396   4.409  0.4791 -1.5463  0.3638
23165SOL     OW71171   0.583   7.066   3.481 -0.6360  0.5307  0.0197
23165SOL    HW171172   0.491   7.065   3.506 -0.7732 -0.1674 -0.4792
23165SOL    HW271173   0.627   7.113   3.551 -1.4553  1.3998 -0.0344
23166SOL     OW71174   2.542   5.074   8.303 -0.5885  0.0077 -0.1573
23166SOL    HW171175   2.627   5.047   8.269 -1.2257 -1.7596 -0.4094
23166SOL    HW271176   2.541   5.169   8.291  1.0155 -0.0472 -0.9122
23167SOL     OW71177   5.695   6.261   9.084  0.2253  0.4743  0.5410
23167SOL    HW171178   5.742   6.257   9.167  0.0675 -0.7128  0.5844
23167SOL    HW271179   5.756   6.226   9.020  0.3963  1.5243  0.1234
23168SOL     OW71180   8.555   1.430   7.695  0.5550  0.4008  0.3700
23168SOL    HW171181   8.639   1.471   7.714 -0.4114  1.6441  2.2101
23168SOL    HW271182   8.566   1.339   7.719  1.2298  0.6728  1.1035
23169SOL     OW71183   6.426   7.943   0.339  0.6973  0.3510  0.2630
23169SOL    HW171184   6.403   7.855   0.370  0.6772  0.8454  1.7124
23169SOL    HW271185   6.500   7.930   0.280 -0.4437 -0.8118 -0.9512
23170SOL     OW71186   0.845   3.745   0.850 -0.2568  0.1153 -0.0349
23170SOL    HW171187   0.884   3.829   0.826 -1.8493  0.3875 -1.8139
23170SOL    HW271188   0.881   3.683   0.788  0.3149 -0.3813  0.7847
23171SOL     OW71189   3.854   4.295   2.065  0.2517 -0.0170  0.1623
23171SOL    HW171190   3.820   4.215   2.025  2.9179 -0.7577 -0.7336
23171SOL    HW271191   3.779   4.332   2.112 -1.0829 -2.9789  0.4964
23172SOL     OW71192   3.149   6.585   8.906 -0.1368  0.3730  0.6283
23172SOL    HW171193   3.218   6.521   8.893 -1.6219 -0.8361 -1.7146
23172SOL    HW271194   3.097   6.551   8.979 -0.2690 -0.5330  0.1172
23173SOL     OW71195   4.182   4.782   7.122 -0.2131 -0.0894 -0.3731
23173SOL    HW171196   4.174   4.855   7.185 -0.5066 -1.8388  1.6670
23173SOL    HW271197   4.091   4.756   7.106 -0.1101  0.0577 -1.2103
23174SOL     OW71198   5.500   3.319   5.264  0.2364  0.0687 -0.5029
23174SOL    HW171199   5.530   3.334   5.354  1.7097 -0.8564 -0.8210
23174SOL    HW271200   5.471   3.227   5.263  1.7008 -0.3964 -1.3567
23175SOL     OW71201   2.746   8.051   0.822  0.0685 -0.5186 -0.1290
23175SOL    HW171202   2.728   8.035   0.730  0.4266  1.3068 -0.5315
23175SOL    HW271203   2.705   8.135   0.841  2.6689  0.6721  0.5372
23176SOL     OW71204   3.752   3.908   8.995  0.0447  0.0665  0.1478
23176SOL    HW171205   3.748   3.975   8.926 -0.8872 -0.5727 -0.4229
23176SOL    HW271206   3.740   3.825   8.949 -2.7914 -0.2398  1.3239
23177SOL     OW71207   6.785   6.769   1.379  0.0330 -0.2985  0.1327
23177SOL    HW171208   6.773   6.674   1.380  0.2477 -0.3291 -0.1584
23177SOL    HW271209   6.730   6.801   1.451 -0.3234 -0.6079  0.0004
23178SOL     OW71210   4.468   7.819   4.779 -0.1543 -0.3529 -0.9003
23178SOL    HW171211   4.519   7.899   4.772  1.2409 -1.3932 -2.9381
23178SOL    HW271212   4.521   7.752   4.736 -0.9625 -2.5546  1.3390
23179SOL     OW71213   2.945   0.468   1.131 -0.5209  0.1191 -0.4767
23179SOL    HW171214   2.931   0.443   1.223 -1.3129  0.6998 -0.4315
23179SOL    HW271215   2.866   0.436   1.086  1.0617 -2.5915 -1.4571
23180SOL     OW71216   5.303   2.817   1.605  0.0627  0.4673 -0.5868
23180SOL    HW171217   5.341   2.872   1.536 -0.0719 -0.4406 -1.4071
23180SOL    HW271218   5.288   2.733   1.562 -1.2172  0.2787  0.2218
23181SOL     OW71219   3.162   8.850   8.982  0.6786 -0.1256 -0.4684
23181SOL    HW171220   3.251   8.814   8.986  0.6928  0.0803  1.2982
23181SOL    HW271221   3.142   8.875   9.072 -0.8973  0.5144 -0.9814
23182SOL     OW71222   5.296   6.549   7.261  0.5912 -0.8036 -0.3362
23182SOL    HW171223   5.318   6.540   7.354  2.0527 -1.4551 -0.7119
23182SOL    HW271224   5.365   6.500   7.216 -0.2711 -0.7525 -1.7518
23183SOL     OW71225   7.574   3.245   6.045 -0.4784  0.2912 -0.4251
23183SOL    HW171226   7.496   3.277   6.090 -0.0051 -0.9910  1.3729
23183SOL    HW271227   7.541   3.181   5.981 -0.9905  0.6513 -0.5235
23184SOL     OW71228   1.619   0.168   5.011 -0.3244 -0.5168  0.1136
23184SOL    HW171229   1.677   0.148   5.084  1.0969 -0.7091 -1.0582
23184SOL    HW271230   1.650   0.252   4.977 -1.5482  0.0147  0.2827
23185SOL     OW71231   3.306   4.116   0.555 -0.2997 -0.3662 -0.4200
23185SOL    HW171232   3.213   4.138   0.552 -0.1561  0.4019  0.3628
23185SOL    HW271233   3.311   4.027   0.520 -1.2343 -0.1294 -1.1656
23186SOL     OW71234   2.750   0.722   4.731 -0.6568 -0.4379  0.5345
23186SOL    HW171235   2.825   0.764   4.772 -0.9084  0.2694  0.2681
23186SOL    HW271236   2.788   0.659   4.671 -0.2531  1.1927 -0.9473
23187SOL     OW71237   5.288   1.879   4.257 -0.8663  0.0904 -0.0390
23187SOL    HW171238   5.364   1.937   4.262  0.6915 -2.0691  1.9614
23187SOL    HW271239   5.225   1.917   4.319 -0.9566  1.1906 -0.7952
23188SOL     OW71240   0.200   7.730   1.651  0.5842 -0.2975  0.0440
23188SOL    HW171241   0.152   7.707   1.731  1.7412 -0.4154  0.7257
23188SOL    HW271242   0.148   7.693   1.580 -1.0734  0.7941  0.6524
23189SOL     OW71243   5.599   7.012   4.614 -0.0207 -0.2580  0.6375
23189SOL    HW171244   5.668   7.069   4.579  0.4794 -0.3425  1.4627
23189SOL    HW271245   5.646   6.933   4.641 -0.7970 -1.3167 -1.0476
23190SOL     OW71246   5.430   5.203   4.083 -0.1795  0.2358 -0.3656
23190SOL    HW171247   5.446   5.148   4.007  2.3841 -1.5658  1.3729
23190SOL    HW271248   5.498   5.270   4.079  1.1214 -0.9372  1.2290
23191SOL     OW71249   5.087   2.616   8.637 -0.5028 -0.5469 -0.3846
23191SOL    HW171250   5.064   2.659   8.554 -2.9633  0.1092  0.6245
23191SOL    HW271251   5.148   2.677   8.679 -0.4585 -0.1521 -1.0142
23192SOL     OW71252   7.113   8.609   2.655  0.2722  0.1183 -0.6049
23192SOL    HW171253   7.153   8.692   2.680 -1.2027  1.3067 -2.0276
23192SOL    HW271254   7.078   8.625   2.567 -2.9484 -0.9382  0.4079
23193SOL     OW71255   2.262   4.851   3.724 -0.0919  0.1366  0.0778
23193SOL    HW171256   2.202   4.869   3.652  1.0429 -0.9900 -1.1605
23193SOL    HW271257   2.304   4.935   3.742  0.0175  0.2999 -0.9397
23194SOL     OW71258   2.810   3.725   7.656  0.0729 -0.0105  0.4855
23194SOL    HW171259   2.821   3.778   7.735  1.8236  0.2932  0.0550
23194SOL    HW271260   2.804   3.788   7.585  1.5815 -0.3507  0.0360
23195SOL     OW71261   3.205   5.110   2.507 -0.0496 -0.2707 -0.0093
23195SOL    HW171262   3.256   5.134   2.430 -1.1124 -1.1938 -1.0217
23195SOL    HW271263   3.174   5.193   2.543 -1.3466  0.0661 -1.8316
23196SOL     OW71264   6.370   5.038   8.912  0.1172  0.1872  0.0085
23196SOL    HW171265   6.294   5.079   8.951 -0.5321 -1.2476  0.2745
23196SOL    HW271266   6.433   5.030   8.983  0.1894  0.5620 -0.0103
23197SOL     OW71267   5.106   1.983   4.513 -0.3212  0.6201 -0.1604
23197SOL    HW171268   5.131   2.035   4.589  0.0214  0.1380  0.0664
23197SOL    HW271269   5.145   1.897   4.530 -0.7954  0.3237 -0.5737
23198SOL     OW71270   1.104   3.925   6.692  0.0915 -0.0651  0.1022
23198SOL    HW171271   1.071   3.911   6.603  0.6356  0.4962 -0.1985
23198SOL    HW271272   1.192   3.887   6.691 -0.7151 -2.0267  1.0501
23199SOL     OW71273   1.419   3.396   1.621  0.2219  0.7556 -0.1917
23199SOL    HW171274   1.458   3.309   1.615 -0.3980  0.3147  1.8432
23199SOL    HW271275   1.477   3.452   1.568  0.6691 -0.8566 -1.4295
23200SOL     OW71276   8.794   0.280   9.047 -0.5205 -0.8866  0.6015
23200SOL    HW171277   8.875   0.237   9.021 -0.7090 -0.6132 -0.4453
23200SOL    HW271278   8.762   0.322   8.967 -1.9418 -1.3835  0.8982
23201SOL     OW71279   5.106   6.754   4.818  0.2604  0.6418  0.6020
23201SOL    HW171280   5.063   6.674   4.786  3.0455 -0.6993  0.0552
23201SOL    HW271281   5.050   6.825   4.787 -1.3207 -1.0156 -0.4564
23202SOL     OW71282   4.861   4.862   6.624  0.1891 -0.0633 -0.8935
23202SOL    HW171283   4.841   4.951   6.653 -1.8090 -0.6022 -0.5534
23202SOL    HW271284   4.918   4.874   6.547  0.5636  1.4723 -0.3907
23203SOL     OW71285   0.530   0.884   5.495 -0.0293  0.0170  0.1642
23203SOL    HW171286   0.549   0.800   5.453  0.0472 -0.0261  0.2849
23203SOL    HW271287   0.576   0.948   5.441  2.7464 -0.3367  1.9768
23204SOL     OW71288   4.515   0.495   6.724  0.1351  0.4148 -0.0531
23204SOL    HW171289   4.501   0.468   6.634  2.7642  1.0266 -0.6789
23204SOL    HW271290   4.455   0.440   6.775  1.5338 -2.8378 -1.7809
23205SOL     OW71291   8.438   3.702   0.282 -0.1528 -0.3824 -0.0642
23205SOL    HW171292   8.362   3.677   0.229  0.0824  0.0410 -0.6004
23205SOL    HW271293   8.402   3.761   0.349 -0.3511 -0.4445 -0.1158
23206SOL     OW71294   6.068   3.762   0.030  0.0302 -0.1813  0.2361
23206SOL    HW171295   6.128   3.687   0.034  0.5754  0.2282 -0.1704
23206SOL    HW271296   6.060   3.782  -0.063  0.9493  1.1046  0.4213
23207SOL     OW71297   4.939   7.423   2.400  0.2031 -0.5384 -0.1501
23207SOL    HW171298   4.895   7.507   2.410 -0.6322 -0.7213 -2.1505
23207SOL    HW271299   4.921   7.377   2.482 -1.6642  0.1776 -0.1314
23208SOL     OW71300   8.157   3.091   5.121  0.5056  0.1018 -0.2690
23208SOL    HW171301   8.230   3.037   5.150 -0.8457 -3.8994 -3.7012
23208SOL    HW271302   8.079   3.047   5.155 -0.5434  0.9872 -1.4430
23209SOL     OW71303   5.137   5.227   4.190  0.4840  0.2075  0.0899
23209SOL    HW171304   5.135   5.159   4.257  1.0380  0.1387  0.0432
23209SOL    HW271305   5.225   5.220   4.152  0.9441  1.6925  0.8536
23210SOL     OW71306   0.026   0.321   3.158  0.0600  0.0104 -0.2288
23210SOL    HW171307   0.012   0.412   3.135 -0.7708  0.6904  2.8052
23210SOL    HW271308   0.085   0.324   3.234  0.7358 -2.0142 -0.6408
23211SOL     OW71309   3.497   4.435   7.693  0.1259  0.5723 -0.4573
23211SOL    HW171310   3.484   4.485   7.774  0.2800  0.5294 -0.4063
23211SOL    HW271311   3.526   4.500   7.630 -0.2745  0.6590 -0.5568
23212SOL     OW71312   8.745   6.946   7.738  0.3434  0.6408 -0.2537
23212SOL    HW171313   8.710   6.896   7.664  0.6330  0.1860 -0.0871
23212SOL    HW271314   8.836   6.917   7.746  0.1282  0.2021  0.6886
23213SOL     OW71315   1.795   8.248   9.120  0.1980 -0.1588 -0.2858
23213SOL    HW171316   1.777   8.298   9.040  0.6700 -1.1622 -1.0332
23213SOL    HW271317   1.709   8.229   9.157 -0.1200 -1.2018 -1.5086
23214SOL     OW71318   6.358   7.609   4.752 -0.0454 -0.0723 -0.0375
23214SOL    HW171319   6.355   7.671   4.824  0.2419 -0.4336  0.2864
23214SOL    HW271320   6.365   7.663   4.674 -1.3362  0.3520  0.1395
23215SOL     OW71321   0.304   4.192   7.571  0.6999  0.0455 -0.4306
23215SOL    HW171322   0.346   4.143   7.642  0.4434 -1.4019 -1.2492
23215SOL    HW271323   0.218   4.150   7.561 -0.4753  2.1701  0.3888
23216SOL     OW71324   6.452   4.605   7.229  0.3336 -0.1240  0.0547
23216SOL    HW171325   6.428   4.577   7.317 -1.4417  1.1185 -0.0209
23216SOL    HW271326   6.409   4.689   7.217  2.1231  0.6347 -1.3097
23217SOL     OW71327   0.917   6.887   6.336 -0.5809  0.4501 -0.2050
23217SOL    HW171328   0.863   6.863   6.260  0.1590  2.6292 -1.4643
23217SOL    HW271329   1.006   6.886   6.303 -0.1843  0.6665  0.8447
23218SOL     OW71330   7.381   0.507   7.583 -0.2655  0.0180 -0.5154
23218SOL    HW171331   7.462   0.489   7.537 -0.0987  1.2442 -0.7201
23218SOL    HW271332   7.322   0.437   7.557  0.2308 -0.0068 -1.5864
23219SOL     OW71333   5.741   4.584   7.661  0.6292  0.2006  0.0522
23219SOL    HW171334   5.736   4.521   7.733 -1.4085  0.2331 -0.0274
23219SOL    HW271335   5.681   4.548   7.594 -0.6388  2.2373  0.0463
23220SOL     OW71336   8.613   8.770   3.521 -0.1792 -0.1927 -0.6947
23220SOL    HW171337   8.643   8.791   3.433 -3.4115  0.1580 -1.7994
23220SOL    HW271338   8.584   8.679   3.515 -0.0215 -0.2971  0.1200
23221SOL     OW71339   7.627   4.891   1.790 -0.1178 -0.2778 -0.5184
23221SOL    HW171340   7.721   4.884   1.773 -0.3206 -0.9579 -1.3566
23221SOL    HW271341   7.609   4.822   1.853  0.4332  1.5602  1.7337
23222SOL     OW71342   5.553   3.717   3.696 -0.5559  0.5921  0.3408
23222SOL    HW171343   5.524   3.806   3.679  1.1223  1.0440 -0.3446
23222SOL    HW271344   5.478   3.673   3.735 -1.4676  2.2402  0.4602
23223SOL     OW71345   4.954   1.637   3.912  0.4107 -0.3577  0.6815
23223SOL    HW171346   4.902   1.569   3.867  1.1063 -0.8005  0.5424
23223SOL    HW271347   5.045   1.609   3.900  0.8335  1.7096 -1.1697
23224SOL     OW71348   6.957   1.603   4.642  0.1161  0.1602 -0.8618
23224SOL    HW171349   6.922   1.521   4.606  1.0936 -0.7112  0.1096
23224SOL    HW271350   7.022   1.574   4.706  0.5731  1.7128 -0.6135
23225SOL     OW71351   5.516   1.067   5.101 -0.1818 -0.1916 -0.0148
23225SOL    HW171352   5.534   0.973   5.102 -0.3009 -0.2271 -0.9096
23225SOL    HW271353   5.490   1.087   5.191  1.8391 -0.6104  0.6825
23226SOL     OW71354   2.176   8.998   0.833  1.0495  0.9719 -0.1786
23226SOL    HW171355   2.238   9.060   0.871  2.2442  0.4112 -1.1616
23226SOL    HW271356   2.161   9.031   0.744  0.1297  0.9602 -0.0347
23227SOL     OW71357   3.874   1.050   6.257  0.8005  0.1834 -0.1189
23227SOL    HW171358   3.852   1.007   6.174  0.7181 -1.5027  0.7567
23227SOL    HW271359   3.967   1.032   6.269  1.2218  1.8651 -0.6511
23228SOL     OW71360   1.707   8.562   2.999 -0.5151  0.8085  0.6836
23228SOL    HW171361   1.663   8.484   2.965 -1.0584  0.7198  1.5722
23228SOL    HW271362   1.778   8.527   3.053  0.1144  0.9453 -0.0470
23229SOL     OW71363   2.178   0.666   9.259  0.1202  0.2615  0.2104
23229SOL    HW171364   2.263   0.623   9.268  0.7155  1.5184  0.8159
23229SOL    HW271365   2.133   0.616   9.192  0.9205 -1.0805  0.6445
23230SOL     OW71366   3.574   6.390   7.931  0.0647  0.0145  0.1708
23230SOL    HW171367   3.592   6.298   7.949  1.7626  0.1312 -0.8640
23230SOL    HW271368   3.624   6.409   7.852 -2.5404  1.0859 -1.2588
23231SOL     OW71369   6.411   0.803   3.433 -0.0866  0.3079 -0.5207
23231SOL    HW171370   6.415   0.857   3.512 -1.0898  2.1494 -1.6970
23231SOL    HW271371   6.333   0.748   3.445 -0.4786  0.8852 -0.4147
23232SOL     OW71372   5.901   0.431   1.614 -1.0539  0.3666 -0.3177
23232SOL    HW171373   5.952   0.350   1.604  1.1241  1.8279 -1.5024
23232SOL    HW271374   5.810   0.404   1.601 -0.4319 -2.0111  0.0737
23233SOL     OW71375   4.810   3.486   2.776  0.1093  0.0966 -0.4172
23233SOL    HW171376   4.719   3.512   2.786  0.0037 -0.5242  0.2456
23233SOL    HW271377   4.859   3.568   2.773 -0.4646  0.4273 -0.7492
23234SOL     OW71378   4.478   6.635   1.721 -0.0663  0.1795 -0.7122
23234SOL    HW171379   4.552   6.687   1.753  1.6705 -1.6431 -1.6869
23234SOL    HW271380   4.403   6.694   1.727  1.4615  2.0571  0.3127
23235SOL     OW71381   3.096   7.516   1.651 -0.4514  0.2230 -0.0877
23235SOL    HW171382   3.003   7.523   1.676 -0.4634 -0.4135  0.0537
23235SOL    HW271383   3.133   7.602   1.673 -0.4512 -0.3455  2.1525
23236SOL     OW71384   8.562   6.813   6.802  0.0834 -0.2748 -0.0170
23236SOL    HW171385   8.625   6.884   6.792 -0.0597 -0.4398 -2.4817
23236SOL    HW271386   8.506   6.820   6.724 -0.1320 -2.8662 -0.1393
23237SOL     OW71387   6.298   2.661   0.370 -0.2642 -0.2313  0.1861
23237SOL    HW171388   6.344   2.597   0.315  1.0042 -0.0348  1.0017
23237SOL    HW271389   6.308   2.627   0.459  1.9379  2.0040  0.8377
23238SOL     OW71390   7.700   6.707   2.476  0.2554  0.1690 -0.1362
23238SOL    HW171391   7.619   6.726   2.430 -1.0086 -1.4779  1.3120
23238SOL    HW271392   7.752   6.657   2.414 -0.6209 -0.3668 -0.4455
23239SOL     OW71393   0.750   2.280   0.699  0.0779 -0.2214 -0.6036
23239SOL    HW171394   0.681   2.333   0.739  0.8314  0.6326 -0.3853
23239SOL    HW271395   0.705   2.206   0.660 -1.1809  1.3954 -2.2748
23240SOL     OW71396   2.781   2.178   5.048 -0.2217  0.4988  0.2426
23240SOL    HW171397   2.737   2.111   4.994 -1.5956  1.1070  0.5710
23240SOL    HW271398   2.870   2.183   5.014  0.0062 -1.7398  0.4219
23241SOL     OW71399   6.125   2.171   4.713  0.1421 -0.4473 -0.4724
23241SOL    HW171400   6.093   2.088   4.749  1.1410 -1.0560 -0.9709
23241SOL    HW271401   6.152   2.221   4.790  0.4919 -0.9939 -0.2316
23242SOL     OW71402   0.353   5.672   6.902 -0.4788 -0.0465  0.2902
23242SOL    HW171403   0.419   5.644   6.839 -0.0807 -0.3948  0.8615
23242SOL    HW271404   0.270   5.641   6.865 -0.1688 -0.8915  0.3028
23243SOL     OW71405   0.490   7.174   7.218  0.1660 -0.1557 -0.0835
23243SOL    HW171406   0.445   7.241   7.167  1.9875  1.3400  0.1994
23243SOL    HW271407   0.470   7.197   7.309  0.6665 -0.0854  0.0092
23244SOL     OW71408   2.897   7.164   0.112 -0.1125 -0.1145  0.3150
23244SOL    HW171409   2.926   7.190   0.025  0.4466  0.5381  0.6958
23244SOL    HW271410   2.866   7.074   0.100  0.5463 -0.2515 -0.4245
23245SOL     OW71411   1.070   4.244   6.208  0.0680  0.2025  0.3524
23245SOL    HW171412   1.076   4.181   6.136 -1.6595  1.2100 -0.6936
23245SOL    HW271413   1.123   4.318   6.179 -1.5522  1.0868 -0.4197
23246SOL     OW71414   6.088   0.707   2.453  0.1234 -0.4919  0.1993
23246SOL    HW171415   6.093   0.669   2.365 -1.1543 -0.8410  0.2649
23246SOL    HW271416   6.176   0.737   2.471  0.1139  0.7441 -1.7129
23247SOL     OW71417   4.068   1.721   2.969 -0.3053  0.1296 -0.1643
23247SOL    HW171418   4.121   1.781   2.916  2.3352  0.8336  3.1472
23247SOL    HW271419   4.000   1.777   3.006 -1.2312 -0.0645 -1.5396
23248SOL     OW71420   0.870   4.234   6.777  0.1872  0.3674  0.0548
23248SOL    HW171421   0.807   4.249   6.847 -2.0440 -1.9935 -1.4114
23248SOL    HW271422   0.945   4.193   6.820 -0.9427 -0.5706  1.1260
23249SOL     OW71423   8.161   9.192   2.862  0.0349  0.3837 -0.0087
23249SOL    HW171424   8.227   9.205   2.793  0.9190 -1.4115  0.4709
23249SOL    HW271425   8.127   9.104   2.846 -0.5970  0.4103  1.1438
23250SOL     OW71426   4.410   3.533   0.705 -0.5086  0.7896  0.2329
23250SOL    HW171427   4.347   3.465   0.679 -0.8084  1.1978 -0.1042
23250SOL    HW271428   4.435   3.509   0.794  0.0931 -0.3003 -0.2183
23251SOL     OW71429   8.422   1.818   0.964  0.1707  0.4629 -0.0421
23251SOL    HW171430   8.510   1.784   0.977  0.0148 -0.0457 -0.3211
23251SOL    HW271431   8.426   1.908   0.996  0.4864  0.0722  1.0197
23252SOL     OW71432   0.420   0.175   5.606  0.1303  0.0378  0.6473
23252SOL    HW171433   0.516   0.183   5.601  0.0798  0.6077  0.4734
23252SOL    HW271434   0.393   0.255   5.652 -0.3776  0.6244 -0.6515
23253SOL     OW71435   6.296   3.392   0.071  0.3922 -0.6259  0.1091
23253SOL    HW171436   6.353   3.333   0.119 -0.0015 -1.3782 -0.3377
23253SOL    HW271437   6.314   3.373  -0.021  0.8858  0.5534 -0.0454
23254SOL     OW71438   8.299   5.277   5.481 -0.1436 -0.1322 -0.1002
23254SOL    HW171439   8.268   5.289   5.391 -0.5057  0.1678  0.0635
23254SOL    HW271440   8.318   5.183   5.488 -0.1394 -0.1591 -0.4803
23255SOL     OW71441   2.464   0.324   8.334  0.4245 -0.1987  0.2818
23255SOL    HW171442   2.462   0.368   8.249  0.0238 -1.0035 -0.1305
23255SOL    HW271443   2.374   0.296   8.348  0.7165 -1.0751  0.4426
23256SOL     OW71444   2.999   0.683   9.210 -0.1258 -0.3487  0.3602
23256SOL    HW171445   3.031   0.601   9.248  1.9738  0.1868 -0.1857
23256SOL    HW271446   2.999   0.745   9.283  1.7490  0.0872  0.0187
23257SOL     OW71447   6.848   0.592   1.587 -0.1359 -0.1410  0.3759
23257SOL    HW171448   6.795   0.572   1.664  0.2938  0.5084  0.8488
23257SOL    HW271449   6.936   0.607   1.622  0.1089 -0.0702 -0.2685
23258SOL     OW71450   7.770   7.291   1.570  0.0845 -0.2816 -0.2522
23258SOL    HW171451   7.769   7.242   1.652 -2.0705 -1.6867 -1.0501
23258SOL    HW271452   7.832   7.243   1.515 -0.6377 -1.0710 -0.4004
23259SOL     OW71453   3.676   8.640   4.171  0.0592 -0.2377  0.0727
23259SOL    HW171454   3.602   8.643   4.111  1.5387 -3.2888 -2.0541
23259SOL    HW271455   3.643   8.593   4.248 -0.5962 -0.2722 -0.2307
23260SOL     OW71456   4.845   4.226   7.170  0.0925 -0.2230 -0.6201
23260SOL    HW171457   4.815   4.314   7.196 -1.1698 -0.9289  0.3622
23260SOL    HW271458   4.796   4.208   7.090 -0.5777 -0.5254 -0.1486
23261SOL     OW71459   1.042   2.483   3.649 -0.3054 -0.3244 -0.5880
23261SOL    HW171460   0.976   2.435   3.700 -0.5578  1.5670  0.9116
23261SOL    HW271461   1.118   2.425   3.648 -0.9935 -1.2747  0.1644
23262SOL     OW71462   5.064   0.922   8.307 -0.0073  0.1559  0.5843
23262SOL    HW171463   5.035   1.012   8.293 -0.5489 -0.2475 -1.0342
23262SOL    HW271464   5.127   0.928   8.379  1.7784  2.1963 -1.0518
23263SOL     OW71465   1.480   2.244   8.465  0.2955 -0.1067 -0.1669
23263SOL    HW171466   1.574   2.248   8.444  0.0884  1.5215 -0.8689
23263SOL    HW271467   1.439   2.301   8.401 -1.0034  0.4222  1.1067
23264SOL     OW71468   8.013   7.748   6.751  0.3364  0.3367 -0.0990
23264SOL    HW171469   8.043   7.695   6.825 -0.4669  0.5465  0.3765
23264SOL    HW271470   7.918   7.749   6.758  0.2305  0.1524 -1.2823
23265SOL     OW71471   4.099   3.378   5.886  0.6786 -0.1831  0.1341
23265SOL    HW171472   4.070   3.446   5.947  0.4753  1.1235 -1.3910
23265SOL    HW271473   4.100   3.298   5.939 -1.3823  0.5537  1.3844
23266SOL     OW71474   5.645   2.248   5.353  0.3629 -0.0806  0.3070
23266SOL    HW171475   5.663   2.213   5.440  1.4825 -0.0272  0.0972
23266SOL    HW271476   5.694   2.191   5.293 -1.5086 -0.9812 -0.4150
23267SOL     OW71477   6.546   3.724   8.804 -0.0995  0.5048  0.3567
23267SOL    HW171478   6.602   3.647   8.813 -0.7507  0.0315  0.3761
23267SOL    HW271479   6.587   3.775   8.735 -0.1274 -0.2663 -0.2343
23268SOL     OW71480   7.317   9.134   4.869  0.1308  0.0802  0.3454
23268SOL    HW171481   7.279   9.090   4.946 -0.5171 -0.4401 -0.2577
23268SOL    HW271482   7.306   9.070   4.799  1.6619  0.1495  0.0443
23269SOL     OW71483   4.638   4.781   9.182  0.1859  0.2337 -0.3387
23269SOL    HW171484   4.557   4.732   9.164 -0.1617  0.6244  0.1335
23269SOL    HW271485   4.676   4.736   9.258 -0.1961  0.7571  0.1725
23270SOL     OW71486   3.971   5.231   5.433  0.1133 -0.0637  0.1437
23270SOL    HW171487   3.881   5.264   5.435 -0.1108 -0.6900  2.1233
23270SOL    HW271488   4.011   5.274   5.358 -1.3408  1.5715  0.2611
23271SOL     OW71489   2.549   5.195   1.857 -0.1124 -0.3172  0.4538
23271SOL    HW171490   2.568   5.102   1.841  1.2854  0.1937 -0.9160
23271SOL    HW271491   2.513   5.196   1.946 -0.6382 -2.2275  0.2979
23272SOL     OW71492   0.049   6.804   3.254 -0.1202  0.3569 -0.7203
23272SOL    HW171493   0.055   6.868   3.324 -1.1819  1.0513 -1.2481
23272SOL    HW271494   0.007   6.727   3.294 -1.3056  0.9792 -0.7330
23273SOL     OW71495   2.941   6.076   4.736 -0.4357 -0.2865  0.3311
23273SOL    HW171496   2.887   6.128   4.675  0.5923 -0.5670 -0.8332
23273SOL    HW271497   2.909   5.987   4.726 -1.4998 -0.0601  1.5686
23274SOL     OW71498   2.919   0.033   6.524 -0.6234  0.6693  0.1235
23274SOL    HW171499   2.830   0.010   6.552 -0.3340  1.8506  2.1717
23274SOL    HW271500   2.972  -0.043   6.548 -0.6677  1.0054  1.3527
23275SOL     OW71501   4.555   9.245   1.650 -0.5263  0.1604 -0.3787
23275SOL    HW171502   4.578   9.303   1.577  1.8705 -0.1493  0.1174
23275SOL    HW271503   4.600   9.163   1.630  0.1654  0.0768  1.4538
23276SOL     OW71504   2.792   0.720   0.923 -0.0946  0.2094  0.4368
23276SOL    HW171505   2.794   0.627   0.901  2.0664  0.6048 -1.1934
23276SOL    HW271506   2.837   0.726   1.008  2.1231  0.0469 -0.6952
23277SOL     OW71507   5.671   3.737   5.363 -0.0484 -0.0234 -0.6432
23277SOL    HW171508   5.690   3.827   5.389 -2.6593  0.5105 -0.4605
23277SOL    HW271509   5.576   3.736   5.348  0.2529 -2.2182 -2.6884
23278SOL     OW71510   1.022   8.769   5.229  0.2795  0.3439  0.2688
23278SOL    HW171511   0.975   8.702   5.279 -0.1520  1.4145  1.3325
23278SOL    HW271512   1.083   8.720   5.175 -2.5397 -1.1576 -1.6928
23279SOL     OW71513   5.632   2.146   1.742 -0.2500  0.3046  0.3086
23279SOL    HW171514   5.726   2.164   1.733 -0.1795  0.0514  0.5214
23279SOL    HW271515   5.612   2.089   1.667 -0.1534  0.0625  0.4636
23280SOL     OW71516   0.955   4.588   2.809  0.2435 -0.2004  0.1183
23280SOL    HW171517   0.950   4.611   2.716  2.0552  0.9125  0.2819
23280SOL    HW271518   0.940   4.494   2.811  0.1921 -0.2316 -1.3108
23281SOL     OW71519   4.999   3.121   4.837  0.3642  0.5258 -0.1535
23281SOL    HW171520   5.038   3.087   4.756 -1.9188  0.5554 -1.3085
23281SOL    HW271521   4.987   3.044   4.892  2.4050  0.5776  0.3827
23282SOL     OW71522   1.081   1.271   0.083  0.5409  0.0237  0.5236
23282SOL    HW171523   1.101   1.345   0.026 -0.9358  0.6241  0.7583
23282SOL    HW271524   1.165   1.247   0.122  1.1416  1.1509 -0.0572
23283SOL     OW71525   6.977   7.428   2.266 -0.2144  0.2570 -0.2162
23283SOL    HW171526   6.979   7.334   2.287 -0.6316  0.1751 -0.5649
23283SOL    HW271527   6.888   7.455   2.286 -0.2119  0.4906 -0.5352
23284SOL     OW71528   0.004   2.479   8.886  0.2938  0.1357  0.0396
23284SOL    HW171529   0.007   2.429   8.805 -2.0143  0.7399 -0.4553
23284SOL    HW271530  -0.012   2.414   8.954  0.0086 -0.1056 -0.2591
23285SOL     OW71531   0.793   5.893   3.670  0.0072 -0.2614  0.2247
23285SOL    HW171532   0.836   5.964   3.622  0.8685  1.5662  3.4973
23285SOL    HW271533   0.701   5.922   3.678  0.0305 -0.1987  0.2717
23286SOL     OW71534   4.004   1.812   4.498 -0.3246 -0.4552 -0.0351
23286SOL    HW171535   4.046   1.832   4.581 -0.7648 -2.0287  0.5736
23286SOL    HW271536   3.944   1.740   4.517 -0.9981 -0.3284 -1.5532
23287SOL     OW71537   8.327   2.057   6.423  0.7323 -0.3800 -0.0328
23287SOL    HW171538   8.289   2.138   6.458 -0.7371 -0.3016 -1.7129
23287SOL    HW271539   8.370   2.016   6.499 -0.0877  1.0594  1.2484
23288SOL     OW71540   7.189   6.549   8.205 -0.1043 -0.1165 -0.9659
23288SOL    HW171541   7.276   6.589   8.209 -0.1081 -0.0228 -1.8124
23288SOL    HW271542   7.130   6.620   8.182 -0.4736 -0.0905  0.0481
23289SOL     OW71543   4.037   3.767   4.571 -0.0290 -0.8675  0.3635
23289SOL    HW171544   4.105   3.768   4.638  0.3188  0.5845  0.0095
23289SOL    HW271545   4.004   3.857   4.568 -0.1614 -0.9403 -1.2682
23290SOL     OW71546   5.874   5.531   3.668  0.0161  0.2227  0.7233
23290SOL    HW171547   5.933   5.490   3.604 -0.8439  0.1726 -0.0494
23290SOL    HW271548   5.931   5.558   3.740  1.0697  0.7252 -0.2888
23291SOL     OW71549   5.953   8.560   5.423  0.7201 -1.0189  0.2549
23291SOL    HW171550   6.041   8.582   5.454  0.7261 -5.0857  3.6197
23291SOL    HW271551   5.967   8.514   5.340  1.4153  1.7022 -1.1811
23292SOL     OW71552   4.734   0.779   2.143  0.1050  0.4952 -0.0956
23292SOL    HW171553   4.782   0.849   2.188  0.5943  1.1189 -1.5596
23292SOL    HW271554   4.803   0.729   2.097 -0.5700  1.1133 -1.8312
23293SOL     OW71555   0.362   6.737   4.499  0.0720 -0.2967  0.2123
23293SOL    HW171556   0.335   6.726   4.591  0.7994 -1.3773  0.2970
23293SOL    HW271557   0.303   6.805   4.466 -2.2513 -2.0047  0.6368
23294SOL     OW71558   2.892   7.728   2.012 -0.0421  0.2336  0.8438
23294SOL    HW171559   2.878   7.754   2.103 -1.3990  0.4345  0.5842
23294SOL    HW271560   2.865   7.636   2.009  2.7556 -0.6621  1.2823
23295SOL     OW71561   3.201   8.267   8.195 -0.0163 -0.7249 -0.3643
23295SOL    HW171562   3.250   8.254   8.113  0.5737 -1.0198  0.0344
23295SOL    HW271563   3.144   8.341   8.177  3.3525  2.1724  0.4516
23296SOL     OW71564   7.259   2.380   5.432  0.3471 -0.1581 -0.3092
23296SOL    HW171565   7.276   2.305   5.489 -0.6551  0.1019  0.3414
23296SOL    HW271566   7.240   2.452   5.492 -0.7659  0.1115 -0.9565
23297SOL     OW71567   8.741   5.534   4.960 -0.1573  0.5867  0.2672
23297SOL    HW171568   8.774   5.486   5.036 -0.5255  0.4929  0.3719
23297SOL    HW271569   8.652   5.500   4.947  0.5098 -0.6529 -1.2840
23298SOL     OW71570   0.078   4.903   8.178 -0.1780  0.2725 -0.2953
23298SOL    HW171571   0.031   4.926   8.098 -0.3996  0.0731 -0.2235
23298SOL    HW271572   0.064   4.809   8.189 -0.0327  0.2716 -0.0963
23299SOL     OW71573   4.502   2.788   3.284 -0.1190  0.2640  0.3164
23299SOL    HW171574   4.532   2.878   3.271  0.9991 -0.1837 -0.2892
23299SOL    HW271575   4.581   2.740   3.307 -0.7791 -0.4998  1.0113
23300SOL     OW71576   1.844   1.522   8.600  0.1962  0.3450  0.0298
23300SOL    HW171577   1.795   1.589   8.552 -0.5889 -0.1012  0.1943
23300SOL    HW271578   1.780   1.452   8.615  1.3487 -1.0336 -1.3187
23301SOL     OW71579   3.689   1.635   1.244  0.0102  0.4902 -0.2404
23301SOL    HW171580   3.776   1.663   1.216  0.2158 -0.3376 -0.4366
23301SOL    HW271581   3.686   1.655   1.337  0.4475  0.4390 -0.2129
23302SOL     OW71582   1.402   0.098   3.059  0.3510  0.0241 -0.1374
23302SOL    HW171583   1.315   0.137   3.044  0.6569  0.7339 -0.0881
23302SOL    HW271584   1.383   0.009   3.089 -0.3421 -0.5509 -2.1381
23303SOL     OW71585   2.765   6.680   7.094  0.0170 -0.0183  0.8736
23303SOL    HW171586   2.727   6.691   7.181 -1.3578 -0.4396  0.3497
23303SOL    HW271587   2.841   6.738   7.093 -1.9896  2.6848  1.1514
23304SOL     OW71588   6.648   7.913   0.166  0.3531 -0.3335 -0.1903
23304SOL    HW171589   6.697   7.836   0.139  0.8980 -0.0703  0.0275
23304SOL    HW271590   6.591   7.934   0.092  0.4464 -0.7456 -0.3756
23305SOL     OW71591   0.802   7.644   0.628 -0.5815  0.6643 -0.0265
23305SOL    HW171592   0.809   7.658   0.533 -1.2961  1.0625 -0.0165
23305SOL    HW271593   0.738   7.708   0.658 -3.4037 -2.0704  0.1069
23306SOL     OW71594   6.328   7.788   4.939 -0.0108 -0.2079 -0.3789
23306SOL    HW171595   6.240   7.825   4.941  0.9482  2.1041  0.0454
23306SOL    HW271596   6.347   7.766   5.030 -0.3036 -1.1411 -0.5337
23307SOL     OW71597   5.362   6.060   0.845  0.1757  0.8611  0.2101
23307SOL    HW171598   5.335   6.149   0.825  0.5926  0.7206 -1.0717
23307SOL    HW271599   5.458   6.061   0.838  0.0745 -0.0994 -1.7036
23308SOL     OW71600   5.719   2.389   0.397 -0.0794  0.2784 -0.0908
23308SOL    HW171601   5.795   2.445   0.383  1.1887 -1.0428  1.3182
23308SOL    HW271602   5.677   2.384   0.311  0.3938  2.4716 -0.4756
23309SOL     OW71603   6.398   5.099   4.768  0.3806 -0.2457 -0.0861
23309SOL    HW171604   6.456   5.145   4.828  1.1523 -0.8440 -0.3623
23309SOL    HW271605   6.317   5.151   4.768  1.2033  1.0758 -0.3429
23310SOL     OW71606   4.911   0.139   3.956  0.5376 -0.2931 -0.0138
23310SOL    HW171607   4.931   0.157   4.048 -1.2962 -0.8855  0.5249
23310SOL    HW271608   4.936   0.219   3.910  2.4496 -0.3804  0.8373
23311SOL     OW71609   2.545   4.434   7.905  0.6267  0.2703 -0.0912
23311SOL    HW171610   2.465   4.389   7.877  0.9611 -0.5511  0.2666
23311SOL    HW271611   2.532   4.450   7.998  0.4726  1.0175 -0.2299
23312SOL     OW71612   5.024   2.989   8.797  0.2059 -0.4518  0.6785
23312SOL    HW171613   4.984   3.050   8.735  0.1498 -0.5843  0.5849
23312SOL    HW271614   4.951   2.954   8.847  0.2696 -0.1973  0.9544
23313SOL     OW71615   2.100   6.258   0.094  0.3642 -0.0081 -0.3717
23313SOL    HW171616   2.182   6.246   0.046 -0.4302 -0.1048 -1.7389
23313SOL    HW271617   2.128   6.282   0.183  1.8786  1.4731 -1.1958
23314SOL     OW71618   6.250   4.197   1.945 -0.1767  0.3774  0.0111
23314SOL    HW171619   6.266   4.196   1.851  0.2489  0.4047  0.0841
23314SOL    HW271620   6.155   4.207   1.953  0.0612  3.4461 -0.3858
23315SOL     OW71621   6.106   5.018   2.826 -0.1427  0.1714 -0.0329
23315SOL    HW171622   6.178   4.959   2.850 -1.2272 -0.9019  0.7054
23315SOL    HW271623   6.127   5.048   2.738  0.8740 -0.6623 -0.0849
23316SOL     OW71624   7.119   9.203   3.068 -0.0223 -0.2164  0.0551
23316SOL    HW171625   7.044   9.229   3.014 -0.0834 -1.6850 -0.6193
23316SOL    HW271626   7.085   9.196   3.156 -0.1766  1.1785  0.1155
23317SOL     OW71627   1.772   5.898   7.296  0.0709  0.1334  0.0312
23317SOL    HW171628   1.707   5.958   7.332  0.1786  0.4971 -0.3734
23317SOL    HW271629   1.843   5.955   7.266 -0.9004  0.0287 -2.6668
23318SOL     OW71630   0.146   7.758   5.679 -0.2964  0.0522 -0.2954
23318SOL    HW171631   0.069   7.728   5.728  0.4694  1.9443  2.1712
23318SOL    HW271632   0.211   7.690   5.692  0.0059  0.6867  1.6531
23319SOL     OW71633   2.860   3.650   6.203  0.2091  0.3245 -0.2555
23319SOL    HW171634   2.937   3.609   6.242 -1.8288 -0.9666  2.5807
23319SOL    HW271635   2.831   3.714   6.268 -1.3778  0.4786 -1.0859
23320SOL     OW71636   7.871   3.460   0.290  0.1246 -0.7548 -0.2815
23320SOL    HW171637   7.885   3.388   0.228  0.4655  0.6854 -1.9347
23320SOL    HW271638   7.778   3.457   0.309 -0.0722 -0.9570 -1.2222
23321SOL     OW71639   4.132   6.477   3.208  0.1294  0.4573  0.2889
23321SOL    HW171640   4.213   6.517   3.175 -0.2488  1.4579  0.5796
23321SOL    HW271641   4.158   6.389   3.235  0.6242 -0.1211 -1.9612
23322SOL     OW71642   1.024   3.193   7.487 -0.2640 -0.1981 -0.2950
23322SOL    HW171643   1.088   3.197   7.559 -0.1894 -1.3964 -0.2778
23322SOL    HW271644   0.979   3.277   7.490  0.1467 -0.0036  0.7845
23323SOL     OW71645   0.733   0.171   7.014  0.5413 -0.3596 -0.2777
23323SOL    HW171646   0.817   0.191   6.972 -0.0373  1.7375 -0.5416
23323SOL    HW271647   0.685   0.254   7.009 -1.4098 -1.4441  0.1674
23324SOL     OW71648   5.018   1.028   9.210  0.4565 -0.3438 -0.5237
23324SOL    HW171649   5.075   0.957   9.238  1.1033 -0.1978 -1.4377
23324SOL    HW271650   5.070   1.107   9.224 -0.4076 -0.0014  0.8734
23325SOL     OW71651   1.008   2.879   2.302 -0.1757  0.3329  0.8420
23325SOL    HW171652   1.098   2.902   2.280 -0.0296 -1.0714 -0.1791
23325SOL    HW271653   1.016   2.811   2.369 -0.4613  0.1318  0.6762
23326SOL     OW71654   4.116   4.699   7.384  0.8062  0.2485 -0.3336
23326SOL    HW171655   4.152   4.628   7.438 -1.5193 -0.4036  0.3885
23326SOL    HW271656   4.146   4.678   7.295 -1.3183 -2.6644 -0.4297
23327SOL     OW71657   2.097   0.791   3.796  0.2421  0.3817  0.2794
23327SOL    HW171658   2.131   0.855   3.734  0.1262  1.5379  1.3853
23327SOL    HW271659   2.156   0.795   3.871 -1.0604  0.8290  1.3000
23328SOL     OW71660   1.344   2.069   0.888 -0.0696 -0.2465 -0.1434
23328SOL    HW171661   1.410   2.041   0.824 -0.4411 -1.7246  0.1011
23328SOL    HW271662   1.354   2.009   0.961 -0.9952  0.1691  0.3338
23329SOL     OW71663   5.894   4.847   8.416 -0.3705 -0.3791  0.2839
23329SOL    HW171664   5.904   4.910   8.487 -1.6136  0.5216 -0.3229
23329SOL    HW271665   5.817   4.877   8.368 -1.5200 -2.8343  0.4780
23330SOL     OW71666   4.879   6.010   0.207 -0.7061 -0.6393  0.0002
23330SOL    HW171667   4.925   5.929   0.228 -1.1620 -1.5276 -2.2436
23330SOL    HW271668   4.900   6.027   0.116 -1.7798  0.9988  0.0261
23331SOL     OW71669   3.363   4.734   9.018 -0.2281 -0.1313  0.2663
23331SOL    HW171670   3.360   4.794   9.093 -0.4829  0.8079 -0.4852
23331SOL    HW271671   3.455   4.707   9.012 -0.0502  0.4522  0.3940
23332SOL     OW71672   5.403   1.850   2.836  0.1418 -0.3582 -0.0046
23332SOL    HW171673   5.485   1.815   2.872  0.9634  0.5225 -0.9661
23332SOL    HW271674   5.391   1.933   2.882 -0.2166 -0.4959  0.1475
23333SOL     OW71675   3.633   5.739   5.372  0.4960 -0.0312  0.4115
23333SOL    HW171676   3.542   5.716   5.352  0.3592  0.2248  0.7282
23333SOL    HW271677   3.654   5.809   5.310  0.0903  0.7219  1.1150
23334SOL     OW71678   5.546   6.295   0.885 -0.0603 -0.2885  0.5247
23334SOL    HW171679   5.568   6.316   0.976 -1.1321  0.2478  0.6669
23334SOL    HW271680   5.455   6.323   0.875  0.6573  1.5474 -1.2927
23335SOL     OW71681   2.502   7.358   4.118 -0.2554  0.2708  0.1092
23335SOL    HW171682   2.551   7.334   4.197  0.2077  0.2501 -0.1816
23335SOL    HW271683   2.521   7.450   4.105 -1.0347  0.4945  0.5151
23336SOL     OW71684   5.953   6.324   7.736  0.1812  0.1256 -0.0871
23336SOL    HW171685   5.983   6.273   7.811  2.0192 -1.8303 -2.1114
23336SOL    HW271686   6.026   6.383   7.717  0.5463 -0.7794 -1.5525
23337SOL     OW71687   3.894   3.311   6.551  0.4741 -0.7475 -0.1892
23337SOL    HW171688   3.970   3.293   6.497  0.3621 -2.2032  0.1126
23337SOL    HW271689   3.928   3.360   6.626  0.7459  0.5991 -1.1681
23338SOL     OW71690   7.473   0.985   1.344  0.0174  0.3582  0.0648
23338SOL    HW171691   7.485   1.029   1.260  1.5239  0.5325  0.3527
23338SOL    HW271692   7.428   1.049   1.399 -1.4904  0.0327 -0.7744
23339SOL     OW71693   8.931   7.807   3.306  0.0599 -0.2709 -0.1253
23339SOL    HW171694   8.933   7.779   3.215 -0.1784  0.8565 -0.4796
23339SOL    HW271695   9.020   7.837   3.324  0.2036 -0.8369  0.1306
23340SOL     OW71696   4.824   4.122   1.079 -0.0714  0.4303 -0.8292
23340SOL    HW171697   4.733   4.097   1.060 -0.9284  1.4480  1.6382
23340SOL    HW271698   4.823   4.218   1.079  0.8565  0.4475 -0.2054
23341SOL     OW71699   2.197   8.275   7.127 -0.3292 -0.4318 -0.6138
23341SOL    HW171700   2.243   8.256   7.209 -1.6582  0.7975  0.4646
23341SOL    HW271701   2.105   8.256   7.146 -0.7632  0.6460 -1.5629
23342SOL     OW71702   1.330   8.958   1.070 -0.0186  0.2430 -0.0163
23342SOL    HW171703   1.344   9.002   0.986 -0.2064 -0.6429 -0.5193
23342SOL    HW271704   1.332   9.028   1.135  0.4273  0.8958 -0.7328
23343SOL     OW71705   0.625   4.693   3.924  0.1610  0.4934  0.2695
23343SOL    HW171706   0.681   4.651   3.988 -0.2263  0.0402  0.3193
23343SOL    HW271707   0.597   4.775   3.965 -0.3848  0.0308  0.8289
23344SOL     OW71708   4.870   8.989   7.679 -0.0410 -0.0079 -0.5179
23344SOL    HW171709   4.916   8.908   7.659  1.3749  0.2923  1.3622
23344SOL    HW271710   4.830   9.016   7.596  2.5234 -0.6938 -2.0184
23345SOL     OW71711   0.474   0.015   8.687 -0.4310  0.1660 -0.0089
23345SOL    HW171712   0.399   0.065   8.720 -0.1572 -0.1039  1.0357
23345SOL    HW271713   0.472  -0.067   8.736 -0.0810 -0.2893 -0.7492
23346SOL     OW71714   0.637   4.505   4.333 -0.0527  0.0679  0.2952
23346SOL    HW171715   0.601   4.438   4.275  1.4639 -0.5714  0.0532
23346SOL    HW271716   0.617   4.474   4.421  0.0244 -0.3405  0.1703
23347SOL     OW71717   0.661   0.083   5.139  0.0770 -0.5605  0.0140
23347SOL    HW171718   0.697   0.172   5.142 -0.6458 -0.2807  0.5458
23347SOL    HW271719   0.611   0.075   5.220  0.4001 -1.5697  0.1125
23348SOL     OW71720   7.066   4.686   6.746  0.2273  0.0912 -0.0834
23348SOL    HW171721   7.063   4.645   6.832 -0.5568 -0.2494 -0.2693
23348SOL    HW271722   7.072   4.613   6.685  3.2042  0.3970 -0.2285
23349SOL     OW71723   1.709   5.845   3.473 -0.4748  0.0233  0.5261
23349SOL    HW171724   1.651   5.854   3.398  0.3637  1.7042  0.0578
23349SOL    HW271725   1.723   5.935   3.504  2.1922 -0.2926  0.3597
23350SOL     OW71726   0.074   7.689   4.947 -0.2291 -0.1083  0.2907
23350SOL    HW171727   0.116   7.618   4.996  2.5178 -0.3974 -2.3396
23350SOL    HW271728  -0.018   7.664   4.944 -0.0357 -1.3883  3.0245
23351SOL     OW71729   6.128   0.288   5.152  0.1071  0.0025 -0.4549
23351SOL    HW171730   6.071   0.291   5.075  0.1271 -2.0892 -0.5804
23351SOL    HW271731   6.211   0.325   5.122 -0.2212  0.1957 -1.1335
23352SOL     OW71732   3.254   4.096   6.736 -0.3466  0.4280 -0.1637
23352SOL    HW171733   3.181   4.041   6.707 -0.2755  0.5090 -0.4959
23352SOL    HW271734   3.323   4.079   6.672 -0.5176  1.3388 -0.5911
23353SOL     OW71735   5.442   2.877   8.557 -0.0938 -0.0519 -0.1486
23353SOL    HW171736   5.487   2.954   8.524 -1.2217  0.3588 -0.7566
23353SOL    HW271737   5.425   2.896   8.649  0.9178 -0.1840  0.0624
23354SOL     OW71738   9.031   7.906   2.097  0.2816  0.4560 -0.2034
23354SOL    HW171739   9.057   7.989   2.139  0.4928 -0.3329  1.2755
23354SOL    HW271740   8.937   7.899   2.114  0.3296  0.2280 -0.0372
23355SOL     OW71741   2.235   0.393   8.719  0.6131 -0.6490 -0.0240
23355SOL    HW171742   2.250   0.298   8.717  1.3199 -0.5288 -0.8990
23355SOL    HW271743   2.140   0.403   8.719  0.5049 -1.3865  2.0080
23356SOL     OW71744   8.942   0.970   2.172  0.3079 -0.1763 -0.0438
23356SOL    HW171745   9.034   0.960   2.195  0.3092  2.0166  0.9715
23356SOL    HW271746   8.894   0.932   2.245  0.3889  1.5187  0.9127
23357SOL     OW71747   6.228   5.386   6.306 -0.3204  0.1984  0.0933
23357SOL    HW171748   6.320   5.364   6.293 -0.1244  1.0423  0.0535
23357SOL    HW271749   6.204   5.436   6.228 -1.0111 -0.6401 -0.2379
23358SOL     OW71750   6.303   1.575   3.995  0.2326  0.1055 -0.6711
23358SOL    HW171751   6.208   1.574   4.011  0.3520  0.5691  0.0583
23358SOL    HW271752   6.319   1.658   3.951 -0.0892 -1.1370 -3.2676
23359SOL     OW71753   7.080   3.965   7.826 -0.0095  0.3157 -0.2050
23359SOL    HW171754   7.125   3.938   7.907  0.4843 -0.8022 -0.8345
23359SOL    HW271755   7.015   3.896   7.812 -0.5438  0.8600 -0.4083
23360SOL     OW71756   3.788   5.472   7.826 -0.3384  0.3281  0.3958
23360SOL    HW171757   3.863   5.473   7.886  0.7031 -0.3778 -0.8622
23360SOL    HW271758   3.775   5.380   7.805 -2.4374  0.3202  1.6479
23361SOL     OW71759   4.347   2.597   9.172  0.2678 -0.0918 -0.6936
23361SOL    HW171760   4.342   2.503   9.191  0.0379 -0.1854 -1.2382
23361SOL    HW271761   4.261   2.620   9.138 -0.0497  0.5562  0.5254
23362SOL     OW71762   3.814   1.792   6.573  0.4351  0.4011 -0.1736
23362SOL    HW171763   3.808   1.699   6.595 -0.9593  0.1169 -1.6587
23362SOL    HW271764   3.895   1.821   6.615  0.6184 -1.3527  0.7473
23363SOL     OW71765   9.050   4.601   1.257 -0.1322 -0.4248  0.6621
23363SOL    HW171766   9.119   4.563   1.203 -0.9414 -1.2064  0.1600
23363SOL    HW271767   9.021   4.678   1.209  0.9693  0.3856  1.2909
23364SOL     OW71768   9.139   7.010   8.285  0.0477 -0.4537 -0.0857
23364SOL    HW171769   9.215   6.958   8.259 -1.2384 -1.7710 -1.3049
23364SOL    HW271770   9.104   6.965   8.361  0.5190  0.1934  0.5190
23365SOL     OW71771   7.299   0.448   8.627  0.1589 -0.3945  0.0233
23365SOL    HW171772   7.391   0.474   8.615  0.8051 -0.6831  3.7633
23365SOL    HW271773   7.299   0.354   8.607  1.2581 -0.9392  2.3510
23366SOL     OW71774   0.430   3.071   1.062  0.3328  0.0152  0.0183
23366SOL    HW171775   0.340   3.049   1.038  0.7375 -1.2376 -0.3938
23366SOL    HW271776   0.457   3.000   1.120  1.8031 -0.8131 -1.6477
23367SOL     OW71777   7.526   1.530   4.698 -0.7243 -0.4665 -0.0507
23367SOL    HW171778   7.608   1.515   4.651 -1.2217 -0.1732 -1.0287
23367SOL    HW271779   7.475   1.586   4.640 -2.0018 -1.4265  0.1244
23368SOL     OW71780   6.116   2.251   9.174 -0.0327  0.2826  0.2378
23368SOL    HW171781   6.119   2.173   9.118 -0.5182  1.0696 -0.9001
23368SOL    HW271782   6.207   2.277   9.184  0.1660 -0.6617  0.9545
23369SOL     OW71783   9.123   5.025   2.726  0.1301 -0.2202  0.2661
23369SOL    HW171784   9.146   5.116   2.747  1.6594 -0.2806 -1.0438
23369SOL    HW271785   9.156   4.975   2.801 -2.2947  0.4458  1.8542
23370SOL     OW71786   5.764   5.728   4.321 -0.3510 -0.4140  0.4867
23370SOL    HW171787   5.797   5.818   4.324  0.1291 -0.6158  1.7260
23370SOL    HW271788   5.682   5.731   4.371 -0.5015 -0.5959  0.2516
23371SOL     OW71789   5.161   2.882   2.619 -0.1056  0.2775 -0.2148
23371SOL    HW171790   5.187   2.810   2.677 -2.9455 -0.6794 -0.0571
23371SOL    HW271791   5.168   2.960   2.674 -1.4647 -0.4565  1.0393
23372SOL     OW71792   2.130   5.126   6.996  0.2985 -0.5643 -0.6255
23372SOL    HW171793   2.099   5.139   7.085 -0.0501 -0.4439 -0.7625
23372SOL    HW271794   2.220   5.094   7.006  0.4147 -0.1349 -0.2375
23373SOL     OW71795   1.489   1.447   5.530  0.1354  0.1317  0.3822
23373SOL    HW171796   1.511   1.464   5.622 -1.6724  0.7323  0.7263
23373SOL    HW271797   1.529   1.519   5.482 -0.9466  1.1449  0.9771
23374SOL     OW71798   8.937   6.322   6.171  0.4325 -0.2773  0.4663
23374SOL    HW171799   8.982   6.254   6.122  0.2135  0.6934 -1.1467
23374SOL    HW271800   8.845   6.313   6.146  0.1378 -0.5525  1.6528
23375SOL     OW71801   1.715   4.443   3.846  0.2435 -0.1706 -0.0082
23375SOL    HW171802   1.666   4.511   3.891 -0.8501 -0.3931 -0.8406
23375SOL    HW271803   1.717   4.369   3.908  0.7054  0.3173  0.5609
23376SOL     OW71804   8.391   6.510   4.866 -0.2873  0.3484 -0.5080
23376SOL    HW171805   8.440   6.474   4.792 -1.4624 -0.0536 -1.0929
23376SOL    HW271806   8.445   6.489   4.943  0.7451  0.4241 -1.1988
23377SOL     OW71807   6.157   2.058   0.424 -0.3132 -0.0150  0.6208
23377SOL    HW171808   6.120   2.143   0.402  0.6120  0.3742  0.5585
23377SOL    HW271809   6.241   2.078   0.465 -0.9176 -0.8249  2.3159
23378SOL     OW71810   5.384   6.990   4.004 -0.1665  0.4005  0.3391
23378SOL    HW171811   5.387   6.990   3.908  1.0444 -0.0521  0.3726
23378SOL    HW271812   5.384   7.083   4.028  1.1513  0.5074 -0.0578
23379SOL     OW71813   4.848   7.763   0.589 -0.0913 -0.2990 -0.1196
23379SOL    HW171814   4.774   7.811   0.553 -0.5964 -0.2935  0.9106
23379SOL    HW271815   4.924   7.816   0.565 -0.3760 -0.5226 -1.5318
23380SOL     OW71816   2.473   4.133   8.533 -0.3387 -0.3756 -0.1269
23380SOL    HW171817   2.568   4.135   8.544 -0.4763 -0.2773  1.1632
23380SOL    HW271818   2.439   4.171   8.614 -1.4729 -0.1836 -0.6831
23381SOL     OW71819   2.174   5.862   1.701 -0.2904 -0.1332 -0.4520
23381SOL    HW171820   2.248   5.882   1.758  0.4465 -0.9993 -1.0971
23381SOL    HW271821   2.199   5.898   1.616  0.0653 -1.7735 -1.0514
23382SOL     OW71822   5.341   3.428   5.598  0.2577 -0.0684  0.0729
23382SOL    HW171823   5.430   3.399   5.579  1.1243  0.6125  2.9515
23382SOL    HW271824   5.327   3.406   5.690 -2.7342 -0.5656 -0.4445
23383SOL     OW71825   2.996   5.398   1.255  0.1102 -0.0821  0.4080
23383SOL    HW171826   3.082   5.414   1.216  1.2792 -1.3391  2.4322
23383SOL    HW271827   2.937   5.391   1.179  1.9603 -0.2587 -1.0591
23384SOL     OW71828   5.950   0.279   0.920  0.1506 -0.2248  0.5224
23384SOL    HW171829   5.955   0.322   1.005  0.3611  0.9192 -0.0651
23384SOL    HW271830   5.983   0.344   0.858 -0.9950 -0.6616 -0.5722
23385SOL     OW71831   6.260   4.433   6.399 -0.5169 -0.4103  0.2232
23385SOL    HW171832   6.224   4.521   6.385 -0.7462 -0.7658 -1.4415
23385SOL    HW271833   6.225   4.407   6.485 -0.8178  0.9339  0.5183
23386SOL     OW71834   5.049   1.794   1.108  0.5412  0.6127  0.2925
23386SOL    HW171835   5.064   1.721   1.047 -0.0661 -0.9720  1.9859
23386SOL    HW271836   5.129   1.846   1.104  0.9436 -0.0822 -1.0270
23387SOL     OW71837   2.620   0.898   2.469 -0.5028  0.1513  0.2330
23387SOL    HW171838   2.554   0.939   2.413 -0.7049 -1.4534 -0.7384
23387SOL    HW271839   2.695   0.956   2.465 -0.7730  0.4213 -1.1543
23388SOL     OW71840   3.285   7.468   7.191  0.3173 -0.1124 -0.9610
23388SOL    HW171841   3.234   7.536   7.146 -0.6550 -1.4573 -1.9416
23388SOL    HW271842   3.219   7.411   7.231  1.1214 -0.4916 -0.1663
23389SOL     OW71843   6.636   3.807   3.419  0.3787 -0.0294  0.0409
23389SOL    HW171844   6.715   3.838   3.374 -0.3769  0.7770 -0.7449
23389SOL    HW271845   6.643   3.712   3.416  1.4993  0.0327  0.2969
23390SOL     OW71846   0.448   4.472   1.731 -0.1766  0.3628  0.3796
23390SOL    HW171847   0.373   4.516   1.692  1.4719  0.6952 -2.4812
23390SOL    HW271848   0.442   4.382   1.699 -0.2264 -0.0289  1.4531
23391SOL     OW71849   6.961   5.664   3.142  0.5112 -0.1357  0.6398
23391SOL    HW171850   6.960   5.675   3.237 -0.6635 -1.7870  0.8437
23391SOL    HW271851   7.006   5.581   3.127 -0.6371 -0.6385 -0.1466
23392SOL     OW71852   8.779   4.739   8.184 -0.8637 -0.1519  0.0547
23392SOL    HW171853   8.813   4.709   8.099 -1.1727 -0.7675  0.1452
23392SOL    HW271854   8.802   4.832   8.187  0.3313 -0.4274 -0.1245
23393SOL     OW71855   5.107   4.461   0.989 -0.7487 -0.1777 -0.0929
23393SOL    HW171856   5.150   4.377   1.005 -0.4405 -0.2774 -1.3451
23393SOL    HW271857   5.110   4.507   1.073 -0.0335 -1.0188  0.3488
23394SOL     OW71858   4.182   9.117   9.247  0.6485  0.0695 -0.5143
23394SOL    HW171859   4.270   9.146   9.226 -0.0910  0.4411 -3.2905
23394SOL    HW271860   4.156   9.062   9.173 -1.6392  0.4256 -0.0246
23395SOL     OW71861   8.704   5.343   0.471 -0.3134  0.1849 -0.5136
23395SOL    HW171862   8.646   5.298   0.532 -0.1581  0.3408 -0.2506
23395SOL    HW271863   8.701   5.290   0.391  0.0901 -0.4447 -0.1142
23396SOL     OW71864   3.816   7.749   9.226  0.5259 -0.6107 -0.5913
23396SOL    HW171865   3.751   7.805   9.269 -0.7293 -0.3135 -2.7905
23396SOL    HW271866   3.849   7.693   9.296 -2.3209 -0.9710  0.5296
23397SOL     OW71867   3.123   4.356   0.866  0.2392  0.1489  0.2666
23397SOL    HW171868   3.207   4.329   0.904 -0.0952 -1.2566  0.0450
23397SOL    HW271869   3.072   4.275   0.861  0.2842  0.2961 -3.2137
23398SOL     OW71870   3.736   8.664   0.601 -0.4647  0.3220  0.5638
23398SOL    HW171871   3.762   8.747   0.560  0.3683 -0.2677 -0.1148
23398SOL    HW271872   3.671   8.627   0.542  2.1325 -1.4671 -1.3414
23399SOL     OW71873   6.479   8.515   1.195 -0.1373 -0.3378  0.5405
23399SOL    HW171874   6.490   8.590   1.253  1.3168  0.9711 -1.3582
23399SOL    HW271875   6.437   8.552   1.117 -0.3656 -1.7049  0.0128
23400SOL     OW71876   1.718   1.518   5.736 -0.1562  0.3870  0.6720
23400SOL    HW171877   1.728   1.435   5.690 -0.2520  0.0811  1.2004
23400SOL    HW271878   1.642   1.505   5.793  0.5480  0.4392  1.6260
23401SOL     OW71879   1.164   3.629   8.110 -0.2131  0.4634 -0.0776
23401SOL    HW171880   1.228   3.688   8.151  0.5186  1.4059 -2.4856
23401SOL    HW271881   1.155   3.662   8.020  0.1440 -3.0061 -1.4877
23402SOL     OW71882   8.515   4.315   5.989 -0.1277 -0.1522  0.0509
23402SOL    HW171883   8.556   4.256   5.925 -1.0530  1.0503 -1.7044
23402SOL    HW271884   8.584   4.377   6.012 -0.0427 -0.0173 -0.5411
23403SOL     OW71885   8.436   7.846   4.320  0.3653 -0.1321 -0.5567
23403SOL    HW171886   8.345   7.818   4.329  0.2189  0.5874  0.2905
23403SOL    HW271887   8.485   7.765   4.307 -0.1430 -0.7129  1.0884
23404SOL     OW71888   4.133   8.708   3.869 -0.4265 -0.0517  0.4188
23404SOL    HW171889   4.188   8.784   3.854  0.4029 -0.5958  0.6482
23404SOL    HW271890   4.174   8.663   3.943 -0.2604 -1.2994 -0.4001
23405SOL     OW71891   8.321   6.765   8.444 -0.4622  0.3986  0.6339
23405SOL    HW171892   8.384   6.706   8.487 -0.3388  0.5950  0.7242
23405SOL    HW271893   8.313   6.730   8.356  0.2043  0.7028  0.4465
23406SOL     OW71894   1.139   2.539   7.636  0.0192  0.0769 -0.8669
23406SOL    HW171895   1.179   2.472   7.580  2.2964  0.6429 -0.0026
23406SOL    HW271896   1.194   2.616   7.622  0.1175  0.4658  1.4930
23407SOL     OW71897   0.474   0.557   0.952 -0.2286  0.4273 -0.0796
23407SOL    HW171898   0.423   0.498   0.896  0.9634 -0.7512  0.0652
23407SOL    HW271899   0.563   0.552   0.918 -0.1415  2.3193 -0.1929
23408SOL     OW71900   1.865   2.983   0.216 -0.3512 -0.2845 -0.0580
23408SOL    HW171901   1.856   2.894   0.251 -0.2121  0.1533  1.1265
23408SOL    HW271902   1.951   2.984   0.175  0.1121 -0.3883  0.8900
23409SOL     OW71903   9.156   5.347   5.665 -0.5510  0.1077  0.2147
23409SOL    HW171904   9.250   5.356   5.683 -0.2980  0.4024 -1.1961
23409SOL    HW271905   9.113   5.384   5.742  0.4751 -1.0210  1.3632
23410SOL     OW71906   0.776   0.842   2.025  0.2554  0.1537 -0.5874
23410SOL    HW171907   0.798   0.777   2.092  0.4938  2.2146  1.4041
23410SOL    HW271908   0.689   0.873   2.049  1.7697  3.4853  0.9587
23411SOL     OW71909   3.109   4.994   4.651  0.4460  0.0739  0.2583
23411SOL    HW171910   3.166   4.974   4.726 -0.6872  1.8233  1.6562
23411SOL    HW271911   3.166   5.040   4.589  1.7444 -2.6648 -0.6189
23412SOL     OW71912   7.286   6.359   7.723  0.5220  0.1767  0.0625
23412SOL    HW171913   7.280   6.361   7.818 -1.5834 -1.2528 -0.0145
23412SOL    HW271914   7.220   6.422   7.694  0.0855 -0.5395 -0.4929
23413SOL     OW71915   3.760   7.647   1.208  0.4665  0.1115 -0.0661
23413SOL    HW171916   3.671   7.679   1.200  0.5030  0.1650 -0.2557
23413SOL    HW271917   3.815   7.718   1.175  0.6950  0.8589  1.8397
23414SOL     OW71918   1.474   0.361   5.276 -0.0934  0.4344 -0.3302
23414SOL    HW171919   1.557   0.371   5.323 -0.2376  0.9453 -0.1797
23414SOL    HW271920   1.465   0.442   5.226  0.1392 -0.1753 -1.3730
23415SOL     OW71921   4.491   3.083   0.295  0.3253 -0.1511  0.0123
23415SOL    HW171922   4.483   3.126   0.380 -0.6950 -1.4948  0.6074
23415SOL    HW271923   4.498   2.990   0.316 -0.9958 -0.5942 -1.4123
23416SOL     OW71924   3.657   1.249   6.183 -0.1418  0.5589  0.0802
23416SOL    HW171925   3.705   1.326   6.152  0.4253  0.1079 -0.1841
23416SOL    HW271926   3.724   1.183   6.195 -0.7779 -0.3159 -1.0212
23417SOL     OW71927   7.304   7.220   0.450  0.1374 -0.1414 -0.0137
23417SOL    HW171928   7.300   7.201   0.544 -0.6846 -0.0247 -0.0172
23417SOL    HW271929   7.369   7.290   0.443 -1.5070  1.5217  0.7759
23418SOL     OW71930   7.711   3.432   8.481  0.1477 -0.0179  0.6105
23418SOL    HW171931   7.765   3.362   8.518  0.8473  0.9713  1.4795
23418SOL    HW271932   7.773   3.501   8.459 -0.3028 -0.3485 -1.9423
23419SOL     OW71933   1.136   2.565   8.421  0.6705  0.3515 -0.0552
23419SOL    HW171934   1.060   2.550   8.478  0.1157  0.2874 -0.8003
23419SOL    HW271935   1.154   2.659   8.429  0.8930  0.2552  0.5914
23420SOL     OW71936   0.739   0.885   4.800 -0.2513 -0.7594  0.2059
23420SOL    HW171937   0.713   0.804   4.756 -0.3584 -0.3745 -0.4556
23420SOL    HW271938   0.657   0.930   4.818 -0.0915  0.1925 -1.3691
23421SOL     OW71939   6.086   2.756   2.150  0.1894  0.1608 -0.2777
23421SOL    HW171940   5.999   2.723   2.130  0.2103 -0.3564  0.4719
23421SOL    HW271941   6.144   2.682   2.131  0.3936  0.2665 -0.0597
23422SOL     OW71942   9.197   0.611   7.762  0.0925  0.1872  0.4068
23422SOL    HW171943   9.187   0.605   7.667 -0.2582 -0.6348  0.4924
23422SOL    HW271944   9.131   0.675   7.789  0.7361  1.0390  0.0151
23423SOL     OW71945   8.080   6.934   6.012 -0.0786 -0.4466 -0.4587
23423SOL    HW171946   8.013   6.868   6.028 -1.5361  0.6901 -1.7405
23423SOL    HW271947   8.036   7.017   6.025  0.7404  0.3513 -2.5287
23424SOL     OW71948   1.286   6.189   6.439 -0.5023 -0.2444 -0.2602
23424SOL    HW171949   1.204   6.228   6.408 -1.0693 -0.5380  0.8595
23424SOL    HW271950   1.259   6.125   6.504  0.7399  1.2102  1.7213
23425SOL     OW71951   4.257   5.357   6.469 -0.4370 -0.3419 -0.3524
23425SOL    HW171952   4.327   5.416   6.439  0.8096 -2.0069 -0.7950
23425SOL    HW271953   4.226   5.315   6.389 -1.1510 -0.4503 -0.0158
23426SOL     OW71954   1.112   1.451   6.502 -0.6659  0.2805  0.3393
23426SOL    HW171955   1.058   1.521   6.464  0.6480  2.2498  1.9642
23426SOL    HW271956   1.091   1.453   6.595  0.9055 -0.0932  0.7157
23427SOL     OW71957   0.890   4.363   3.792  0.6728  0.0117 -0.2166
23427SOL    HW171958   0.860   4.350   3.882 -1.4453  1.1338 -0.7376
23427SOL    HW271959   0.843   4.297   3.741  1.3325 -0.1615 -0.6053
23428SOL     OW71960   7.576   6.962   0.972 -0.3653 -0.3041  0.3813
23428SOL    HW171961   7.647   6.973   1.035 -0.4397 -1.8556  0.7513
23428SOL    HW271962   7.615   6.988   0.888  1.1060 -2.5241  0.3445
23429SOL     OW71963   8.548   6.921   1.307  0.4837 -0.0293 -0.1816
23429SOL    HW171964   8.624   6.960   1.349 -1.2924  1.5357  1.6778
23429SOL    HW271965   8.522   6.850   1.365 -1.0440  1.1434  0.5983
23430SOL     OW71966   6.135   0.608   4.941 -0.0795 -0.5759 -0.0945
23430SOL    HW171967   6.146   0.690   4.893 -1.0455 -1.8560 -2.5673
23430SOL    HW271968   6.218   0.561   4.927 -0.9230 -1.5929 -1.8273
23431SOL     OW71969   0.587   2.115   2.376  0.0649  0.0044 -0.6161
23431SOL    HW171970   0.651   2.079   2.437 -1.1251  1.9150  1.9152
23431SOL    HW271971   0.600   2.067   2.295  2.2916 -2.0726  0.9046
23432SOL     OW71972   0.694   0.090   3.194  0.2313 -0.5469 -0.1106
23432SOL    HW171973   0.665   0.113   3.105  0.9440 -1.3006 -0.5406
23432SOL    HW271974   0.644   0.149   3.251 -1.7571 -1.4578 -0.8729
23433SOL     OW71975   5.810   6.730   2.425  0.3253 -0.0819  0.0399
23433SOL    HW171976   5.768   6.735   2.338  0.0599 -2.8828 -0.0457
23433SOL    HW271977   5.888   6.677   2.411  1.4170  1.1793  1.1542
23434SOL     OW71978   2.135   0.706   8.170 -0.1246  0.1494  0.5987
23434SOL    HW171979   2.119   0.636   8.233 -3.6300 -0.4271 -0.8644
23434SOL    HW271980   2.195   0.765   8.215 -0.8250 -1.3693  3.6385
23435SOL     OW71981   4.699   2.298   7.302  0.2457  0.1764  1.2062
23435SOL    HW171982   4.781   2.346   7.291  0.5347 -0.2909  1.2616
23435SOL    HW271983   4.669   2.321   7.390  1.6406 -1.6043  2.1966
23436SOL     OW71984   2.779   7.617   5.395 -0.0829 -0.1593 -0.3067
23436SOL    HW171985   2.844   7.569   5.344  0.5173  0.2421  0.0736
23436SOL    HW271986   2.780   7.575   5.481  0.5157  0.5946  0.0560
23437SOL     OW71987   0.607   4.891   4.148  0.0092  0.1783  0.3142
23437SOL    HW171988   0.518   4.859   4.166  0.0135  0.3430  0.6183
23437SOL    HW271989   0.641   4.917   4.233  0.8193 -1.0740  0.3852
23438SOL     OW71990   2.766   2.289   6.117 -0.5698  0.3744  0.2712
23438SOL    HW171991   2.853   2.267   6.084  0.7903  1.5661  2.8524
23438SOL    HW271992   2.709   2.286   6.041  1.9544  0.6838 -1.6789
23439SOL     OW71993   2.504   4.245   7.577  0.0641  0.2946 -0.0127
23439SOL    HW171994   2.430   4.259   7.637 -0.3749 -1.6463 -0.0624
23439SOL    HW271995   2.463   4.223   7.494  0.6928  2.0630 -0.8292
23440SOL     OW71996   0.475   2.640   4.320  0.6737 -0.0818  0.7436
23440SOL    HW171997   0.522   2.602   4.246 -0.4897 -0.1335  0.0184
23440SOL    HW271998   0.416   2.570   4.349 -0.3366  0.6284  0.4136
23441SOL     OW71999   1.425   2.636   2.146  0.2032  0.2172 -0.9412
23441SOL    HW172000   1.487   2.661   2.214 -2.8754  1.7289  1.4433
23441SOL    HW272001   1.412   2.716   2.094 -2.1665  0.8904  0.6060
23442SOL     OW72002   0.478   6.718   2.595 -0.6266 -0.2921 -0.1183
23442SOL    HW172003   0.411   6.685   2.654 -0.9363 -0.7147 -0.6968
23442SOL    HW272004   0.536   6.770   2.650 -2.3559  1.4515  0.1141
23443SOL     OW72005   2.786   3.993   8.285  0.1028  0.4303 -0.4486
23443SOL    HW172006   2.820   4.046   8.213  0.1419  0.3461 -0.4911
23443SOL    HW272007   2.716   3.941   8.245  0.3893  0.0905 -0.5124
23444SOL     OW72008   9.020   1.360   6.087  0.1942 -0.1731 -0.2793
23444SOL    HW172009   9.012   1.447   6.125 -1.2715 -0.0867 -0.7752
23444SOL    HW272010   9.094   1.320   6.133  0.6299  1.1936  0.2072
23445SOL     OW72011   6.426   0.899   4.227  0.0388 -0.0962  0.0514
23445SOL    HW172012   6.447   0.939   4.311  2.4691 -4.9546  1.9485
23445SOL    HW272013   6.509   0.900   4.179 -0.6435  0.0425 -1.1535
23446SOL     OW72014   4.348   0.511   8.975 -0.6661  0.1788 -0.3033
23446SOL    HW172015   4.365   0.578   8.910 -2.9954  0.6232 -0.4975
23446SOL    HW272016   4.349   0.428   8.926  0.8625  0.1856 -0.2979
23447SOL     OW72017   6.525   3.883   1.842 -0.4851 -0.0065 -0.5186
23447SOL    HW172018   6.533   3.866   1.748  1.2409 -0.3356 -0.3336
23447SOL    HW272019   6.482   3.968   1.847  0.5915  0.6301 -1.6484
23448SOL     OW72020   2.015   7.138   5.415 -0.0331  0.3511  0.3126
23448SOL    HW172021   2.010   7.233   5.419  0.3697  0.4548 -1.2926
23448SOL    HW272022   2.090   7.120   5.359 -1.6177 -0.8666 -1.4845
23449SOL     OW72023   3.994   1.804   5.373 -0.3227  0.0747 -0.5103
23449SOL    HW172024   4.010   1.893   5.342 -0.1362 -0.0111 -0.6678
23449SOL    HW272025   3.943   1.763   5.303  1.4702 -0.6080 -1.4593
23450SOL     OW72026   7.598   5.037   3.531 -0.2592  0.1380  0.4222
23450SOL    HW172027   7.505   5.057   3.532 -0.2443  0.2232 -0.0396
23450SOL    HW272028   7.630   5.069   3.447  0.4370  1.2060  1.0841
23451SOL     OW72029   4.386   5.871   2.362 -0.4676  0.0937 -0.3898
23451SOL    HW172030   4.468   5.844   2.321 -0.1437  2.4245 -1.3443
23451SOL    HW272031   4.394   5.966   2.373 -2.0737  0.0464  1.6903
23452SOL     OW72032   8.907   4.456   4.508 -0.1343  0.3721  0.0306
23452SOL    HW172033   8.951   4.380   4.548 -0.0418  0.6993  0.5436
23452SOL    HW272034   8.973   4.492   4.449 -1.1136 -1.6592 -2.4301
23453SOL     OW72035   0.350   4.344   4.417  0.0297  0.4821 -0.0778
23453SOL    HW172036   0.288   4.302   4.357 -0.1013  1.2902 -0.5076
23453SOL    HW272037   0.373   4.274   4.479 -1.6984  0.3063  0.4061
23454SOL     OW72038   4.077   2.390   4.351 -0.7058 -0.0495 -0.1273
23454SOL    HW172039   4.066   2.298   4.326 -1.5104  0.2218 -0.7902
23454SOL    HW272040   4.172   2.404   4.350 -0.4955 -1.1846  1.1434
23455SOL     OW72041   1.007   5.270   7.641  0.1222 -0.2105  0.0035
23455SOL    HW172042   0.946   5.263   7.714 -1.3799 -0.4852 -1.2478
23455SOL    HW272043   1.039   5.360   7.645 -1.9390  0.5810 -0.5254
23456SOL     OW72044   8.998   2.179   6.702 -0.1531  0.0231  0.4876
23456SOL    HW172045   8.915   2.134   6.717  0.8555 -2.5566 -1.3696
23456SOL    HW272046   8.981   2.236   6.627 -0.2129 -0.6508 -0.0175
23457SOL     OW72047   9.104   1.939   1.171 -0.4643 -0.0525 -0.1826
23457SOL    HW172048   9.195   1.957   1.150 -0.2708 -1.0643 -0.2431
23457SOL    HW272049   9.094   1.845   1.156 -1.6346  0.1302 -0.6144
23458SOL     OW72050   3.930   3.215   0.882 -0.1399  0.4275  0.0202
23458SOL    HW172051   3.953   3.128   0.850  0.2450 -0.4345  2.5072
23458SOL    HW272052   3.978   3.275   0.826  2.8357 -1.1117  0.8306
23459SOL     OW72053   0.146   8.932   4.218 -0.2650 -0.2424 -0.9299
23459SOL    HW172054   0.145   8.861   4.282  2.5232  0.3023 -0.1839
23459SOL    HW272055   0.096   9.002   4.259  1.5349  0.1195  0.7550
23460SOL     OW72056   6.778   5.373   7.908 -0.1433  0.1501 -0.1663
23460SOL    HW172057   6.853   5.365   7.850 -2.1131  0.5086 -2.8692
23460SOL    HW272058   6.795   5.310   7.978  1.6899 -1.2551 -1.8197
23461SOL     OW72059   8.524   4.560   2.753 -0.6341  0.5462 -0.0807
23461SOL    HW172060   8.605   4.537   2.707 -0.9430  1.2928 -1.0245
23461SOL    HW272061   8.510   4.488   2.815 -0.4624 -0.7363 -1.5014
23462SOL     OW72062   1.230   3.239   1.509  0.0619  0.1905  0.1607
23462SOL    HW172063   1.267   3.319   1.545 -2.4498  1.1780  0.6330
23462SOL    HW272064   1.266   3.169   1.565  0.6496  1.1608  1.0105
23463SOL     OW72065   5.622   6.502   7.435  0.2293 -0.8035  0.3432
23463SOL    HW172066   5.564   6.549   7.495 -0.1898 -0.8539 -0.0179
23463SOL    HW272067   5.594   6.530   7.348 -1.4415 -3.3409  0.0222
23464SOL     OW72068   1.976   9.061   7.283  0.2300  0.0066  0.0777
23464SOL    HW172069   1.954   8.968   7.280  0.9698 -0.2361  1.4820
23464SOL    HW272070   1.906   9.101   7.336 -0.8739  0.5164 -1.7061
23465SOL     OW72071   5.919   2.177   8.393 -0.6805  0.7065  0.2249
23465SOL    HW172072   5.919   2.267   8.360 -0.9383 -0.0405 -1.8732
23465SOL    HW272073   5.826   2.152   8.396 -0.5143 -0.0946 -0.9496
23466SOL     OW72074   4.111   1.750   4.256 -0.0196 -0.2808  0.1446
23466SOL    HW172075   4.096   1.789   4.342 -0.3242 -0.6044  0.2380
23466SOL    HW272076   4.191   1.700   4.267  1.4389  1.8432 -0.4850
23467SOL     OW72077   8.092   6.747   8.613 -0.3874  0.6422  0.2219
23467SOL    HW172078   8.103   6.839   8.637 -0.3819  0.6975  0.0090
23467SOL    HW272079   8.169   6.727   8.558  0.1199  0.2443  1.0639
23468SOL     OW72080   8.559   2.730   0.753  0.6160  0.3214  0.3019
23468SOL    HW172081   8.488   2.735   0.689  0.7540 -0.1508  0.1126
23468SOL    HW272082   8.537   2.655   0.808  0.7098  0.4772  0.5541
23469SOL     OW72083   2.858   7.383   3.258  0.1144  0.0106  0.3664
23469SOL    HW172084   2.886   7.299   3.294 -1.4460 -0.3478  0.7925
23469SOL    HW272085   2.763   7.378   3.256 -0.1746  2.9440  3.2846
23470SOL     OW72086   1.212   8.770   2.750  0.3947  0.1298 -0.0443
23470SOL    HW172087   1.245   8.841   2.696  0.5594  1.4338  1.7281
23470SOL    HW272088   1.287   8.711   2.760 -0.1225 -1.0611 -2.6550
23471SOL     OW72089   4.708   1.101   4.796  0.1066 -0.0398 -0.1744
23471SOL    HW172090   4.729   1.057   4.879 -0.2101 -1.4627 -0.8298
23471SOL    HW272091   4.642   1.045   4.755  0.5681  0.4113 -1.5808
23472SOL     OW72092   7.688   9.240   8.585  0.0108 -0.1186  0.1712
23472SOL    HW172093   7.624   9.304   8.557  0.3966  0.2526  0.1221
23472SOL    HW272094   7.637   9.163   8.610 -0.4521  0.2026  0.2125
23473SOL     OW72095   8.509   2.352   1.911 -0.2828 -0.0237  0.0415
23473SOL    HW172096   8.569   2.376   1.982  1.1634  1.9655 -1.7703
23473SOL    HW272097   8.500   2.257   1.918  2.9573 -0.3599  0.4923
23474SOL     OW72098   5.042   7.512   8.004 -0.4522 -0.3380  0.5129
23474SOL    HW172099   5.059   7.553   7.919  1.8248 -1.0147  0.6247
23474SOL    HW272100   4.979   7.442   7.984  0.5550 -0.9170 -0.7428
23475SOL     OW72101   8.897   8.941   3.190 -0.2708 -0.4488 -0.4643
23475SOL    HW172102   8.930   9.017   3.142  1.2426 -0.0353  1.1791
23475SOL    HW272103   8.808   8.965   3.216  0.8140  1.5187  1.5770
23476SOL     OW72104   9.204   3.144   1.973 -0.5259 -0.2238 -0.2200
23476SOL    HW172105   9.142   3.075   1.949  0.7461 -1.5294  0.1819
23476SOL    HW272106   9.276   3.098   2.016  0.4385  1.3425 -0.1154
23477SOL     OW72107   3.017   3.516   6.817  0.1365  0.4564  0.1504
23477SOL    HW172108   2.998   3.448   6.881 -1.8155  0.1869 -0.6792
23477SOL    HW272109   3.074   3.578   6.863  0.4270 -0.7780  1.4765
23478SOL     OW72110   4.792   5.201   5.529 -0.2085  0.0667  0.3572
23478SOL    HW172111   4.762   5.120   5.488 -0.6460 -0.0731  0.9484
23478SOL    HW272112   4.720   5.262   5.517  0.3372  0.5402 -0.5721
23479SOL     OW72113   4.914   8.083   1.499  0.3299 -0.2421 -0.0658
23479SOL    HW172114   4.901   8.147   1.569  2.2442 -1.1625  1.1920
23479SOL    HW272115   4.850   8.014   1.518 -0.4208  0.3869 -0.3049
23480SOL     OW72116   8.460   0.060   0.254 -0.4508 -0.0555  0.2862
23480SOL    HW172117   8.426   0.083   0.340 -0.2843  0.3875  0.2363
23480SOL    HW272118   8.537   0.005   0.272  0.4958  1.3041  0.4516
23481SOL     OW72119   0.331   0.369   4.121  0.2775 -0.6232  0.1307
23481SOL    HW172120   0.388   0.312   4.173 -0.7064 -0.6229  1.2306
23481SOL    HW272121   0.356   0.458   4.146  0.8288 -0.5870 -0.5236
23482SOL     OW72122   4.646   9.071   1.890  0.4931  0.1975 -0.6334
23482SOL    HW172123   4.651   9.003   1.823  1.2764  0.4787 -0.8733
23482SOL    HW272124   4.647   9.153   1.841  1.9182  0.4226 -0.2599
23483SOL     OW72125   3.329   3.072   5.223 -0.1913 -0.3943  0.1434
23483SOL    HW172126   3.233   3.065   5.223 -0.1708 -0.7185  1.5952
23483SOL    HW272127   3.347   3.148   5.167 -1.3019 -0.2202  0.0122
23484SOL     OW72128   5.724   5.395   6.281  0.1684 -0.5194  0.7055
23484SOL    HW172129   5.768   5.425   6.202 -0.7889 -2.4216 -0.5774
23484SOL    HW272130   5.631   5.391   6.258  0.0383 -2.4799  1.4470
23485SOL     OW72131   3.094   8.814   2.981 -0.3524 -0.8280  0.1976
23485SOL    HW172132   3.150   8.873   3.031  0.8679 -1.2689 -0.6325
23485SOL    HW272133   3.006   8.829   3.016  0.2196  0.1532  1.2391
23486SOL     OW72134   4.244   4.070   2.893  0.5352  0.6223  0.2107
23486SOL    HW172135   4.210   4.127   2.961  2.3535  1.7512  0.1939
23486SOL    HW272136   4.317   4.024   2.934 -0.5429 -1.2827  0.0513
23487SOL     OW72137   4.786   4.672   2.820 -0.1237 -0.3232 -0.2310
23487SOL    HW172138   4.836   4.623   2.885  2.4666 -0.2423 -2.0932
23487SOL    HW272139   4.805   4.630   2.737 -0.3062  1.9287 -1.4673
23488SOL     OW72140   8.140   5.378   4.498  0.1515  0.3995  0.3772
23488SOL    HW172141   8.091   5.448   4.456 -0.9880 -0.7907 -0.3371
23488SOL    HW272142   8.194   5.422   4.563  2.4173  2.3562 -2.7198
23489SOL     OW72143   2.428   0.377   7.824 -0.2880  0.0066  0.1367
23489SOL    HW172144   2.433   0.396   7.730  1.3785 -0.0565  0.2093
23489SOL    HW272145   2.343   0.333   7.835 -0.5631  0.1598 -1.3016
23490SOL     OW72146   3.400   5.153   5.798  0.0700 -0.1630 -0.4431
23490SOL    HW172147   3.329   5.183   5.741 -0.3095  0.5731  0.4019
23490SOL    HW272148   3.387   5.059   5.806  0.4332 -0.3619 -1.9842
23491SOL     OW72149   2.307   3.106   4.525  0.1312  0.2306 -0.1937
23491SOL    HW172150   2.323   3.125   4.432 -1.1405 -0.4020 -0.5580
23491SOL    HW272151   2.328   3.013   4.535 -1.5521 -0.1846 -0.3004
23492SOL     OW72152   2.485   5.645   4.731 -0.0121 -0.3678  0.1151
23492SOL    HW172153   2.394   5.672   4.743  0.4125  1.2698 -0.2332
23492SOL    HW272154   2.503   5.587   4.805 -1.4655 -1.0800 -0.0648
23493SOL     OW72155   0.061   7.728   6.554 -0.8129  0.6656  0.1689
23493SOL    HW172156   0.094   7.731   6.644 -1.9115 -0.8732  0.6393
23493SOL    HW272157   0.114   7.660   6.511 -1.7572 -0.1411  0.2684
23494SOL     OW72158   7.912   4.959   6.174  0.9433 -0.1936 -0.1342
23494SOL    HW172159   7.895   4.913   6.092 -0.9476 -0.7941  0.5502
23494SOL    HW272160   7.877   5.047   6.161 -1.2022 -0.8777  0.6481
23495SOL     OW72161   1.298   4.543   7.848 -0.5067  0.6477 -0.5024
23495SOL    HW172162   1.286   4.628   7.806 -0.0343  0.7572 -0.4187
23495SOL    HW272163   1.286   4.560   7.941  1.7454  1.0568 -0.2563
23496SOL     OW72164   9.149   9.239   6.587  0.3450  0.4739 -0.0504
23496SOL    HW172165   9.096   9.201   6.517  0.7855 -0.0209 -0.1204
23496SOL    HW272166   9.186   9.163   6.633  1.3067  0.8133 -0.2471
23497SOL     OW72167   4.715   9.256   4.812 -0.0811 -0.5754 -0.4650
23497SOL    HW172168   4.752   9.336   4.850 -1.0865 -0.0542 -0.5743
23497SOL    HW272169   4.663   9.217   4.882 -1.0771 -0.1735 -0.9723
23498SOL     OW72170   3.613   4.386   5.434  0.0315 -0.3706 -0.4904
23498SOL    HW172171   3.591   4.478   5.449  0.8448 -0.3916  0.9175
23498SOL    HW272172   3.671   4.387   5.358 -0.8466  0.1498 -1.1718
23499SOL     OW72173   2.729   6.881   5.709  0.2452 -0.1355 -0.0819
23499SOL    HW172174   2.667   6.863   5.639  0.8459 -3.3529  0.1468
23499SOL    HW272175   2.679   6.868   5.790  0.4086  0.3950  0.1122
23500SOL     OW72176   2.109   8.798   2.654  0.0123 -0.1386  0.2137
23500SOL    HW172177   2.106   8.777   2.748  1.5702  0.1049  0.3391
23500SOL    HW272178   2.116   8.894   2.651  0.2277 -0.1643 -0.1390
23501SOL     OW72179   4.421   6.693   0.946  0.3928 -0.7369 -0.8267
23501SOL    HW172180   4.457   6.657   1.027  0.8656  1.3097 -0.0985
23501SOL    HW272181   4.332   6.659   0.942  0.4206 -0.9987  0.4707
23502SOL     OW72182   0.847   1.463   6.002  0.1739  0.2293 -0.3800
23502SOL    HW172183   0.826   1.468   6.095  2.8033 -2.5800  0.4417
23502SOL    HW272184   0.793   1.391   5.969  3.3304 -2.5490  0.2858
23503SOL     OW72185   7.309   6.491   6.962  0.0630 -0.2797  0.1485
23503SOL    HW172186   7.378   6.520   7.023 -0.2983  0.3781  0.2486
23503SOL    HW272187   7.354   6.479   6.879  0.3971 -0.3630  0.3370
23504SOL     OW72188   7.122   1.103   0.483  0.0901 -0.5369  0.7397
23504SOL    HW172189   7.030   1.132   0.477 -0.3377 -1.9398  0.2490
23504SOL    HW272190   7.155   1.112   0.393 -0.2465 -2.1972  0.4452
23505SOL     OW72191   2.005   9.267   4.050 -0.2337 -0.5470  0.1070
23505SOL    HW172192   1.983   9.231   4.136  0.7636 -1.3836  0.0271
23505SOL    HW272193   2.079   9.214   4.020  1.0385  1.3486 -0.1893
23506SOL     OW72194   4.338   6.151   2.366  0.2720  0.5653 -0.7803
23506SOL    HW172195   4.261   6.159   2.423  0.3968 -0.7039 -0.4407
23506SOL    HW272196   4.349   6.240   2.330  0.5317  1.5285  1.5768
23507SOL     OW72197   4.100   0.866   7.168  0.0973 -0.1212 -0.3262
23507SOL    HW172198   4.063   0.877   7.081 -0.2046 -2.1165 -0.4813
23507SOL    HW272199   4.186   0.827   7.154 -0.1149 -0.8293  0.2712
23508SOL     OW72200   1.458   8.167   9.270  0.2176  0.4850 -0.1120
23508SOL    HW172201   1.527   8.101   9.269 -0.4539 -0.2373  0.3909
23508SOL    HW272202   1.499   8.245   9.305  0.7593  0.0326  0.2570
23509SOL     OW72203   7.009   8.631   8.963 -0.6720 -0.1926 -0.2670
23509SOL    HW172204   6.970   8.697   9.020 -0.3733  0.2022 -0.5131
23509SOL    HW272205   6.958   8.637   8.882 -0.9652 -0.6106 -0.1170
23510SOL     OW72206   0.986   8.660   3.657 -0.0824  0.1268 -0.4227
23510SOL    HW172207   1.079   8.650   3.677 -0.0743  0.1461 -0.4518
23510SOL    HW272208   0.972   8.754   3.650  0.1782  0.0732 -1.7747
23511SOL     OW72209   0.667   5.964   0.054 -0.8355  0.2865  0.5442
23511SOL    HW172210   0.598   5.918   0.102 -1.5953  1.0362  0.1964
23511SOL    HW272211   0.652   5.939  -0.038  0.7747 -1.3616  0.7059
23512SOL     OW72212   4.352   0.528   5.438 -0.0952 -0.1718  0.2492
23512SOL    HW172213   4.278   0.511   5.380  0.6873  0.2725 -0.9115
23512SOL    HW272214   4.420   0.563   5.380  0.8275 -0.0472  1.3846
23513SOL     OW72215   3.708   2.953   7.880  0.3909  0.4988  0.3066
23513SOL    HW172216   3.752   2.964   7.964 -0.1973  0.4569  0.6253
23513SOL    HW272217   3.628   3.004   7.889  0.4955  0.7797 -0.3574
23514SOL     OW72218   0.155   2.679   6.604 -0.2427 -0.4188 -0.1151
23514SOL    HW172219   0.246   2.649   6.610 -0.1252  0.1959  1.6114
23514SOL    HW272220   0.110   2.609   6.557  1.1429 -0.6620 -1.1316
23515SOL     OW72221   5.510   4.568   5.686 -0.1664 -0.3167  0.4708
23515SOL    HW172222   5.510   4.476   5.659 -1.8570  0.0278 -0.7802
23515SOL    HW272223   5.571   4.611   5.626 -0.0342 -0.4559  0.5050
23516SOL     OW72224   2.543   0.366   3.527 -0.0172 -0.1383 -0.1741
23516SOL    HW172225   2.503   0.423   3.460 -1.2367 -2.2173 -1.2634
23516SOL    HW272226   2.469   0.321   3.567  0.8801 -0.3907  1.2341
23517SOL     OW72227   0.993   4.555   0.879  0.6054 -0.5412 -0.2570
23517SOL    HW172228   0.950   4.557   0.793  1.3872 -1.6657 -0.6962
23517SOL    HW272229   1.034   4.641   0.888  0.4120 -0.3724 -0.9649
23518SOL     OW72230   0.919   7.954   8.211 -0.6601 -0.1702 -0.2499
23518SOL    HW172231   0.938   7.884   8.274  0.8446  0.8960  0.5360
23518SOL    HW272232   0.972   7.932   8.135 -1.8091 -0.9990 -0.8132
23519SOL     OW72233   3.887   2.560   4.365 -0.4462 -0.1687  0.4691
23519SOL    HW172234   3.952   2.492   4.346 -2.2434 -1.5505 -0.7914
23519SOL    HW272235   3.810   2.512   4.394 -1.9124  1.2936 -0.9409
23520SOL     OW72236   6.887   2.607   2.543 -0.1534 -0.3123  0.0707
23520SOL    HW172237   6.813   2.634   2.597 -1.6194  0.4985 -2.2628
23520SOL    HW272238   6.964   2.645   2.586 -1.3472  0.9743  1.1192
23521SOL     OW72239   5.723   1.915   0.173  0.2104  0.0956  0.3317
23521SOL    HW172240   5.748   1.842   0.117 -1.7446 -1.0843  0.9457
23521SOL    HW272241   5.805   1.942   0.215  1.2388 -0.6766 -1.1217
23522SOL     OW72242   0.515   8.527   9.173 -0.0765 -0.0010  0.6532
23522SOL    HW172243   0.587   8.498   9.229 -0.1618  0.2572  0.8989
23522SOL    HW272244   0.438   8.481   9.207 -0.0827 -0.0418  0.5832
23523SOL     OW72245   7.250   4.146   6.802 -0.7666  0.7040  0.4671
23523SOL    HW172246   7.193   4.070   6.792 -0.2671  0.3082  0.5749
23523SOL    HW272247   7.215   4.211   6.741 -0.2185 -0.2051 -0.8565
23524SOL     OW72248   8.694   6.172   1.402  0.5944 -0.2297 -0.0893
23524SOL    HW172249   8.785   6.160   1.374  0.6056  0.0346 -0.1749
23524SOL    HW272250   8.642   6.132   1.332  0.6379 -0.0858 -0.2046
23525SOL     OW72251   4.666   4.695   8.593 -0.5072  0.3244 -0.3076
23525SOL    HW172252   4.582   4.651   8.576 -0.6301 -1.0413  3.3032
23525SOL    HW272253   4.652   4.740   8.676  2.2972  0.2636  0.2242
23526SOL     OW72254   1.118   2.763   7.385  0.1508  0.0886  0.0950
23526SOL    HW172255   1.198   2.810   7.406 -1.0023  3.2323 -2.2840
23526SOL    HW272256   1.051   2.831   7.376 -2.1911 -2.2270 -0.7374
23527SOL     OW72257   0.433   8.408   6.607  0.6647 -0.0393  0.1854
23527SOL    HW172258   0.513   8.441   6.647  0.1267  0.9201  0.4827
23527SOL    HW272259   0.421   8.461   6.528  0.2385 -0.0613  0.2290
23528SOL     OW72260   1.623   1.374   0.444  0.2905 -0.0128 -0.7039
23528SOL    HW172261   1.559   1.312   0.411  1.0663 -0.0205 -2.2642
23528SOL    HW272262   1.607   1.379   0.538  0.2795 -2.6501 -0.5414
23529SOL     OW72263   9.156   2.589   9.137  0.1372 -0.2496  0.6329
23529SOL    HW172264   9.155   2.574   9.042 -1.0441 -0.4692  0.6683
23529SOL    HW272265   9.195   2.676   9.148 -1.4781  0.6050 -0.1880
23530SOL     OW72266   0.053   2.582   1.879 -0.1557 -0.3760  0.0146
23530SOL    HW172267   0.066   2.497   1.837 -0.2270 -0.0177 -0.7369
23530SOL    HW272268  -0.042   2.592   1.886 -0.1933  0.4683 -1.6021
23531SOL     OW72269   7.185   6.819   5.844 -0.5021  0.3016  0.3669
23531SOL    HW172270   7.142   6.742   5.806  0.2547 -0.1630  0.4358
23531SOL    HW272271   7.152   6.823   5.933  0.2985 -0.6067  0.7172
23532SOL     OW72272   6.082   7.921   0.877 -0.4908  0.7221  0.2783
23532SOL    HW172273   6.128   7.875   0.947 -0.7406 -0.1260 -0.1143
23532SOL    HW272274   6.041   7.852   0.825  1.1888  1.2256 -1.7901
23533SOL     OW72275   3.554   9.194   3.455  0.1237 -0.0450  0.1935
23533SOL    HW172276   3.543   9.227   3.545 -0.4430  1.0646 -0.2753
23533SOL    HW272277   3.648   9.186   3.444  0.3166  2.1690  0.0646
23534SOL     OW72278   4.745   8.409   6.684  0.2830  0.7474  0.3007
23534SOL    HW172279   4.676   8.461   6.642  0.7223 -0.7310 -2.3775
23534SOL    HW272280   4.710   8.389   6.771 -1.6048  2.0910 -0.1135
23535SOL     OW72281   7.346   5.050   2.209 -0.1902 -0.0651 -0.1915
23535SOL    HW172282   7.395   5.055   2.127 -1.9826  0.0803 -1.2706
23535SOL    HW272283   7.335   4.956   2.225  0.4987 -0.1004  0.1081
23536SOL     OW72284   5.992   2.317   3.846  0.1209  0.1336  0.2508
23536SOL    HW172285   6.056   2.376   3.887  0.3283  0.0565  0.0350
23536SOL    HW272286   6.043   2.263   3.786  0.3262 -1.9601  2.2583
23537SOL     OW72287   1.708   3.847   4.876 -0.3989  0.0451 -0.3312
23537SOL    HW172288   1.767   3.841   4.801 -1.0011 -0.2316 -0.7836
23537SOL    HW272289   1.643   3.778   4.862 -0.9945  0.5272  0.0189
23538SOL     OW72290   5.885   2.196   6.377 -0.1086  0.2479  0.5130
23538SOL    HW172291   5.900   2.198   6.472  2.7282 -1.3860  0.1347
23538SOL    HW272292   5.967   2.227   6.339 -0.5932 -0.8257 -1.4642
23539SOL     OW72293   0.155   7.502   5.375 -0.2584 -0.3584  0.4379
23539SOL    HW172294   0.198   7.585   5.394  0.4467 -0.6015 -0.0883
23539SOL    HW272295   0.078   7.501   5.432 -0.2880  0.6674  0.4230
23540SOL     OW72296   2.346   8.902   7.021 -0.1081 -0.0218 -0.3734
23540SOL    HW172297   2.325   8.940   7.107  0.4653  1.8775 -1.0499
23540SOL    HW272298   2.410   8.833   7.040 -0.2853  0.1154  0.7598
23541SOL     OW72299   3.866   7.223   4.166  1.1006  0.9398 -0.2675
23541SOL    HW172300   3.904   7.149   4.213 -0.2791  0.1186 -0.4010
23541SOL    HW272301   3.840   7.284   4.236  2.3747  1.3834 -0.1648
23542SOL     OW72302   9.137   4.821   2.085  0.1536  0.0756 -0.0413
23542SOL    HW172303   9.066   4.793   2.143 -0.6596  2.0471 -0.0649
23542SOL    HW272304   9.102   4.811   1.997  0.9540 -1.7194 -0.1885
23543SOL     OW72305   1.995   2.345   8.303 -0.4135  0.2805  0.1320
23543SOL    HW172306   2.044   2.307   8.230 -2.5904 -1.8840 -0.2630
23543SOL    HW272307   1.958   2.426   8.267  1.5189  1.1224 -0.0247
23544SOL     OW72308   1.508   4.393   5.713 -0.4468 -0.8069 -0.1086
23544SOL    HW172309   1.547   4.467   5.665 -2.3072 -0.9311 -1.8954
23544SOL    HW272310   1.558   4.317   5.683 -0.0556 -0.5780 -0.0486
23545SOL     OW72311   3.633   1.784   5.361 -0.0793 -0.0502  0.0436
23545SOL    HW172312   3.708   1.763   5.306 -1.1846 -0.9612 -1.1375
23545SOL    HW272313   3.620   1.878   5.349 -0.4852 -0.2951 -1.4818
23546SOL     OW72314   9.028   8.164   9.155  0.3591  0.2369  0.3466
23546SOL    HW172315   9.057   8.211   9.076 -0.1316  1.2949  0.7935
23546SOL    HW272316   8.992   8.232   9.212 -0.7493 -0.7361  0.8313
23547SOL     OW72317   1.073   4.531   4.031 -0.3339 -0.8513 -0.6689
23547SOL    HW172318   1.070   4.543   3.936  0.8707  0.8078 -0.5125
23547SOL    HW272319   0.985   4.553   4.061  0.1110  1.6713 -1.0887
23548SOL     OW72320   8.076   1.352   1.442  0.3434 -0.9141  0.4140
23548SOL    HW172321   8.059   1.327   1.534 -0.2763  0.7424  0.7689
23548SOL    HW272322   7.999   1.320   1.395  0.2272 -0.9535  0.6265
23549SOL     OW72323   0.259   5.271   8.495 -0.1668 -0.0660  0.5886
23549SOL    HW172324   0.182   5.317   8.530 -0.0512  0.4611  0.1593
23549SOL    HW272325   0.313   5.253   8.573 -0.2575  0.4447  0.7713
23550SOL     OW72326   1.427   2.651   2.455  0.2370  0.0183  0.2010
23550SOL    HW172327   1.510   2.697   2.467 -0.0378  0.5323  0.1673
23550SOL    HW272328   1.452   2.561   2.433  0.7744  0.0068  0.8522
23551SOL     OW72329   3.822   8.170   1.073 -1.0707  0.1334 -0.1921
23551SOL    HW172330   3.817   8.265   1.065 -0.6063  0.1059 -0.9186
23551SOL    HW272331   3.873   8.143   0.996 -1.8242 -0.7680 -0.3752
23552SOL     OW72332   8.356   2.770   6.149 -0.0799  0.2511  0.2576
23552SOL    HW172333   8.341   2.826   6.225  0.5192  1.2266 -0.3359
23552SOL    HW272334   8.407   2.824   6.088 -0.4031 -0.5756 -0.7699
23553SOL     OW72335   5.159   2.102   3.031 -0.0527  0.2020 -0.1825
23553SOL    HW172336   5.250   2.070   3.030  0.3301  1.2800 -0.0842
23553SOL    HW272337   5.133   2.103   2.939 -0.9056 -2.6972 -0.0432
23554SOL     OW72338   2.805   1.882   5.801 -0.3923  0.3990  0.4512
23554SOL    HW172339   2.891   1.917   5.778 -0.3370  0.3002  0.5047
23554SOL    HW272340   2.797   1.802   5.748  0.6474 -1.0163  2.3464
23555SOL     OW72341   5.070   9.067   0.925 -0.8413  0.0241 -0.2163
23555SOL    HW172342   4.979   9.082   0.901 -1.3731  0.1620  1.7667
23555SOL    HW272343   5.118   9.140   0.885 -1.7011  0.3198 -0.7157
23556SOL     OW72344   7.855   4.978   3.089  0.2095  0.3932 -0.7312
23556SOL    HW172345   7.862   5.002   2.997  0.8674 -0.3671 -0.8874
23556SOL    HW272346   7.782   4.915   3.092 -0.3819  1.0827 -0.5946
23557SOL     OW72347   3.640   3.165   8.806  0.1039 -0.2611 -0.5780
23557SOL    HW172348   3.617   3.129   8.720 -1.9737  2.4275 -1.2405
23557SOL    HW272349   3.708   3.229   8.788  2.7517 -2.6741  0.4102
23558SOL     OW72350   0.608   5.231   6.341  0.4660 -0.1741 -0.4593
23558SOL    HW172351   0.629   5.257   6.251  0.7101  1.1849 -0.0137
23558SOL    HW272352   0.638   5.304   6.395 -0.7309 -0.4847  0.6345
23559SOL     OW72353   0.761   8.868   2.837  0.3126  0.3028 -0.3957
23559SOL    HW172354   0.760   8.963   2.836  0.0333  0.2951 -0.7970
23559SOL    HW272355   0.673   8.843   2.866 -0.1817  0.1450 -1.9769
23560SOL     OW72356   8.112   2.863   4.014  0.4173  0.6961 -0.3619
23560SOL    HW172357   8.108   2.778   3.970 -1.1021  0.3141  0.4789
23560SOL    HW272358   8.158   2.844   4.096  1.0318  0.9124 -0.6508
23561SOL     OW72359   5.908   2.515   1.063 -0.2576  0.2241 -0.1155
23561SOL    HW172360   5.876   2.511   0.973 -1.4650  2.2076  0.1791
23561SOL    HW272361   5.942   2.428   1.081  0.0510 -0.1737 -2.5060
23562SOL     OW72362   9.082   9.204   8.219 -0.3234  0.2723  0.5695
23562SOL    HW172363   9.061   9.170   8.132 -0.8513  2.1045 -0.0366
23562SOL    HW272364   9.110   9.126   8.269  0.6558 -0.6861 -1.4114
23563SOL     OW72365   1.856   4.734   3.605  0.1409 -0.0965  0.1099
23563SOL    HW172366   1.923   4.787   3.562 -0.7885  0.8745 -0.1833
23563SOL    HW272367   1.780   4.740   3.546 -0.8003  0.3685  1.3441
23564SOL     OW72368   5.826   7.391   5.620 -0.5679  0.7155  0.5816
23564SOL    HW172369   5.871   7.453   5.678 -1.5161  2.3766 -0.4182
23564SOL    HW272370   5.791   7.445   5.549  1.2338 -1.3904 -1.9960
23565SOL     OW72371   9.165   3.070   7.459 -0.0076  0.0571  0.5345
23565SOL    HW172372   9.256   3.099   7.454  0.4595 -1.4840  0.0351
23565SOL    HW272373   9.154   3.014   7.382 -1.4874  0.5376  0.3873
23566SOL     OW72374   1.044   1.839   6.659 -0.4752 -0.5065  0.4798
23566SOL    HW172375   1.070   1.915   6.710 -1.7276  0.7709 -0.7295
23566SOL    HW272376   0.973   1.799   6.710 -0.4860 -0.2986  0.6287
23567SOL     OW72377   0.951   0.162   8.845 -0.5030 -0.3284  0.0649
23567SOL    HW172378   0.869   0.160   8.796 -0.7833 -0.0922  0.5288
23567SOL    HW272379   0.986   0.250   8.828 -0.0845 -0.6179 -0.5682
23568SOL     OW72380   8.452   4.736   6.123  0.1687  0.1596  0.4888
23568SOL    HW172381   8.513   4.702   6.189  1.7716  0.1129 -0.9879
23568SOL    HW272382   8.505   4.743   6.043 -2.1265 -1.2378 -1.1849
23569SOL     OW72383   3.994   0.242   6.800  0.0863 -0.4595  0.2776
23569SOL    HW172384   4.069   0.209   6.751  0.0648  0.0383 -0.0997
23569SOL    HW272385   4.009   0.337   6.804 -1.0644 -0.2258 -0.7170
23570SOL     OW72386   5.225   2.465   1.307 -0.4329 -0.3391 -0.0943
23570SOL    HW172387   5.228   2.510   1.391 -2.8716 -0.9824  0.3828
23570SOL    HW272388   5.219   2.535   1.242  0.3869  0.1269  0.3242
23571SOL     OW72389   6.525   3.234   0.201 -0.1133  0.2859 -0.1338
23571SOL    HW172390   6.609   3.203   0.235 -0.6071 -1.4869 -0.5343
23571SOL    HW272391   6.475   3.256   0.280  0.3247  0.3209  0.1390
23572SOL     OW72392   3.333   1.482   8.789 -0.2607  0.5491 -0.0191
23572SOL    HW172393   3.340   1.522   8.702 -0.3998  1.3481  0.3311
23572SOL    HW272394   3.356   1.553   8.849  0.2865 -0.1362  0.5745
23573SOL     OW72395   5.633   6.472   7.812 -0.4915  0.0933 -0.4526
23573SOL    HW172396   5.675   6.555   7.787 -0.5081 -0.4357 -2.3419
23573SOL    HW272397   5.700   6.425   7.861  0.0007  0.6556 -0.5814
23574SOL     OW72398   8.407   6.134   5.585 -0.6244 -0.1286  0.2367
23574SOL    HW172399   8.344   6.084   5.637  0.8254 -2.1380  0.1230
23574SOL    HW272400   8.357   6.208   5.550 -2.0333  0.2853  3.0443
23575SOL     OW72401   1.223   8.074   3.456 -0.0148  0.0992 -0.1631
23575SOL    HW172402   1.281   8.109   3.524  0.6438 -0.7083 -0.3003
23575SOL    HW272403   1.144   8.048   3.503  0.2943 -0.1151  0.2362
23576SOL     OW72404   3.747   4.470   4.295 -0.4404  0.2679 -0.0998
23576SOL    HW172405   3.771   4.386   4.257 -0.3079  1.2944 -2.3589
23576SOL    HW272406   3.721   4.449   4.385  2.6704 -1.7521  0.4182
23577SOL     OW72407   3.689   5.065   1.159  0.2961  0.7622  0.0307
23577SOL    HW172408   3.644   5.142   1.125 -0.4105  0.2072 -0.2751
23577SOL    HW272409   3.620   5.008   1.191  0.8883  0.8125  1.4517
23578SOL     OW72410   6.480   4.677   3.871  0.1421 -0.0996  0.0225
23578SOL    HW172411   6.420   4.603   3.881  0.9747 -0.6554  0.9722
23578SOL    HW272412   6.471   4.726   3.952  0.3794  0.2641 -0.1673
23579SOL     OW72413   2.007   2.659   2.756  0.1856  0.4868 -1.0076
23579SOL    HW172414   2.098   2.686   2.764  0.7965 -1.5658 -0.7021
23579SOL    HW272415   2.011   2.573   2.714 -1.6376  0.5757 -1.4168
23580SOL     OW72416   1.684   7.976   4.039 -0.0961  0.0074 -0.0111
23580SOL    HW172417   1.696   7.986   3.945 -2.6332 -0.5014 -0.4236
23580SOL    HW272418   1.701   7.883   4.056 -2.0370 -0.4637 -0.4183
23581SOL     OW72419   7.993   4.503   1.955  0.6832  0.5319  0.3035
23581SOL    HW172420   7.932   4.429   1.963  0.2906  0.5990 -1.9374
23581SOL    HW272421   8.072   4.473   2.001 -0.2023 -0.4480  1.2286
23582SOL     OW72422   2.416   5.940   8.093  0.6819 -0.3360  0.3413
23582SOL    HW172423   2.461   6.019   8.123 -0.0632  0.0886  0.3621
23582SOL    HW272424   2.431   5.939   7.998 -0.3596  0.5154  0.1613
23583SOL     OW72425   4.282   6.454   8.106  0.7007 -0.0387 -0.4505
23583SOL    HW172426   4.235   6.530   8.141  0.8817 -0.5983  1.0290
23583SOL    HW272427   4.318   6.411   8.183  0.5692 -1.6461 -1.2776
23584SOL     OW72428   6.483   2.470   0.138 -0.2296 -0.0917 -0.1168
23584SOL    HW172429   6.568   2.491   0.175 -0.7705 -0.5453  1.4090
23584SOL    HW272430   6.471   2.534   0.068  0.8903  0.6546  0.3589
23585SOL     OW72431   4.363   7.765   0.976  0.4048  0.1431  0.0793
23585SOL    HW172432   4.439   7.707   0.973 -0.1578 -0.7348  2.1646
23585SOL    HW272433   4.399   7.850   1.001  0.8718  0.0544 -0.2807
23586SOL     OW72434   7.868   0.090   4.780 -0.3656  0.1783  0.6536
23586SOL    HW172435   7.866   0.077   4.685 -0.0383 -1.0206  0.7962
23586SOL    HW272436   7.852   0.002   4.816  2.1643  0.1299  1.7200
23587SOL     OW72437   5.705   9.111   1.279 -0.0342  0.2328  0.1842
23587SOL    HW172438   5.709   9.108   1.374  0.8632 -0.1571  0.1440
23587SOL    HW272439   5.759   9.186   1.255  2.7730 -1.7956 -0.1538
23588SOL     OW72440   3.234   6.812   6.971  0.5395  0.1797 -0.3028
23588SOL    HW172441   3.278   6.828   6.888  3.1160 -0.8607  0.8026
23588SOL    HW272442   3.217   6.718   6.973  1.7979 -0.0486  0.9187
23589SOL     OW72443   8.065   3.745   6.250  0.2711  0.2519 -0.4875
23589SOL    HW172444   7.981   3.769   6.212 -0.0732  0.7973  0.5848
23589SOL    HW272445   8.076   3.805   6.324  0.8725 -0.8290  0.3251
23590SOL     OW72446   3.877   8.617   4.655  0.0591 -0.1541 -0.2537
23590SOL    HW172447   3.803   8.611   4.595  0.9406 -1.6711 -1.2222
23590SOL    HW272448   3.858   8.694   4.709 -0.8457  1.1225 -2.3373
23591SOL     OW72449   0.399   0.767   6.459  0.5036 -0.0826  0.1615
23591SOL    HW172450   0.460   0.726   6.520 -0.2546 -0.3573  0.7355
23591SOL    HW272451   0.371   0.848   6.503 -1.3809 -1.1431  0.9553
23592SOL     OW72452   3.022   1.008   4.538 -0.2082  0.5656 -0.5013
23592SOL    HW172453   2.935   1.009   4.498 -0.9196  0.2872  1.0162
23592SOL    HW272454   3.028   0.924   4.583  0.1389  1.3236  0.9093
23593SOL     OW72455   5.460   5.466   1.050 -0.2845  0.1029 -0.2539
23593SOL    HW172456   5.435   5.538   0.993 -1.4818  0.4172  0.6583
23593SOL    HW272457   5.518   5.412   0.996 -0.4492  1.0268 -1.3682
23594SOL     OW72458   4.661   6.630   6.146  0.7986  0.2212 -0.1815
23594SOL    HW172459   4.603   6.625   6.223 -0.1101 -1.0276 -0.9457
23594SOL    HW272460   4.632   6.559   6.089  2.9175 -0.2540 -0.7031
23595SOL     OW72461   4.963   0.705   3.719 -0.2428 -0.2164  0.0275
23595SOL    HW172462   4.942   0.798   3.704 -0.5386 -0.3541 -0.4222
23595SOL    HW272463   5.042   0.689   3.668 -1.2985 -0.7070 -1.4911
23596SOL     OW72464   1.584   4.122   3.852 -0.0207 -0.3870 -0.2558
23596SOL    HW172465   1.499   4.166   3.847 -0.1405 -0.5488  0.3197
23596SOL    HW272466   1.567   4.042   3.900  0.3483 -0.7042 -0.6532
23597SOL     OW72467   4.076   2.122   0.472 -0.2870 -0.0367 -0.0703
23597SOL    HW172468   4.129   2.174   0.532 -1.6489 -0.8748  1.9086
23597SOL    HW272469   4.139   2.062   0.432  0.8207  1.2458 -0.3065
23598SOL     OW72470   2.121   3.706   6.795 -0.4056 -0.8173  0.1939
23598SOL    HW172471   2.134   3.675   6.706 -2.8524 -0.9731 -0.1405
23598SOL    HW272472   2.070   3.787   6.786  1.0073  0.2587  1.3712
23599SOL     OW72473   3.870   4.248   6.295  0.2340 -0.3148 -0.1998
23599SOL    HW172474   3.885   4.306   6.221 -0.6576  1.0557  0.6837
23599SOL    HW272475   3.839   4.166   6.255 -0.4871  0.4929 -1.3108
23600SOL     OW72476   9.225   8.906   8.648  0.1627 -0.3063 -0.5830
23600SOL    HW172477   9.267   8.860   8.721  0.0550 -2.9085 -2.1411
23600SOL    HW272478   9.144   8.942   8.686  0.8211 -0.3852  0.9242
23601SOL     OW72479   0.324   8.287   8.798 -0.2886  0.1215  0.0148
23601SOL    HW172480   0.415   8.285   8.828 -0.2752  0.2480 -0.0177
23601SOL    HW272481   0.317   8.368   8.748 -1.0155  1.2826  1.9321
23602SOL     OW72482   6.268   0.366   8.304 -0.2117 -0.1406 -0.4108
23602SOL    HW172483   6.183   0.343   8.267 -0.7452  1.1278  0.0006
23602SOL    HW272484   6.330   0.310   8.258 -1.3337 -1.5510 -0.2580
23603SOL     OW72485   5.789   8.356   7.067 -0.4738 -0.3207  0.5823
23603SOL    HW172486   5.785   8.431   7.125  0.5459  0.5344 -0.4157
23603SOL    HW272487   5.867   8.371   7.013  0.1488 -2.4320  0.8370
23604SOL     OW72488   3.508   0.584   4.076  0.4615  0.5431  0.0763
23604SOL    HW172489   3.487   0.673   4.048  0.0152 -0.1916 -2.0778
23604SOL    HW272490   3.592   0.564   4.034 -0.2458 -0.6216 -0.8304
23605SOL     OW72491   8.233   2.777   1.852 -0.1031 -0.7820 -0.0183
23605SOL    HW172492   8.183   2.858   1.866  0.4134 -0.4126 -0.2732
23605SOL    HW272493   8.210   2.749   1.764 -2.4030 -2.4308  1.0616
23606SOL     OW72494   0.695   6.507   7.588 -0.1733 -0.1660 -0.0978
23606SOL    HW172495   0.657   6.478   7.671 -0.6712  1.3523  0.2204
23606SOL    HW272496   0.648   6.457   7.522 -1.7217  0.6185  0.3841
23607SOL     OW72497   2.126   8.360   7.562 -0.0059 -0.2596  0.4864
23607SOL    HW172498   2.202   8.350   7.620 -0.2308 -1.3255  0.6122
23607SOL    HW272499   2.069   8.287   7.585 -1.5450  1.1047  1.1044
23608SOL     OW72500   1.855   1.197   5.065  0.2839 -0.5812  0.3259
23608SOL    HW172501   1.792   1.241   5.123  0.3533 -0.1457  0.0673
23608SOL    HW272502   1.824   1.106   5.061 -0.3931 -0.3426  0.1100
23609SOL     OW72503   4.641   0.084   0.566 -0.1623  0.4597 -0.3045
23609SOL    HW172504   4.646  -0.011   0.556  1.0398  0.4216  0.4764
23609SOL    HW272505   4.706   0.104   0.634 -2.6493  1.4848  1.8676
23610SOL     OW72506   7.256   2.834   8.199  0.6365  0.5799 -0.1456
23610SOL    HW172507   7.337   2.820   8.249  0.1784 -0.1277  0.4048
23610SOL    HW272508   7.187   2.799   8.256 -0.0233  0.9289 -0.7358
23611SOL     OW72509   7.680   3.685   0.597 -0.0649 -0.0820 -0.7025
23611SOL    HW172510   7.717   3.597   0.597 -0.0320 -0.0656 -1.2421
23611SOL    HW272511   7.659   3.702   0.689 -0.6623 -0.8941 -0.6902
23612SOL     OW72512   3.057   6.456   8.324 -0.3001  0.2225  0.0351
23612SOL    HW172513   3.141   6.499   8.306 -0.5801  1.0851  0.7536
23612SOL    HW272514   2.999   6.528   8.349 -0.6143 -0.6438  1.8386
23613SOL     OW72515   2.322   8.686   5.958 -0.3940 -0.8011 -0.4598
23613SOL    HW172516   2.417   8.689   5.972  0.0348 -0.1709 -3.1408
23613SOL    HW272517   2.286   8.747   6.021  1.1394  0.0381 -0.3724
23614SOL     OW72518   4.545   9.213   5.035  0.1896  0.0695 -0.1614
23614SOL    HW172519   4.551   9.292   5.089 -0.0941 -0.7373  1.0735
23614SOL    HW272520   4.453   9.190   5.036  0.4933 -1.1717  0.8183
23615SOL     OW72521   2.525   7.365   4.955  0.4366 -0.2719 -0.8883
23615SOL    HW172522   2.432   7.378   4.939  0.2642 -0.5254 -0.1480
23615SOL    HW272523   2.543   7.417   5.034  0.7140 -0.9501 -0.4991
23616SOL     OW72524   0.153   6.448   2.133  0.1969 -0.5444  0.4155
23616SOL    HW172525   0.189   6.530   2.100  1.0006 -1.5096 -1.1602
23616SOL    HW272526   0.217   6.418   2.197 -1.1656  1.1244  2.6353
23617SOL     OW72527   0.973   8.432   8.101  0.5012  0.5749 -0.1944
23617SOL    HW172528   0.889   8.459   8.137  0.4333  0.6048 -0.3770
23617SOL    HW272529   0.951   8.374   8.028  0.6515 -1.1690  1.1095
23618SOL     OW72530   7.389   7.392   5.799 -0.4032  0.0931 -0.1217
23618SOL    HW172531   7.366   7.452   5.728 -1.3155  0.1135  0.1812
23618SOL    HW272532   7.463   7.342   5.765 -0.5642  0.3961 -0.9288
23619SOL     OW72533   7.870   2.199   8.408  0.4379  0.5835 -0.3222
23619SOL    HW172534   7.833   2.284   8.432 -0.7531  0.2629 -1.0161
23619SOL    HW272535   7.888   2.206   8.314 -0.2189 -0.1356 -0.5081
23620SOL     OW72536   3.306   3.772   5.531  0.0903 -0.2498  0.3945
23620SOL    HW172537   3.220   3.781   5.489  1.7411 -0.3317 -3.1681
23620SOL    HW272538   3.331   3.681   5.516  1.2929  0.0723  0.3603
23621SOL     OW72539   5.998   7.856   4.113  0.0424 -0.1180  0.6946
23621SOL    HW172540   5.905   7.862   4.090  0.0305  0.5487  0.9134
23621SOL    HW272541   6.037   7.808   4.040 -0.1564  1.1898 -0.2999
23622SOL     OW72542   8.040   6.157   8.049  0.1618 -0.3691  0.1843
23622SOL    HW172543   8.062   6.208   8.127 -3.0986  0.7820  0.4278
23622SOL    HW272544   8.101   6.187   7.982 -0.9313  3.1019  0.6319
23623SOL     OW72545   7.458   7.714   0.922 -0.0048  0.2912 -0.1259
23623SOL    HW172546   7.405   7.714   0.842  0.5774  0.8052 -0.5097
23623SOL    HW272547   7.465   7.806   0.947  1.6253  0.3309 -0.6840
23624SOL     OW72548   7.403   1.067   0.042  0.0709  0.0303  0.5837
23624SOL    HW172549   7.454   0.986   0.042  1.1906  0.7393  0.9971
23624SOL    HW272550   7.389   1.086  -0.051  0.5502 -0.1538  0.4757
23625SOL     OW72551   6.528   0.974   6.059 -0.3153 -0.2046 -0.2197
23625SOL    HW172552   6.523   1.053   6.005 -0.0947  0.3886  0.6049
23625SOL    HW272553   6.493   1.001   6.144  0.4401 -0.7940  0.2891
23626SOL     OW72554   8.288   5.405   0.931  0.3524  0.4671  0.0757
23626SOL    HW172555   8.194   5.401   0.948  0.0599  1.4872 -1.3093
23626SOL    HW272556   8.324   5.449   1.009 -0.4123  0.8385  0.2255
23627SOL     OW72557   2.629   4.332   4.225 -0.3382 -0.2296  0.3552
23627SOL    HW172558   2.534   4.336   4.216 -0.3831 -1.4543  0.2207
23627SOL    HW272559   2.653   4.416   4.264 -1.4126  0.3138 -0.1356
23628SOL     OW72560   4.606   0.528   6.317 -0.3040  0.3245 -0.2639
23628SOL    HW172561   4.693   0.489   6.311 -1.7404 -2.8290 -2.1660
23628SOL    HW272562   4.565   0.484   6.392 -0.7643  0.7213 -0.2756
23629SOL     OW72563   5.000   1.408   4.984  0.0080  0.3192  0.1380
23629SOL    HW172564   5.031   1.366   5.064 -2.8958 -1.0416  0.5857
23629SOL    HW272565   4.977   1.497   5.011  0.2841  0.2712  0.5357
23630SOL     OW72566   8.707   2.320   7.371  0.1686 -0.0857 -0.0261
23630SOL    HW172567   8.711   2.352   7.281  0.4195 -0.0036  0.0125
23630SOL    HW272568   8.629   2.265   7.374 -0.1265  0.3220 -0.1589
23631SOL     OW72569   5.638   2.315   2.732  0.0567 -1.1885 -0.3777
23631SOL    HW172570   5.694   2.380   2.689  2.8746 -2.4285  1.2652
23631SOL    HW272571   5.574   2.366   2.780 -0.1270  0.2872 -2.1379
23632SOL     OW72572   2.841   1.340   6.349 -0.0496  0.1068 -0.0265
23632SOL    HW172573   2.852   1.401   6.275  0.8848 -1.1813 -0.9770
23632SOL    HW272574   2.892   1.263   6.324  0.7531 -0.1407  2.2308
23633SOL     OW72575   0.613   8.951   0.270 -0.5200  0.2984 -0.6752
23633SOL    HW172576   0.543   9.013   0.250  0.6213  2.1617  0.8147
23633SOL    HW272577   0.613   8.946   0.366  0.8973 -0.2332 -0.6913
23634SOL     OW72578   8.964   6.193   5.602  0.5316  0.2832  0.7725
23634SOL    HW172579   8.913   6.135   5.545  0.0675 -1.8161  3.2288
23634SOL    HW272580   8.901   6.258   5.633  1.2636  2.8321 -2.7634
23635SOL     OW72581   2.633   2.938   6.823  0.0064  1.2467  0.5961
23635SOL    HW172582   2.565   2.960   6.887  0.4547  2.8631  0.5261
23635SOL    HW272583   2.600   2.971   6.740 -1.1211 -1.9092 -0.2915
23636SOL     OW72584   2.125   7.978   8.773 -1.0510 -0.1599  0.2109
23636SOL    HW172585   2.078   7.953   8.853 -1.7647  0.2150 -0.0886
23636SOL    HW272586   2.085   8.061   8.747  0.8105  0.9228  0.7797
23637SOL     OW72587   0.533   3.585   5.694  0.2640 -0.1239  0.0134
23637SOL    HW172588   0.593   3.639   5.644  0.4400  0.9272  1.3182
23637SOL    HW272589   0.578   3.571   5.778 -1.4852  1.0422  1.1725
23638SOL     OW72590   6.298   3.214   5.128  0.3215 -0.0979 -0.2019
23638SOL    HW172591   6.326   3.302   5.153  1.3207 -0.1721 -1.0245
23638SOL    HW272592   6.213   3.227   5.087  1.2858  0.7148 -1.9713
23639SOL     OW72593   5.635   1.705   9.209 -0.0684 -0.4149  0.0149
23639SOL    HW172594   5.548   1.672   9.188 -0.4856 -0.5003  1.7809
23639SOL    HW272595   5.685   1.696   9.128 -1.7374 -0.2370 -1.0456
23640SOL     OW72596   6.451   2.400   3.470  0.4754  0.1946  0.0058
23640SOL    HW172597   6.381   2.462   3.446  0.4765  0.6676  1.1985
23640SOL    HW272598   6.404   2.326   3.508  0.6141  0.4293  0.6315
23641SOL     OW72599   1.991   6.156   3.433  0.4911 -0.0134 -0.4866
23641SOL    HW172600   1.944   6.073   3.421 -3.2442  2.2022 -2.2482
23641SOL    HW272601   1.932   6.210   3.486  2.0340  2.1398 -0.8918
23642SOL     OW72602   6.285   3.850   7.204 -0.2429 -0.0208 -0.2630
23642SOL    HW172603   6.349   3.872   7.137 -0.2976 -0.3376 -0.4198
23642SOL    HW272604   6.316   3.895   7.282  0.9238 -1.2869  0.0198
23643SOL     OW72605   2.924   0.240   4.674  0.1431  0.2905  0.2272
23643SOL    HW172606   2.923   0.320   4.727  0.7358  0.1423  0.4778
23643SOL    HW272607   2.978   0.262   4.598 -0.0561  0.2645  0.0792
23644SOL     OW72608   1.673   3.347   7.303 -0.2018  0.5979  0.5595
23644SOL    HW172609   1.703   3.411   7.368  0.2002  1.7018 -0.6924
23644SOL    HW272610   1.652   3.399   7.226 -0.8843 -0.6807 -0.1296
23645SOL     OW72611   4.178   3.833   5.500 -0.8468  0.6252 -0.1780
23645SOL    HW172612   4.111   3.779   5.542  1.1035 -2.0738 -0.4242
23645SOL    HW272613   4.254   3.827   5.558 -0.1970  2.1157 -0.8480
23646SOL     OW72614   1.947   4.874   0.144  0.2447 -0.3189 -0.6598
23646SOL    HW172615   1.864   4.920   0.128  0.5929  0.6376  0.2061
23646SOL    HW272616   1.921   4.788   0.177 -0.4172  0.5472  1.1660
23647SOL     OW72617   5.748   5.251   2.893 -0.0492  0.0004  0.0701
23647SOL    HW172618   5.759   5.158   2.875 -0.1297  0.4670 -2.7360
23647SOL    HW272619   5.815   5.294   2.838 -0.9449  1.6452  0.2266
23648SOL     OW72620   5.895   6.199   0.007 -0.1216  0.0169  0.3235
23648SOL    HW172621   5.886   6.200   0.103 -1.2113  0.4209  0.2296
23648SOL    HW272622   5.988   6.210  -0.009  0.2233 -1.1922  1.3721
23649SOL     OW72623   7.851   8.617   8.843 -0.5233 -0.0685 -0.2051
23649SOL    HW172624   7.760   8.629   8.817 -0.2713  1.8741 -0.2779
23649SOL    HW272625   7.855   8.649   8.933  0.0587 -0.2526 -0.1641
23650SOL     OW72626   2.345   0.952   1.273  0.1438  0.0078  0.0759
23650SOL    HW172627   2.337   1.011   1.198 -3.0926  0.2551  0.5358
23650SOL    HW272628   2.341   0.864   1.235  3.4250  0.0510 -0.4635
23651SOL     OW72629   0.087   5.932   3.949  0.0487 -0.0519 -0.3308
23651SOL    HW172630   0.012   5.946   4.007  0.6715 -1.5986  0.8788
23651SOL    HW272631   0.147   5.877   4.000  0.3652 -1.9050 -2.6447
23652SOL     OW72632   5.194   1.338   5.800 -0.4102  0.8499  0.1554
23652SOL    HW172633   5.190   1.433   5.796  1.7095  0.9300 -0.6373
23652SOL    HW272634   5.276   1.319   5.847 -1.7957 -0.5804  2.1155
23653SOL     OW72635   8.094   2.492   7.867  0.4115  0.0940  0.4100
23653SOL    HW172636   8.153   2.505   7.792 -0.9917  1.0708 -0.5665
23653SOL    HW272637   8.078   2.581   7.900 -0.0569 -0.2136  1.0187
23654SOL     OW72638   2.465   4.226   8.275  0.0694 -0.2933  0.2118
23654SOL    HW172639   2.449   4.204   8.366  0.1112  0.9311  0.5246
23654SOL    HW272640   2.528   4.160   8.245  0.1558 -0.6205  1.1038
23655SOL     OW72641   7.211   1.484   0.902  0.1371  0.4927  0.2703
23655SOL    HW172642   7.162   1.502   0.982 -1.7613 -1.0192 -0.4946
23655SOL    HW272643   7.295   1.528   0.914 -0.3090  0.6966  2.8611
23656SOL     OW72644   6.741   3.639   4.760  0.2344 -0.6182  0.3523
23656SOL    HW172645   6.801   3.679   4.697 -0.0990 -0.8672 -0.1318
23656SOL    HW272646   6.725   3.708   4.825 -0.0199 -0.0993 -0.2545
23657SOL     OW72647   1.530   4.987   5.201 -0.2415  0.0726 -0.2785
23657SOL    HW172648   1.531   4.981   5.297  0.5791  2.6081 -0.0987
23657SOL    HW272649   1.622   4.983   5.176 -0.4800 -1.0492 -1.0221
23658SOL     OW72650   2.002   6.825   6.322 -0.4787  0.2622  0.0841
23658SOL    HW172651   1.940   6.831   6.395  0.4746 -1.1125  1.0292
23658SOL    HW272652   2.077   6.778   6.358 -0.1541 -0.7779 -1.8838
23659SOL     OW72653   4.234   4.167   4.909 -0.9721 -0.4219  0.2784
23659SOL    HW172654   4.324   4.195   4.895 -1.0126 -0.4738 -0.0821
23659SOL    HW272655   4.210   4.205   4.993 -0.8574  0.2064  0.0285
23660SOL     OW72656   5.329   2.905   4.719 -0.1605  0.0938  0.4717
23660SOL    HW172657   5.415   2.914   4.678 -0.8331 -0.6650 -1.1619
23660SOL    HW272658   5.299   2.994   4.731  1.5325  0.4158  2.5498
23661SOL     OW72659   7.162   4.417   0.540 -0.2832 -0.1670 -0.2372
23661SOL    HW172660   7.156   4.321   0.546  0.1267 -0.0563  3.2365
23661SOL    HW272661   7.078   4.448   0.574 -0.9306  0.7329 -2.5853
23662SOL     OW72662   8.623   5.753   4.464 -0.9031 -0.1808 -0.3062
23662SOL    HW172663   8.715   5.731   4.480  0.2106  2.8957 -2.1203
23662SOL    HW272664   8.594   5.691   4.398  0.1094 -0.6364 -0.3281
23663SOL     OW72665   5.312   2.723   2.010 -0.1713 -0.0747 -0.2247
23663SOL    HW172666   5.301   2.813   1.980  0.8569  0.1493  0.0257
23663SOL    HW272667   5.298   2.728   2.105 -2.4256 -0.6003 -0.5179
23664SOL     OW72668   1.827   3.604   3.613  0.1126  0.4521  0.0641
23664SOL    HW172669   1.788   3.639   3.533  0.1201 -1.3161 -0.7272
23664SOL    HW272670   1.919   3.587   3.590  0.2705  0.5079  0.6269
23665SOL     OW72671   6.808   8.719   2.919  0.1877 -0.5835 -0.2862
23665SOL    HW172672   6.756   8.649   2.958 -1.6652  0.8034 -0.1793
23665SOL    HW272673   6.807   8.700   2.825 -0.8330 -0.3819 -0.3220
23666SOL     OW72674   0.417   4.122   5.407 -0.1018 -0.0623 -0.0187
23666SOL    HW172675   0.329   4.155   5.426  0.3049  1.0928 -0.0657
23666SOL    HW272676   0.427   4.130   5.312 -0.1975 -0.8499 -0.1002
23667SOL     OW72677   1.137   5.108   3.274 -0.0232 -0.1705 -0.0459
23667SOL    HW172678   1.088   5.027   3.285 -1.5736  0.7872  0.2245
23667SOL    HW272679   1.137   5.149   3.361  0.1887  0.4349 -0.3258
23668SOL     OW72680   5.805   5.371   2.478 -0.3967 -0.2314  1.1597
23668SOL    HW172681   5.726   5.318   2.471  1.1833 -2.5802  0.1884
23668SOL    HW272682   5.803   5.428   2.401 -0.3051 -1.5532  0.1423
23669SOL     OW72683   5.462   7.837   7.792 -0.2951 -0.2200  0.2246
23669SOL    HW172684   5.464   7.822   7.698  0.3880  0.8315  0.0562
23669SOL    HW272685   5.371   7.823   7.817 -0.2312 -1.8459 -0.3502
23670SOL     OW72686   2.268   6.622   4.365  0.3645  0.1603 -0.2139
23670SOL    HW172687   2.295   6.598   4.454  0.7799 -1.6959 -0.8088
23670SOL    HW272688   2.348   6.613   4.313  0.2736  1.8745 -0.6611
23671SOL     OW72689   5.039   2.415   7.663  0.0978 -0.2510  0.7335
23671SOL    HW172690   4.955   2.436   7.621  1.2575  1.7538 -0.6679
23671SOL    HW272691   5.061   2.494   7.712  0.7207 -1.1175  1.8784
23672SOL     OW72692   1.778   1.665   7.062  1.5369  0.5802 -0.3300
23672SOL    HW172693   1.785   1.671   6.967  2.5726  1.0733 -0.2318
23672SOL    HW272694   1.757   1.573   7.078  1.3668  0.4895 -1.0284
23673SOL     OW72695   1.758   8.760   6.257 -0.2906 -0.0540  0.0051
23673SOL    HW172696   1.828   8.743   6.194  0.0326 -0.8675  0.5676
23673SOL    HW272697   1.682   8.783   6.204 -0.3403 -1.8527 -0.7244
23674SOL     OW72698   0.336   2.315   2.448  0.2897 -0.3150 -0.4682
23674SOL    HW172699   0.298   2.337   2.533 -0.7568  1.5956 -1.3896
23674SOL    HW272700   0.269   2.263   2.404  0.1759  0.0592 -0.7392
23675SOL     OW72701   3.005   4.691   2.168 -0.1200  0.3023  0.6156
23675SOL    HW172702   3.074   4.663   2.227  0.3344 -1.2617 -0.6330
23675SOL    HW272703   3.035   4.776   2.135  0.9462 -0.1162  0.4986
23676SOL     OW72704   5.037   8.010   0.747 -0.3308  0.0492 -0.3328
23676SOL    HW172705   5.046   7.994   0.653 -0.4235 -1.8187 -0.0349
23676SOL    HW272706   5.087   8.091   0.762  1.3608 -0.6989 -1.6613
23677SOL     OW72707   2.016   1.576   6.258 -0.4707 -0.1957  0.2555
23677SOL    HW172708   1.986   1.498   6.306  0.8743 -0.2502  1.0287
23677SOL    HW272709   1.964   1.647   6.294 -1.5105 -0.6762 -0.2547
23678SOL     OW72710   4.808   1.402   3.514  0.0418 -0.2625  1.1226
23678SOL    HW172711   4.885   1.459   3.510 -0.2233  0.2054  2.4583
23678SOL    HW272712   4.782   1.390   3.423  1.5356 -0.2070  0.6751
23679SOL     OW72713   3.122   3.392   3.015 -0.1669  0.3457  0.2990
23679SOL    HW172714   3.080   3.368   3.098 -0.8793 -2.2779 -0.8059
23679SOL    HW272715   3.157   3.310   2.981  3.1767  1.9572 -0.3526
23680SOL     OW72716   6.193   4.716   2.874  0.6546  0.5580  0.4651
23680SOL    HW172717   6.158   4.632   2.846 -0.9067  1.3505 -0.0334
23680SOL    HW272718   6.285   4.699   2.892 -0.2229 -1.8355  2.9536
23681SOL     OW72719   8.327   6.143   2.815 -0.2439 -0.0381  0.4071
23681SOL    HW172720   8.271   6.075   2.853  0.5657  0.5971  2.8306
23681SOL    HW272721   8.289   6.160   2.729 -3.2662 -0.2354  1.6408
23682SOL     OW72722   8.636   8.995   0.433 -0.5849  0.0259 -0.3176
23682SOL    HW172723   8.678   9.006   0.518 -1.2560 -0.1643  0.0428
23682SOL    HW272724   8.629   8.900   0.422 -1.2888  0.0580 -0.1837
23683SOL     OW72725   6.331   5.202   6.540 -0.1919  0.1414  0.7120
23683SOL    HW172726   6.247   5.245   6.557 -0.0977  1.0376 -1.0003
23683SOL    HW272727   6.382   5.267   6.493  0.8983 -0.9618  0.3484
23684SOL     OW72728   4.110   7.678   8.065 -0.3099  0.2541  0.0364
23684SOL    HW172729   4.202   7.664   8.044 -0.4538  1.5055 -1.5430
23684SOL    HW272730   4.110   7.722   8.149  0.5105 -0.1609  0.2573
23685SOL     OW72731   3.395   7.369   3.556 -0.0330 -0.1797 -0.1537
23685SOL    HW172732   3.485   7.396   3.570  0.1290 -0.8884  0.1973
23685SOL    HW272733   3.401   7.301   3.489 -0.5852  1.7021 -2.1744
23686SOL     OW72734   6.903   3.850   0.541 -0.6245  0.4725 -0.5454
23686SOL    HW172735   6.927   3.890   0.458  0.6965  0.2977 -0.2581
23686SOL    HW272736   6.909   3.922   0.605  1.3110 -0.0463 -0.1057
23687SOL     OW72737   5.650   7.006   2.775  0.1190 -0.0267  0.4583
23687SOL    HW172738   5.667   6.920   2.736 -0.8404  0.0362 -0.0967
23687SOL    HW272739   5.605   6.986   2.857  0.8426 -0.0973  0.8401
23688SOL     OW72740   0.105   6.368   6.185  0.0683 -0.1547 -0.0558
23688SOL    HW172741   0.131   6.283   6.220  1.5645  0.1301 -0.4755
23688SOL    HW272742   0.165   6.431   6.226 -0.5833  0.6282 -0.2802
23689SOL     OW72743   4.552   3.049   6.551  0.0488  0.5197 -0.2043
23689SOL    HW172744   4.543   3.002   6.634 -0.8213  1.6348  0.3325
23689SOL    HW272745   4.481   3.015   6.496 -2.4452  3.2902  1.1897
23690SOL     OW72746   6.115   5.620   8.701 -0.0886 -0.8412  0.1355
23690SOL    HW172747   6.160   5.614   8.786 -2.3703  1.0874  1.5389
23690SOL    HW272748   6.026   5.591   8.719 -0.8190  0.3764 -1.4248
23691SOL     OW72749   5.210   0.920   1.120 -0.4713 -0.4915  0.2536
23691SOL    HW172750   5.127   0.876   1.101 -0.7700  0.4733 -0.7156
23691SOL    HW272751   5.277   0.860   1.088 -0.8858 -0.1151 -1.3603
23692SOL     OW72752   3.858   5.712   5.517  0.2173 -0.2727  0.0688
23692SOL    HW172753   3.843   5.655   5.592 -1.5930  1.5550  1.1416
23692SOL    HW272754   3.772   5.723   5.477  0.7845  0.5786 -0.9394
23693SOL     OW72755   1.329   0.995   9.026 -0.2035  0.2801 -0.1861
23693SOL    HW172756   1.400   0.934   9.006 -1.8106 -1.3712 -0.9554
23693SOL    HW272757   1.318   0.988   9.121 -0.5435 -0.8134 -0.3007
23694SOL     OW72758   3.356   5.175   1.537  0.2425 -0.0235  0.2288
23694SOL    HW172759   3.315   5.237   1.598  2.1567 -0.9483  2.5433
23694SOL    HW272760   3.450   5.189   1.548  0.6497 -1.5633 -1.0999
23695SOL     OW72761   4.649   8.748   4.214  0.0715 -0.3451  0.0128
23695SOL    HW172762   4.643   8.843   4.212  2.4188 -0.1471  1.1039
23695SOL    HW272763   4.625   8.724   4.304  0.2068 -0.7401 -0.0555
23696SOL     OW72764   7.219   7.627   3.331 -0.1812 -0.0122  0.1079
23696SOL    HW172765   7.255   7.678   3.258  1.0572 -1.0069  0.0085
23696SOL    HW272766   7.145   7.579   3.293  1.3201 -1.6138 -0.8617
23697SOL     OW72767   5.687   0.444   2.225 -0.1371 -0.1529 -0.0871
23697SOL    HW172768   5.672   0.533   2.258  0.6822 -0.5762  1.4346
23697SOL    HW272769   5.756   0.409   2.281  0.7211 -1.1661 -1.7566
23698SOL     OW72770   8.886   7.327   9.280 -0.7726 -0.6283 -0.4547
23698SOL    HW172771   8.792   7.322   9.265 -0.4833 -2.7296 -1.7342
23698SOL    HW272772   8.900   7.281   9.363 -0.8928  0.0597 -0.0414
23699SOL     OW72773   6.374   8.898   2.745  0.2667 -0.2879  0.5069
23699SOL    HW172774   6.289   8.855   2.731 -0.4468  1.1832  0.2184
23699SOL    HW272775   6.358   8.960   2.816  1.1913 -0.2236  0.6650
23700SOL     OW72776   3.937   8.495   5.791  0.0036 -0.3491  0.0511
23700SOL    HW172777   3.926   8.572   5.846  2.7971  0.9499 -1.0721
23700SOL    HW272778   3.922   8.527   5.702 -1.3416 -1.7099 -0.2325
23701SOL     OW72779   2.764   3.660   9.217  0.6081 -0.3561 -0.1281
23701SOL    HW172780   2.780   3.686   9.126 -1.2543  0.3842 -0.2684
23701SOL    HW272781   2.680   3.615   9.214 -0.1732  0.9797  1.4725
23702SOL     OW72782   1.261   9.025   8.063  0.0219  0.4090  0.8114
23702SOL    HW172783   1.183   9.065   8.104 -0.4632  1.4194 -1.0439
23702SOL    HW272784   1.332   9.045   8.124 -0.7495  1.5355  1.3713
23703SOL     OW72785   4.680   8.065   6.609 -0.2290 -0.2431 -0.2899
23703SOL    HW172786   4.761   8.113   6.623  0.1274 -0.7202 -0.7205
23703SOL    HW272787   4.643   8.101   6.529 -0.2488 -0.2892 -0.3012
23704SOL     OW72788   2.366   2.100   7.838 -0.3811 -0.4070 -0.4888
23704SOL    HW172789   2.354   2.083   7.932  2.3146 -0.0599 -0.0611
23704SOL    HW272790   2.295   2.161   7.816 -0.7971 -0.1667  1.4293
23705SOL     OW72791   8.697   6.591   6.217 -0.4871 -0.0857 -0.0970
23705SOL    HW172792   8.671   6.524   6.154 -1.1256 -0.9898  1.1012
23705SOL    HW272793   8.781   6.560   6.251  1.1504  1.7265 -2.3765
23706SOL     OW72794   4.573   6.208   3.639 -0.7448  0.1292 -0.2287
23706SOL    HW172795   4.620   6.173   3.563 -0.8553  0.8079 -0.6117
23706SOL    HW272796   4.631   6.193   3.713 -0.3503  0.0693 -0.5507
23707SOL     OW72797   0.937   1.760   5.413  0.9081 -0.5364 -0.3983
23707SOL    HW172798   0.932   1.719   5.500 -0.3881  2.6874  1.1123
23707SOL    HW272799   1.028   1.748   5.387  1.5099 -0.9412  1.7307
23708SOL     OW72800   8.338   4.020   2.796 -0.2613  0.0411 -0.2766
23708SOL    HW172801   8.369   4.037   2.885  0.4827  0.2710 -0.5785
23708SOL    HW272802   8.341   3.925   2.786 -1.5484 -0.0793  0.3744
23709SOL     OW72803   2.703   5.430   4.271  0.0716  0.5390  0.3041
23709SOL    HW172804   2.663   5.343   4.276 -0.0116  0.6259  1.3502
23709SOL    HW272805   2.657   5.473   4.199 -0.6369  0.0925  0.4828
23710SOL     OW72806   1.835   2.907   8.416  0.1235  0.5385  0.6748
23710SOL    HW172807   1.744   2.881   8.428  0.3638 -0.7394 -0.2127
23710SOL    HW272808   1.877   2.885   8.500 -0.1025 -0.0943  0.6245
23711SOL     OW72809   6.089   6.307   1.338  0.5356  0.6699  0.4999
23711SOL    HW172810   6.016   6.267   1.291  2.0195 -1.5634  0.0246
23711SOL    HW272811   6.132   6.363   1.272  0.0161  0.9931  0.4320
23712SOL     OW72812   3.211   0.954   3.334 -0.3620  0.4539  0.0316
23712SOL    HW172813   3.221   1.032   3.279 -0.1059  0.5020  0.1473
23712SOL    HW272814   3.178   0.887   3.274  2.0170 -0.1026 -0.6776
23713SOL     OW72815   3.026   8.846   3.303  0.0557 -0.1209  0.0635
23713SOL    HW172816   2.988   8.928   3.334  1.9430  0.6066  0.5085
23713SOL    HW272817   3.120   8.857   3.314  0.5060 -1.4504 -2.0655
23714SOL     OW72818   6.449   7.494   2.944  0.3921 -0.0531 -1.0803
23714SOL    HW172819   6.522   7.446   2.905  1.4695  1.3041 -0.7854
23714SOL    HW272820   6.482   7.522   3.029 -0.0180  1.6680 -1.4726
23715SOL     OW72821   6.828   3.206   0.254 -0.0093  0.0917  0.3865
23715SOL    HW172822   6.877   3.269   0.202 -0.6250 -0.4485 -0.8528
23715SOL    HW272823   6.892   3.139   0.277  0.1651  0.1134 -0.0321
23716SOL     OW72824   8.464   7.101   5.173 -0.6260  0.4229  0.4210
23716SOL    HW172825   8.549   7.062   5.193 -1.0830 -2.3140 -2.6086
23716SOL    HW272826   8.484   7.173   5.113 -0.3070  1.0842  1.3068
23717SOL     OW72827   2.925   5.625   0.375 -0.1207  0.0880  0.0879
23717SOL    HW172828   2.887   5.558   0.318  1.0454  0.9062 -1.6692
23717SOL    HW272829   3.003   5.583   0.412 -1.7873 -1.0448  2.4893
23718SOL     OW72830   4.664   8.674   5.482  0.7036 -0.2042 -0.6157
23718SOL    HW172831   4.616   8.591   5.490  0.8148 -0.1240  1.2609
23718SOL    HW272832   4.627   8.716   5.405 -0.7424 -1.1194 -0.4565
23719SOL     OW72833   3.046   3.380   3.297  0.1030  0.4671  0.1050
23719SOL    HW172834   2.963   3.337   3.275 -0.4325  1.1684  0.7272
23719SOL    HW272835   3.103   3.309   3.324 -0.3923  0.0067 -0.0414
23720SOL     OW72836   5.094   8.189   6.215 -0.1962  0.1600  0.7030
23720SOL    HW172837   5.050   8.137   6.148  1.1174  1.3514 -1.1131
23720SOL    HW272838   5.030   8.255   6.241 -0.7307 -0.3484  0.6847
23721SOL     OW72839   1.774   4.606   2.999 -0.2403 -0.2353 -0.2728
23721SOL    HW172840   1.796   4.587   3.090 -1.5099 -0.6821 -0.0408
23721SOL    HW272841   1.857   4.602   2.952  0.3897 -0.2308  0.8302
23722SOL     OW72842   7.207   3.125   5.579 -0.0635 -0.3744 -0.1055
23722SOL    HW172843   7.224   3.137   5.486  2.5009 -0.0229  0.3795
23722SOL    HW272844   7.116   3.152   5.590 -0.3783 -0.3540 -2.4855
23723SOL     OW72845   4.920   2.359   0.891 -0.8455  0.1864 -0.3634
23723SOL    HW172846   4.968   2.342   0.972  0.8673 -2.1789 -1.7977
23723SOL    HW272847   4.934   2.452   0.875  0.4313  0.2709  1.0546
23724SOL     OW72848   7.910   8.203   4.872 -0.5238  0.0831  0.1609
23724SOL    HW172849   7.822   8.199   4.835 -0.2118 -0.3688 -0.5328
23724SOL    HW272850   7.904   8.153   4.954 -0.8690 -0.0964  0.0261
23725SOL     OW72851   4.839   0.869   0.443  0.3587 -0.1600 -0.3520
23725SOL    HW172852   4.812   0.957   0.416 -0.8121 -0.3766  0.0548
23725SOL    HW272853   4.933   0.866   0.426  0.7263  1.7253  1.2063
23726SOL     OW72854   8.759   6.393   8.589  0.3368  0.0622  0.1829
23726SOL    HW172855   8.846   6.366   8.560  0.8547  1.4685  0.3915
23726SOL    HW272856   8.717   6.428   8.510  0.2528  0.1254  0.2554
23727SOL     OW72857   8.604   0.492   8.043 -0.2252 -0.1110 -0.1595
23727SOL    HW172858   8.698   0.497   8.028  0.1722 -2.0295  1.4226
23727SOL    HW272859   8.580   0.404   8.014 -1.1125 -0.4438  1.4937
23728SOL     OW72860   9.208   1.875   6.307  0.2773 -0.0903  0.1127
23728SOL    HW172861   9.273   1.809   6.331  1.1870  0.7670  0.0237
23728SOL    HW272862   9.137   1.864   6.370  1.0019 -0.2937  0.8966
23729SOL     OW72863   3.758   5.030   6.125  0.0663  0.6195  0.0655
23729SOL    HW172864   3.811   4.999   6.199 -0.5258  1.6168  0.9254
23729SOL    HW272865   3.668   5.024   6.155 -0.3718 -1.5881 -1.6017
23730SOL     OW72866   7.540   1.873   7.516 -0.9163 -0.4511  0.3106
23730SOL    HW172867   7.450   1.887   7.545 -0.2257 -0.7817  2.7860
23730SOL    HW272868   7.562   1.785   7.548  0.8156  0.3006  1.2698
23731SOL     OW72869   1.190   5.018   1.974  0.3517  0.3682  0.4041
23731SOL    HW172870   1.101   5.053   1.976  0.1875 -0.0085 -0.3261
23731SOL    HW272871   1.226   5.047   1.890  0.1769 -1.2815 -0.2597
23732SOL     OW72872   9.041   1.900   3.980 -0.2879  0.0971  0.3154
23732SOL    HW172873   9.079   1.842   4.046  1.3040  0.6791 -0.0586
23732SOL    HW272874   8.952   1.867   3.967 -0.3697 -0.4752  2.2040
23733SOL     OW72875   2.960   7.637   8.251 -0.1010  0.2450 -0.3653
23733SOL    HW172876   2.920   7.716   8.214 -0.9930 -0.3533 -0.6889
23733SOL    HW272877   2.990   7.587   8.175 -1.9664 -1.0008 -0.3129
23734SOL     OW72878   3.475   0.638   1.822  0.3045  0.4286  0.2556
23734SOL    HW172879   3.536   0.567   1.840 -0.4639 -0.3478 -0.2037
23734SOL    HW272880   3.503   0.673   1.737 -0.4441 -0.5053 -0.3738
23735SOL     OW72881   0.822   7.842   1.574 -0.5195  0.1979  0.9441
23735SOL    HW172882   0.783   7.755   1.577  1.2908 -0.6133  0.9628
23735SOL    HW272883   0.905   7.833   1.621  0.4822  1.5199 -0.5587
23736SOL     OW72884   8.514   9.234   7.254 -0.1870  0.0615  0.1741
23736SOL    HW172885   8.506   9.141   7.275  0.9111  0.4081  2.2351
23736SOL    HW272886   8.570   9.237   7.177  0.2833 -0.9595  0.4761
23737SOL     OW72887   1.679   6.945   8.602  0.5437 -0.2995 -0.4959
23737SOL    HW172888   1.628   6.889   8.544  0.6938 -0.1315 -0.7963
23737SOL    HW272889   1.654   6.919   8.690 -1.6326  1.2276 -0.6401
23738SOL     OW72890   5.255   6.561   8.308 -0.2618 -0.0710  0.5458
23738SOL    HW172891   5.252   6.635   8.248  0.1337  0.5540  1.2964
23738SOL    HW272892   5.348   6.552   8.331 -0.2518 -1.0531  0.1415
23739SOL     OW72893   4.333   4.713   3.856  0.1438 -0.4636  0.4055
23739SOL    HW172894   4.427   4.726   3.856 -0.0490  1.0639 -1.4216
23739SOL    HW272895   4.309   4.712   3.949  1.9005 -0.6561  0.8707
23740SOL     OW72896   2.026   1.020   7.109 -0.0665  0.4283  0.4439
23740SOL    HW172897   2.086   0.947   7.118 -1.1441 -0.5838 -0.4378
23740SOL    HW272898   2.039   1.051   7.019 -0.7934  0.2649  0.2806
23741SOL     OW72899   4.619   8.642   4.478 -0.1506  0.3143 -0.3640
23741SOL    HW172900   4.585   8.553   4.490  1.4499 -0.0054  2.1444
23741SOL    HW272901   4.575   8.694   4.546  0.2956  1.0689 -0.6444
23742SOL     OW72902   7.826   5.482   0.075 -0.0332  0.2347  0.2312
23742SOL    HW172903   7.734   5.506   0.087  0.5462  2.2959  0.7992
23742SOL    HW272904   7.850   5.521  -0.009  1.0258  2.0470  1.3341
23743SOL     OW72905   4.314   2.495   1.288  0.0260 -0.5414 -0.4898
23743SOL    HW172906   4.345   2.523   1.202 -0.6217 -0.2062 -0.6149
23743SOL    HW272907   4.232   2.542   1.301  0.9552  0.7172  1.0437
23744SOL     OW72908   8.481   0.047   0.538  0.1044  0.1327 -0.1213
23744SOL    HW172909   8.516   0.014   0.620 -1.4528  1.6030  1.1866
23744SOL    HW272910   8.387   0.030   0.544  0.0151  0.0261 -1.7121
23745SOL     OW72911   7.047   7.193   2.921 -0.7242 -0.7388  0.5466
23745SOL    HW172912   7.042   7.267   2.861  2.6560  0.2667  1.3739
23745SOL    HW272913   7.095   7.126   2.873 -1.4981 -1.4219  0.7171
23746SOL     OW72914   5.506   3.282   0.208 -0.5294 -0.5808 -0.4408
23746SOL    HW172915   5.412   3.297   0.200 -0.1698  1.1377 -1.8738
23746SOL    HW272916   5.534   3.258   0.120  0.5251 -0.1306 -0.2308
23747SOL     OW72917   5.746   3.294   7.855 -0.0604 -0.5212  0.7321
23747SOL    HW172918   5.667   3.240   7.843  0.5215 -1.6546  1.8054
23747SOL    HW272919   5.713   3.379   7.884 -0.9029 -0.9697  1.1142
23748SOL     OW72920   6.152   2.156   3.681 -0.0331  0.2126  0.4558
23748SOL    HW172921   6.145   2.062   3.701 -1.7400  0.3059  0.4123
23748SOL    HW272922   6.246   2.172   3.674  0.3209 -1.2750  1.4988
23749SOL     OW72923   3.008   6.819   8.837  0.2621 -0.1426 -0.4236
23749SOL    HW172924   3.064   6.743   8.820 -0.6948 -0.7683 -0.8511
23749SOL    HW272925   2.920   6.782   8.845 -0.0168  0.7722  0.7557
23750SOL     OW72926   2.163   2.948   5.136  0.1314  0.1761 -0.3114
23750SOL    HW172927   2.078   2.991   5.138 -0.2945 -0.6828  0.6694
23750SOL    HW272928   2.188   2.939   5.228  1.7929  1.4026 -0.6254
23751SOL     OW72929   7.124   6.698   2.220 -0.0636  0.0044 -0.0912
23751SOL    HW172930   7.160   6.616   2.253  1.3799  0.3832 -0.7113
23751SOL    HW272931   7.099   6.746   2.299  0.9092 -0.2115  0.3578
23752SOL     OW72932   7.250   5.557   3.814  0.0793 -0.4118  0.3228
23752SOL    HW172933   7.236   5.547   3.720  1.6701  0.3443 -0.0144
23752SOL    HW272934   7.251   5.467   3.848  0.8510 -0.7524 -0.5841
23753SOL     OW72935   2.826   0.444   2.310 -0.3560 -0.3170  0.2519
23753SOL    HW172936   2.776   0.425   2.231 -0.9925 -1.2478  0.8512
23753SOL    HW272937   2.777   0.514   2.353  0.6042  0.9570 -0.7251
23754SOL     OW72938   9.040   7.139   7.541 -0.0317  0.6305  0.1747
23754SOL    HW172939   8.951   7.175   7.534 -0.1652  0.4239  0.7706
23754SOL    HW272940   9.094   7.215   7.562  0.2829  1.1445 -2.3409
23755SOL     OW72941   8.381   6.168   7.501 -0.3031  0.3115 -0.0413
23755SOL    HW172942   8.466   6.158   7.458 -1.4475 -1.2197 -2.0904
23755SOL    HW272943   8.398   6.221   7.578  2.1872  1.5910 -1.4158
23756SOL     OW72944   2.698   4.552   3.147 -0.4352 -0.0063 -0.3443
23756SOL    HW172945   2.757   4.492   3.101 -1.5728  0.0046 -1.8650
23756SOL    HW272946   2.631   4.494   3.184 -0.6586  0.1768 -0.4634
23757SOL     OW72947   1.251   0.789   1.926 -0.0050 -0.6451  0.1143
23757SOL    HW172948   1.242   0.721   1.993 -0.0493 -0.6372  0.1167
23757SOL    HW272949   1.339   0.777   1.892 -0.4963 -1.6284 -0.8692
23758SOL     OW72950   2.882   7.409   5.603  0.2729  0.4650  0.3043
23758SOL    HW172951   2.959   7.450   5.643  0.3560 -0.4979  1.1461
23758SOL    HW272952   2.815   7.413   5.671  0.0080  0.0121  0.0700
23759SOL     OW72953   2.329   4.645   6.511 -0.2326  0.4815 -0.3193
23759SOL    HW172954   2.349   4.733   6.478  1.0337  0.1343 -0.5138
23759SOL    HW272955   2.263   4.612   6.451 -0.7305  1.3069 -0.2381
23760SOL     OW72956   0.027   9.125   0.635  0.0153  0.1917  0.0868
23760SOL    HW172957  -0.018   9.137   0.551  0.5982  1.9610  0.0115
23760SOL    HW272958  -0.043   9.110   0.698 -0.6595  1.9630 -0.1983
23761SOL     OW72959   6.562   2.788   0.510  0.7332 -0.2120 -0.1268
23761SOL    HW172960   6.572   2.766   0.603 -1.5807  1.3945  0.5412
23761SOL    HW272961   6.507   2.719   0.475  0.4590 -0.0738  0.0280
23762SOL     OW72962   2.745   7.886   3.089  0.1309 -0.0203 -0.5309
23762SOL    HW172963   2.764   7.793   3.101  1.5205  0.1661 -1.2009
23762SOL    HW272964   2.823   7.931   3.120  0.8205  0.7732 -3.2752
23763SOL     OW72965   7.578   3.939   2.475 -0.2842  0.2829  0.3199
23763SOL    HW172966   7.630   3.859   2.486  0.4548  0.8345  0.9619
23763SOL    HW272967   7.565   3.946   2.380  0.3992 -0.1352  0.1886
23764SOL     OW72968   7.719   9.163   2.146 -0.1398 -0.0104 -0.1184
23764SOL    HW172969   7.785   9.139   2.081 -1.3985 -0.8468 -1.1312
23764SOL    HW272970   7.751   9.126   2.228  0.4835 -0.7063 -0.6654
23765SOL     OW72971   2.217   3.725   1.981 -0.4328  0.3680 -0.4505
23765SOL    HW172972   2.263   3.685   1.907 -0.2469 -0.2661  0.0003
23765SOL    HW272973   2.246   3.816   1.981  0.1172  0.1962 -0.7272
23766SOL     OW72974   4.659   3.131   3.002 -0.1425  0.3815 -0.3952
23766SOL    HW172975   4.602   3.120   2.926  1.3681  1.3698 -1.7087
23766SOL    HW272976   4.742   3.092   2.976 -0.1387 -0.8766  1.4257
23767SOL     OW72977   8.842   0.069   3.871  0.8152  0.0730  0.0419
23767SOL    HW172978   8.897  -0.007   3.852 -0.5936 -0.8938 -0.2831
23767SOL    HW272979   8.759   0.050   3.827 -0.4952  0.5405  2.2359
23768SOL     OW72980   1.043   6.939   0.169 -0.7382 -0.0951  0.5789
23768SOL    HW172981   1.076   7.026   0.146 -1.8290  0.4100  0.8797
23768SOL    HW272982   1.026   6.944   0.263 -0.2344 -0.8299  0.7109
23769SOL     OW72983   4.962   6.704   3.966  0.2145 -0.4652  0.4395
23769SOL    HW172984   5.026   6.760   4.010  1.7664 -1.4015 -0.5760
23769SOL    HW272985   4.946   6.747   3.882  0.0637 -0.6137  0.3912
23770SOL     OW72986   6.381   2.688   9.031 -0.0675  0.1268  0.1800
23770SOL    HW172987   6.460   2.723   8.989 -0.8140  1.9976  0.2869
23770SOL    HW272988   6.404   2.684   9.124  0.4679 -0.9307  0.0103
23771SOL     OW72989   8.132   9.249   2.058  0.5642  0.1413 -0.1745
23771SOL    HW172990   8.088   9.330   2.086 -0.0138 -0.5130  0.8524
23771SOL    HW272991   8.128   9.251   1.963 -0.9376  0.5085 -0.1184
23772SOL     OW72992   3.543   1.922   6.225  0.1999  0.2189  0.0658
23772SOL    HW172993   3.574   1.867   6.298 -1.6098  0.5047  1.0802
23772SOL    HW272994   3.451   1.897   6.214 -1.0154  3.9050  1.3398
23773SOL     OW72995   0.496   3.586   6.309  0.7133 -0.5573  0.2116
23773SOL    HW172996   0.436   3.600   6.236  1.3829  0.8379 -0.0877
23773SOL    HW272997   0.440   3.557   6.381 -0.4801  1.6854  0.2457
23774SOL     OW72998   4.912   3.326   2.969 -0.6101  0.1838 -0.5175
23774SOL    HW172999   4.876   3.342   2.882  0.2800 -0.0533 -0.9352
23774SOL    HW273000   4.922   3.413   3.008  1.7927  0.5305 -1.8039
23775SOL     OW73001   6.751   5.367   7.035 -0.4941 -0.1114 -0.3272
23775SOL    HW173002   6.705   5.302   6.982  0.0622  0.0499 -1.0057
23775SOL    HW273003   6.723   5.451   7.000  0.2878 -0.0135 -0.7017
23776SOL     OW73004   3.916   7.562   4.013  0.3176  0.8336  0.5056
23776SOL    HW173005   3.915   7.479   3.965  0.9025  0.7198  0.6792
23776SOL    HW273006   3.959   7.541   4.096 -0.5826  1.0559  1.0370
23777SOL     OW73007   4.795   1.185   8.171  0.5542 -0.0651  0.0994
23777SOL    HW173008   4.764   1.270   8.141 -0.2298 -0.1458  0.6817
23777SOL    HW273009   4.776   1.184   8.265 -0.0388 -1.1417 -0.0204
23778SOL     OW73010   3.975   5.175   3.660  0.5522 -0.1853 -0.8077
23778SOL    HW173011   4.043   5.109   3.643  1.8723  1.3167 -1.4821
23778SOL    HW273012   3.920   5.173   3.582 -0.4320 -1.6705 -0.1034
23779SOL     OW73013   7.063   9.160   5.390  0.3103 -0.6418 -0.2851
23779SOL    HW173014   7.150   9.191   5.416  0.9646 -0.7861 -2.2114
23779SOL    HW273015   7.022   9.236   5.349  0.1229 -1.0160 -0.7925
23780SOL     OW73016   3.882   8.750   2.611 -0.0837 -0.3004  0.2591
23780SOL    HW173017   3.808   8.770   2.553  0.3677  0.0900 -0.1898
23780SOL    HW273018   3.925   8.834   2.624  1.6497 -0.8959 -1.3876
23781SOL     OW73019   0.020   2.248   5.142  0.4345  0.1362  0.0719
23781SOL    HW173020   0.053   2.290   5.222  0.4633  0.0713  0.0943
23781SOL    HW273021   0.097   2.243   5.085  0.5684 -0.4210  0.2952
23782SOL     OW73022   7.739   2.390   6.344 -0.2005 -0.2700 -0.0594
23782SOL    HW173023   7.671   2.324   6.356  0.9542 -1.6331 -0.8163
23782SOL    HW273024   7.796   2.379   6.421 -0.9154  0.9886  0.6665
23783SOL     OW73025   3.750   3.411   4.355 -0.2213  0.2141 -1.1305
23783SOL    HW173026   3.778   3.330   4.396  2.4454  0.5152 -2.2327
23783SOL    HW273027   3.669   3.388   4.310 -0.8790 -1.1654  0.6994
23784SOL     OW73028   7.388   7.724   4.157 -0.7280 -0.1427 -0.4549
23784SOL    HW173029   7.363   7.771   4.077 -1.4229 -1.1992 -0.8835
23784SOL    HW273030   7.304   7.706   4.200 -0.5647 -1.8291 -0.8016
23785SOL     OW73031   9.032   6.246   3.074 -0.2798 -0.3169  0.2889
23785SOL    HW173032   8.953   6.235   3.127 -1.1883  0.4759 -0.8745
23785SOL    HW273033   9.002   6.241   2.984  1.0697 -0.4027 -0.1734
23786SOL     OW73034   0.734   6.158   5.672 -0.2681 -0.2208 -0.0387
23786SOL    HW173035   0.674   6.196   5.736 -0.2292 -1.2089  0.5978
23786SOL    HW273036   0.744   6.066   5.699 -0.6320 -0.7943 -1.7371
23787SOL     OW73037   7.969   6.299   0.823 -0.3795  0.0865 -0.0841
23787SOL    HW173038   7.974   6.375   0.765 -1.1476  1.1107  1.1407
23787SOL    HW273039   8.002   6.332   0.907  2.1838 -1.7754 -0.3095
23788SOL     OW73040   1.472   1.149   1.258  0.5080 -0.1934 -0.1988
23788SOL    HW173041   1.498   1.221   1.316 -0.0358  0.9341 -1.3287
23788SOL    HW273042   1.499   1.070   1.305  0.9779  0.7310  1.1370
23789SOL     OW73043   7.793   6.231   7.923 -0.2861  0.1860 -0.0165
23789SOL    HW173044   7.775   6.317   7.961 -3.0372 -1.1280  1.8531
23789SOL    HW273045   7.883   6.211   7.948 -0.0115  2.0190  0.5100
23790SOL     OW73046   2.276   2.785   3.342 -0.2285 -0.4103 -0.3456
23790SOL    HW173047   2.233   2.703   3.318 -1.2992 -0.3003  1.0711
23790SOL    HW273048   2.228   2.853   3.295  1.2199 -0.6491 -2.2142
23791SOL     OW73049   1.371   1.057   2.206  0.1633  0.3870  0.2503
23791SOL    HW173050   1.305   1.122   2.182 -0.5877 -0.7346 -0.8022
23791SOL    HW273051   1.440   1.068   2.141 -0.1624 -0.1469 -0.1907
23792SOL     OW73052   8.049   3.100   9.167  0.1525  0.3309 -0.0934
23792SOL    HW173053   8.020   3.127   9.079  0.7542  0.3474 -0.2866
23792SOL    HW273054   8.118   3.162   9.189  1.7951 -1.2573 -0.6882
23793SOL     OW73055   3.184   1.862   3.985 -0.0542 -0.5103  0.4634
23793SOL    HW173056   3.261   1.918   3.975 -0.2968 -0.2325  0.1138
23793SOL    HW273057   3.110   1.924   3.991 -0.6152 -0.8447 -2.5485
23794SOL     OW73058   5.178   7.482   7.006  0.1880  0.4983  0.1194
23794SOL    HW173059   5.158   7.451   7.095  0.4342 -1.7357 -0.5762
23794SOL    HW273060   5.273   7.495   7.007  0.4449 -1.2542 -0.3235
23795SOL     OW73061   7.376   8.116   3.010  0.2634 -0.4660  0.0115
23795SOL    HW173062   7.408   8.031   2.979 -0.1874 -0.7844  0.4134
23795SOL    HW273063   7.295   8.096   3.056  0.2545  0.1595  0.2768
23796SOL     OW73064   4.135   5.038   8.148 -0.1731 -0.0152 -0.5508
23796SOL    HW173065   4.188   5.042   8.228 -0.1949  2.5944 -0.6067
23796SOL    HW273066   4.198   5.058   8.078 -0.5590 -0.2993 -0.9762
23797SOL     OW73067   0.703   3.459   7.193 -0.0241 -0.0114 -0.3411
23797SOL    HW173068   0.789   3.438   7.156  0.2562  0.1270  0.2267
23797SOL    HW273069   0.699   3.408   7.274 -0.6917 -0.4225 -0.6244
23798SOL     OW73070   1.087   4.900   8.604 -0.1215 -0.0218  0.7874
23798SOL    HW173071   0.996   4.926   8.593 -0.1621 -0.9997 -1.4775
23798SOL    HW273072   1.138   4.981   8.594 -0.7607  0.6127  2.5957
23799SOL     OW73073   7.655   2.128   7.499 -0.0991  0.1275  0.9064
23799SOL    HW173074   7.630   2.035   7.502 -0.4657  0.2191  0.7068
23799SOL    HW273075   7.572   2.175   7.499  0.0745  0.4354  0.2170
23800SOL     OW73076   1.994   8.618   4.263 -0.5759  0.8371 -0.1808
23800SOL    HW173077   1.906   8.641   4.231 -0.8572  0.6044  0.4282
23800SOL    HW273078   2.013   8.685   4.329 -1.1499 -0.2982  1.1733
23801SOL     OW73079   2.430   8.960   2.535  0.3708 -0.1588  0.3867
23801SOL    HW173080   2.385   8.885   2.574  0.4938 -0.6173 -0.3457
23801SOL    HW273081   2.513   8.925   2.503  0.5473  0.3478  0.2744
23802SOL     OW73082   8.871   4.051   1.635 -0.1763 -0.3359 -0.0093
23802SOL    HW173083   8.869   3.994   1.712  0.9952  0.2335  0.4613
23802SOL    HW273084   8.884   4.139   1.671  2.2369 -0.2770 -0.9208
23803SOL     OW73085   7.447   1.189   2.992  0.4359  0.2963  0.1230
23803SOL    HW173086   7.398   1.251   3.045 -1.0435  0.7288 -1.6941
23803SOL    HW273087   7.449   1.228   2.905  0.9706 -1.4007 -0.6589
23804SOL     OW73088   0.108   1.916   1.162 -0.4360 -0.3074 -0.2889
23804SOL    HW173089   0.150   1.908   1.076  1.6648 -1.0452  0.7644
23804SOL    HW273090   0.136   1.837   1.210 -0.7515  0.5789  1.4056
23805SOL     OW73091   3.909   3.883   4.010 -0.2770  0.3856 -0.2340
23805SOL    HW173092   3.889   3.797   4.045 -1.1465  0.5323 -0.3670
23805SOL    HW273093   3.870   3.883   3.922 -0.1013  0.8358 -0.3146
23806SOL     OW73094   4.678   8.215   3.208  0.3105 -0.3298  0.2111
23806SOL    HW173095   4.711   8.258   3.287 -0.6674 -0.3206  0.6135
23806SOL    HW273096   4.742   8.238   3.141  0.8898  0.0646  0.8888
23807SOL     OW73097   4.900   4.238   1.609  0.2448 -0.6215 -0.4178
23807SOL    HW173098   4.879   4.262   1.699 -0.7305 -1.3924 -0.4210
23807SOL    HW273099   4.914   4.321   1.564 -1.3963 -0.1202 -0.0503
23808SOL     OW73100   1.538   1.438   3.721 -0.3409 -0.7262  0.0591
23808SOL    HW173101   1.542   1.450   3.816  0.0928  0.1179 -0.0644
23808SOL    HW273102   1.565   1.348   3.708 -0.0732 -0.7454  0.7124
23809SOL     OW73103   1.702   5.948   8.990 -0.2274 -0.2375 -0.5493
23809SOL    HW173104   1.713   6.043   8.982  1.3679 -0.1804  1.7622
23809SOL    HW273105   1.623   5.937   9.043  0.3173 -0.1381  0.3026
23810SOL     OW73106   8.516   4.813   7.388  0.5308  0.0921 -0.1682
23810SOL    HW173107   8.563   4.808   7.471 -0.4678  0.7164  0.4377
23810SOL    HW273108   8.582   4.789   7.322  1.4775  0.1570  0.7400
23811SOL     OW73109   1.588   5.438   8.976 -0.1963 -0.2790 -0.2673
23811SOL    HW173110   1.537   5.403   9.049 -1.0947 -0.0777 -0.7954
23811SOL    HW273111   1.533   5.507   8.939  0.2432 -0.3918 -1.1484
23812SOL     OW73112   3.611   2.592   6.932 -0.5163 -0.0563  0.3595
23812SOL    HW173113   3.553   2.516   6.928 -0.6405  0.0741 -0.5109
23812SOL    HW273114   3.659   2.589   6.849  1.8210 -1.0138  1.6972
23813SOL     OW73115   3.283   2.154   2.246 -0.2826  0.0700  0.3410
23813SOL    HW173116   3.227   2.081   2.272  1.1954 -2.0469 -2.1353
23813SOL    HW273117   3.372   2.125   2.269  0.5333  0.1778 -2.5164
23814SOL     OW73118   1.783   7.201   2.964 -0.4822  0.4318 -0.1620
23814SOL    HW173119   1.803   7.107   2.963  0.4667  0.5665  1.7858
23814SOL    HW273120   1.866   7.243   2.942 -0.3424  0.8472  1.1112
23815SOL     OW73121   3.314   7.068   4.311 -0.2751 -0.7262  0.2077
23815SOL    HW173122   3.408   7.085   4.316 -0.1681 -1.7737  2.2490
23815SOL    HW273123   3.298   7.050   4.218  1.9182 -2.5357  0.1166
23816SOL     OW73124   0.774   7.854   7.818  0.1728  0.2991  0.3992
23816SOL    HW173125   0.758   7.763   7.844 -1.6595  0.0445 -1.5079
23816SOL    HW273126   0.868   7.856   7.796  0.0476 -1.3485 -0.3862
23817SOL     OW73127   8.406   0.422   5.024 -0.2922 -0.1820  0.3097
23817SOL    HW173128   8.467   0.354   4.998  0.4994  0.1697  1.2233
23817SOL    HW273129   8.392   0.474   4.945  2.6071  1.2740  0.7088
23818SOL     OW73130   1.580   1.504   2.576 -0.7675  0.2665  0.0056
23818SOL    HW173131   1.654   1.544   2.620  1.0358 -2.6369 -0.2453
23818SOL    HW273132   1.517   1.487   2.646 -0.4586  1.1146  0.4988
23819SOL     OW73133   7.250   0.299   6.998  0.1623  0.8342 -0.0872
23819SOL    HW173134   7.218   0.314   6.909 -0.3247 -0.3130 -0.1221
23819SOL    HW273135   7.325   0.239   6.986 -0.2708  0.2069  0.3103
23820SOL     OW73136   5.571   5.299   1.314  0.1772 -0.0349  0.2387
23820SOL    HW173137   5.612   5.276   1.231  0.4012  1.7367 -0.1657
23820SOL    HW273138   5.477   5.285   1.299  0.3035 -0.6496  0.0101
23821SOL     OW73139   6.989   7.673   2.667 -0.2156  0.0237 -0.6319
23821SOL    HW173140   7.049   7.735   2.707 -0.1241  0.9949 -2.2136
23821SOL    HW273141   6.979   7.704   2.577 -2.9952 -0.1843 -0.4437
23822SOL     OW73142   6.429   5.511   6.719 -0.3378  0.0872 -0.0823
23822SOL    HW173143   6.480   5.515   6.638 -0.4661 -0.7516 -0.2067
23822SOL    HW273144   6.493   5.528   6.788 -0.3429  1.4360 -0.3869
23823SOL     OW73145   1.409   6.673   5.566  0.3616  0.2486  0.2787
23823SOL    HW173146   1.425   6.616   5.491 -1.4288 -0.3477  0.3500
23823SOL    HW273147   1.453   6.629   5.639 -0.4126 -0.6660  0.1897
23824SOL     OW73148   4.527   3.711   3.384 -0.0794 -0.3056 -0.4800
23824SOL    HW173149   4.597   3.681   3.326 -0.4690 -0.9744 -0.6013
23824SOL    HW273150   4.496   3.792   3.343 -0.0528 -0.5349 -0.9587
23825SOL     OW73151   7.332   0.077   1.307  0.7290  0.3054 -0.1899
23825SOL    HW173152   7.356   0.020   1.380 -2.3095  1.8527  2.1447
23825SOL    HW273153   7.236   0.072   1.303  0.6886  2.0272 -2.6040
23826SOL     OW73154   2.158   7.595   8.145 -0.5084  0.1818  0.1242
23826SOL    HW173155   2.077   7.646   8.137 -1.2068 -1.1142 -1.2782
23826SOL    HW273156   2.140   7.533   8.215 -0.7783 -0.1870 -0.2699
23827SOL     OW73157   0.102   1.663   2.907 -0.5569 -0.0087  0.3618
23827SOL    HW173158   0.135   1.632   2.822  1.8986  0.5895  1.0549
23827SOL    HW273159   0.082   1.582   2.955  1.0789 -0.4688  0.3346
23828SOL     OW73160   6.880   5.443   3.839  0.0972 -0.7116 -0.3488
23828SOL    HW173161   6.964   5.398   3.842 -0.6776 -2.1627  0.1948
23828SOL    HW273162   6.856   5.454   3.931  0.1390  0.5859 -0.4781
23829SOL     OW73163   9.089   8.825   1.877 -0.5118 -0.4526  0.0048
23829SOL    HW173164   9.136   8.742   1.872  2.1857  0.8733  1.9445
23829SOL    HW273165   9.014   8.807   1.934  0.6216 -1.3159  1.2520
23830SOL     OW73166   4.679   0.308   3.185 -0.0149  0.4891 -0.4034
23830SOL    HW173167   4.596   0.307   3.139  0.0939  2.3696 -0.6753
23830SOL    HW273168   4.738   0.256   3.129 -0.0241  2.3024 -2.1278
23831SOL     OW73169   8.976   7.334   6.732  0.2794 -0.0001 -0.4516
23831SOL    HW173170   8.969   7.428   6.711 -0.5637  0.5886  2.2547
23831SOL    HW273171   8.904   7.293   6.683  0.6100  0.7479 -1.5996
23832SOL     OW73172   7.124   6.881   1.105 -0.2252  0.4114  0.2369
23832SOL    HW173173   7.030   6.865   1.113 -0.4228  2.1967  1.6798
23832SOL    HW273174   7.165   6.799   1.134 -1.3109 -0.5140 -0.7651
23833SOL     OW73175   0.392   4.327   8.646 -0.3533 -0.5448  0.1547
23833SOL    HW173176   0.476   4.291   8.674 -0.9411  0.1446  2.9831
23833SOL    HW273177   0.411   4.419   8.626  0.1495 -1.1371 -2.2352
23834SOL     OW73178   5.331   8.339   6.939 -0.7247  0.4392 -0.1161
23834SOL    HW173179   5.273   8.263   6.927  0.7338 -0.5652 -1.0243
23834SOL    HW273180   5.320   8.391   6.859 -0.5415  0.3581 -0.1946
23835SOL     OW73181   7.231   1.118   3.282 -0.3051 -0.3561 -0.1715
23835SOL    HW173182   7.163   1.173   3.242 -0.9405 -0.4831  0.7206
23835SOL    HW273183   7.241   1.153   3.371  1.0280 -0.1380 -0.3918
23836SOL     OW73184   2.288   8.527   1.396 -0.1988 -0.8488 -0.2943
23836SOL    HW173185   2.315   8.579   1.320  0.2513  2.4545  2.0015
23836SOL    HW273186   2.357   8.461   1.405  0.6838 -0.1492 -1.6986
23837SOL     OW73187   1.737   5.368   6.079 -0.8460  0.1852 -0.8034
23837SOL    HW173188   1.793   5.355   6.155 -1.0710  0.7754 -0.5311
23837SOL    HW273189   1.662   5.418   6.113 -1.1337  0.1176 -1.3306
23838SOL     OW73190   6.715   5.092   0.130 -0.1182  0.3691 -0.1077
23838SOL    HW173191   6.798   5.072   0.086 -0.1128  3.2528 -1.5697
23838SOL    HW273192   6.706   5.187   0.121 -3.5985  0.1146 -0.0447
23839SOL     OW73193   1.893   8.930   1.714  0.3525  0.4513 -0.4726
23839SOL    HW173194   1.818   8.982   1.688  0.4524  1.7982  1.7601
23839SOL    HW273195   1.956   8.941   1.643  0.7147  4.1447  0.3253
23840SOL     OW73196   6.980   2.709   6.682  0.2931  0.0962 -0.1028
23840SOL    HW173197   6.913   2.693   6.616  1.6323 -1.3961 -1.1302
23840SOL    HW273198   6.946   2.783   6.733 -2.5573 -1.1982 -0.0214
23841SOL     OW73199   5.028   0.713   8.575  0.5193 -0.2395  0.6127
23841SOL    HW173200   5.065   0.671   8.497  0.4854 -0.3348  0.6461
23841SOL    HW273201   5.062   0.802   8.572  0.9181 -0.3870  0.7550
23842SOL     OW73202   6.074   0.630   7.308 -0.2560 -0.3148  0.2449
23842SOL    HW173203   6.156   0.649   7.262 -1.8042 -0.1305 -2.5779
23842SOL    HW273204   6.069   0.697   7.377  1.8765 -0.2572  0.3938
23843SOL     OW73205   8.440   7.313   4.741  0.1497  0.2192  0.2939
23843SOL    HW173206   8.530   7.295   4.712  0.3014  0.7778  0.3948
23843SOL    HW273207   8.417   7.395   4.696 -1.0570 -0.9758 -1.3362
23844SOL     OW73208   8.778   2.791   4.945 -0.2437  0.0897 -0.2465
23844SOL    HW173209   8.718   2.720   4.922  0.8881 -0.8400 -0.4017
23844SOL    HW273210   8.817   2.763   5.028 -0.3223  0.8752  0.0583
23845SOL     OW73211   5.890   3.159   3.563  0.0051  0.3023 -0.1494
23845SOL    HW173212   5.913   3.249   3.588 -0.1355  0.8722 -1.9524
23845SOL    HW273213   5.963   3.131   3.507 -1.5140  0.5030 -2.2788
23846SOL     OW73214   9.022   7.606   7.078  0.2739 -0.4738 -0.4900
23846SOL    HW173215   8.966   7.652   7.015 -0.5102  0.7093  1.0543
23846SOL    HW273216   8.965   7.541   7.118  0.4422 -0.3783 -0.0903
23847SOL     OW73217   8.616   9.243   6.993 -0.6113  0.0931  0.1583
23847SOL    HW173218   8.674   9.167   6.993 -2.8935 -1.7032  0.0444
23847SOL    HW273219   8.663   9.309   6.942  1.9474 -0.7831  1.2963
23848SOL     OW73220   5.549   6.067   6.235  0.1019  0.4089  0.1338
23848SOL    HW173221   5.596   6.026   6.308  3.0917 -1.2368 -2.6194
23848SOL    HW273222   5.591   6.153   6.225  0.7328  0.0195 -0.6041
23849SOL     OW73223   5.781   1.203   8.961  0.6453  0.3006  0.0525
23849SOL    HW173224   5.795   1.108   8.956  0.5274  0.1774  1.6507
23849SOL    HW273225   5.797   1.224   9.053 -2.5386  1.2893  0.4662
23850SOL     OW73226   5.235   0.668   8.321  0.3382 -0.0335  0.0830
23850SOL    HW173227   5.318   0.715   8.315  0.9709 -1.3116 -1.5938
23850SOL    HW273228   5.178   0.711   8.258 -0.0743  0.4128  0.7498
23851SOL     OW73229   7.957   0.603   3.985 -0.5112  0.5975 -0.4972
23851SOL    HW173230   7.992   0.629   4.071  0.5471  0.7268 -0.9544
23851SOL    HW273231   7.955   0.685   3.934 -2.1258  0.7140 -0.2735
23852SOL     OW73232   2.958   4.225   6.909  0.6534  0.2246  0.3528
23852SOL    HW173233   2.911   4.292   6.959  0.3775  0.9985 -0.9088
23852SOL    HW273234   3.001   4.274   6.839 -0.4633 -1.0264 -1.2507
23853SOL     OW73235   4.395   2.182   4.135 -0.2470 -0.8746 -0.0682
23853SOL    HW173236   4.429   2.240   4.202  0.0774 -2.8047  1.4582
23853SOL    HW273237   4.351   2.241   4.073  2.0295  1.1949  0.2260
23854SOL     OW73238   7.673   5.324   1.579  0.1101  0.1904  0.1522
23854SOL    HW173239   7.756   5.293   1.616 -0.6925 -0.5894  1.3601
23854SOL    HW273240   7.643   5.391   1.640 -0.3421  0.1857 -0.0615
23855SOL     OW73241   4.285   6.150   4.430  0.2691 -0.0477  0.3929
23855SOL    HW173242   4.313   6.117   4.516 -0.1565 -0.8809  0.2241
23855SOL    HW273243   4.354   6.210   4.403  0.1043  0.7063  1.5984
23856SOL     OW73244   0.053   1.415   4.572 -0.2127  0.5217  0.2276
23856SOL    HW173245   0.008   1.345   4.622  2.0967 -0.0082  1.6397
23856SOL    HW273246  -0.013   1.484   4.565 -2.2790 -1.4305 -0.4351
23857SOL     OW73247   8.699   5.762   6.349 -0.3284  0.5306  0.0044
23857SOL    HW173248   8.675   5.759   6.257  0.4954  0.6329 -0.2243
23857SOL    HW273249   8.753   5.841   6.357 -1.5422  1.2949  0.8629
23858SOL     OW73250   5.597   5.542   3.139 -0.5447  0.0063 -0.1711
23858SOL    HW173251   5.503   5.545   3.160 -0.5247  0.4127 -0.1427
23858SOL    HW273252   5.640   5.587   3.212 -0.0735 -2.6736  1.2535
23859SOL     OW73253   3.122   3.478   3.892 -0.0816 -0.6018 -0.0626
23859SOL    HW173254   3.063   3.546   3.859  1.4587  0.2295 -1.1601
23859SOL    HW273255   3.190   3.526   3.940  0.1553 -1.4815  0.4992
23860SOL     OW73256   6.623   9.225   0.470 -0.3529  0.4646  0.4519
23860SOL    HW173257   6.654   9.316   0.468  0.3057  0.2318  0.0850
23860SOL    HW273258   6.603   9.204   0.379  0.1355  0.0258  0.4419
23861SOL     OW73259   4.781   4.299   5.254  0.7430  0.3873  0.3430
23861SOL    HW173260   4.705   4.322   5.199  1.5799  1.6270 -0.3124
23861SOL    HW273261   4.857   4.325   5.202  1.6928 -2.2701  0.3367
23862SOL     OW73262   9.017   3.144   0.281 -0.2969 -0.0675  0.3473
23862SOL    HW173263   8.952   3.077   0.303 -1.0361 -0.0490 -1.6078
23862SOL    HW273264   8.964   3.222   0.263  0.3419  0.2485 -0.1746
23863SOL     OW73265   7.067   3.811   8.111  0.1513  0.3582  0.0864
23863SOL    HW173266   7.017   3.890   8.134 -0.3248  0.1574 -0.2567
23863SOL    HW273267   7.090   3.772   8.196 -2.3663 -0.8675  0.2592
23864SOL     OW73268   0.287   4.963   7.609 -0.0535 -0.1970 -0.3219
23864SOL    HW173269   0.252   5.018   7.679 -1.8837 -0.1891 -1.2218
23864SOL    HW273270   0.370   5.004   7.586 -0.2555  0.7968  0.6600
23865SOL     OW73271   3.694   2.555   6.663 -0.5587  0.0055  0.1696
23865SOL    HW173272   3.623   2.495   6.636  0.8868 -1.2560 -0.9138
23865SOL    HW273273   3.770   2.498   6.673  0.5290  1.5002  0.4171
23866SOL     OW73274   2.919   7.626   6.854 -0.5152 -0.2878  0.1422
23866SOL    HW173275   2.853   7.687   6.885  0.1801  0.0378  1.0204
23866SOL    HW273276   2.929   7.647   6.761 -0.3006  0.9353  0.4257
23867SOL     OW73277   4.456   4.128   1.798 -0.2928  0.6264 -0.0908
23867SOL    HW173278   4.533   4.128   1.741 -0.9253 -0.0452 -0.9585
23867SOL    HW273279   4.441   4.220   1.818  2.3907  0.6060  2.3735
23868SOL     OW73280   2.288   4.520   0.175  0.0401 -0.3686  0.6063
23868SOL    HW173281   2.376   4.502   0.143 -0.4627  0.0420 -1.0705
23868SOL    HW273282   2.299   4.540   0.268  2.2593  3.9147 -0.4844
23869SOL     OW73283   6.702   4.575   5.689  0.0956  0.1576 -0.1153
23869SOL    HW173284   6.630   4.511   5.680  0.8230 -0.2391 -4.4039
23869SOL    HW273285   6.666   4.656   5.652  0.8951  0.7552  0.4175
23870SOL     OW73286   0.071   5.676   0.103 -0.1807  0.1827  0.6258
23870SOL    HW173287   0.065   5.731   0.181  1.5716  1.9567 -0.4400
23870SOL    HW273288   0.147   5.620   0.119 -1.1669 -1.0107  1.1437
23871SOL     OW73289   8.576   5.216   5.184 -0.3588 -0.0367 -0.0726
23871SOL    HW173290   8.659   5.214   5.137 -1.2270 -0.3697 -1.5899
23871SOL    HW273291   8.548   5.125   5.187 -1.8540  0.3517 -1.6898
23872SOL     OW73292   0.784   5.121   8.365  0.3487  0.2249  0.0870
23872SOL    HW173293   0.834   5.156   8.438  1.0519 -0.0280 -0.2626
23872SOL    HW273294   0.703   5.089   8.404  1.2367 -1.0438  0.9605
23873SOL     OW73295   8.668   4.125   2.362 -0.3728 -0.2078  0.1237
23873SOL    HW173296   8.627   4.178   2.430 -0.9595  0.9825 -1.1476
23873SOL    HW273297   8.598   4.069   2.330  0.0825 -1.2938  0.9920
23874SOL     OW73298   1.907   5.314   6.287 -0.0003 -0.3154 -0.4000
23874SOL    HW173299   1.923   5.221   6.277  2.7088  0.0685  0.0193
23874SOL    HW273300   1.909   5.330   6.381  1.3998  0.4338 -0.5340
23875SOL     OW73301   7.008   1.983   3.472  0.1041  0.2022  0.2700
23875SOL    HW173302   7.093   1.978   3.428 -0.0153  1.1185 -0.0656
23875SOL    HW273303   6.946   2.000   3.401 -0.3351 -0.2529  0.5460
23876SOL     OW73304   8.097   2.333   6.194  0.0424 -0.0128 -0.3256
23876SOL    HW173305   8.115   2.335   6.288  1.1658 -1.2004 -0.4989
23876SOL    HW273306   8.179   2.362   6.154 -0.2537 -0.0434 -0.9520
23877SOL     OW73307   7.146   4.432   4.477 -0.0019 -0.0319 -0.5666
23877SOL    HW173308   7.240   4.437   4.490 -0.5390  4.2485  2.6060
23877SOL    HW273309   7.134   4.449   4.383  2.3083  0.2418 -0.8404
23878SOL     OW73310   6.546   2.647   6.738  0.0792  0.6828  0.3265
23878SOL    HW173311   6.570   2.607   6.654 -0.3439 -0.5829  0.7862
23878SOL    HW273312   6.521   2.572   6.793 -0.6813  1.5954  1.2332
23879SOL     OW73313   1.602   6.419   6.899  0.0960 -0.0257  0.7029
23879SOL    HW173314   1.562   6.352   6.844  0.5504  0.1116  0.1971
23879SOL    HW273315   1.529   6.474   6.926 -0.8521 -2.7660  4.0806
23880SOL     OW73316   7.356   4.685   3.022 -0.2880 -0.0636  0.2623
23880SOL    HW173317   7.335   4.709   2.931 -1.2032  0.9520  0.7319
23880SOL    HW273318   7.417   4.753   3.051 -2.6165  1.5724  1.4839
23881SOL     OW73319   7.658   4.463   6.998 -0.0078  0.2430  0.3718
23881SOL    HW173320   7.739   4.495   7.038 -0.3271  0.2349  1.0393
23881SOL    HW273321   7.633   4.388   7.053  1.4382 -2.0143 -1.9227
23882SOL     OW73322   4.671   2.367   7.592 -0.0781  0.0616  0.4874
23882SOL    HW173323   4.676   2.314   7.672  1.9681  0.6854  0.7773
23882SOL    HW273324   4.683   2.457   7.621  0.8209  0.2819 -0.5348
23883SOL     OW73325   7.389   0.982   6.212 -0.2857  0.1306 -0.3647
23883SOL    HW173326   7.435   1.025   6.141 -1.9560  0.5562 -1.2207
23883SOL    HW273327   7.347   0.906   6.170 -0.9980  0.1930  0.2373
23884SOL     OW73328   1.981   1.230   5.375  0.5472 -0.0145 -0.3489
23884SOL    HW173329   1.990   1.300   5.310 -1.0553  0.6274  0.0821
23884SOL    HW273330   1.923   1.267   5.442 -0.6584 -1.9081 -0.3166
23885SOL     OW73331   7.038   2.608   7.015 -0.0865  0.1219  0.2157
23885SOL    HW173332   7.037   2.592   7.109  0.5477 -0.8505  0.0691
23885SOL    HW273333   7.040   2.520   6.976  1.6893  0.5287 -0.6740
23886SOL     OW73334   6.172   5.218   8.292 -0.3830  0.2073  0.1650
23886SOL    HW173335   6.240   5.167   8.335  0.7111  2.0317  0.6653
23886SOL    HW273336   6.090   5.181   8.324  0.3997 -0.3228  1.6047
23887SOL     OW73337   3.579   4.150   4.003  0.0548  0.1252 -0.2561
23887SOL    HW173338   3.608   4.144   3.912  0.5075  0.9903 -0.1765
23887SOL    HW273339   3.648   4.199   4.047 -1.2745  1.7722  0.0487
23888SOL     OW73340   1.286   0.528   7.811 -0.6085  0.0860  0.1815
23888SOL    HW173341   1.247   0.577   7.739 -1.2915 -0.0317  0.4663
23888SOL    HW273342   1.348   0.589   7.851  1.0098 -0.3821 -1.5063
23889SOL     OW73343   3.465   6.104   1.044 -0.1082 -0.4640  0.0577
23889SOL    HW173344   3.426   6.054   1.116 -0.2345  0.1141  0.3957
23889SOL    HW273345   3.391   6.136   0.994 -0.1158  1.4035  1.2265
23890SOL     OW73346   5.438   4.746   2.429  0.0828 -0.4118 -0.9993
23890SOL    HW173347   5.527   4.720   2.406  0.7842 -0.6716  1.8393
23890SOL    HW273348   5.405   4.673   2.482 -1.6240 -0.0624 -1.5519
23891SOL     OW73349   0.856   6.382   2.425 -0.4618  0.1039  0.1904
23891SOL    HW173350   0.871   6.378   2.520 -3.1425 -2.0617  0.5666
23891SOL    HW273351   0.927   6.328   2.388  0.8631  1.3205  0.8952
23892SOL     OW73352   1.371   4.759   0.969  0.3844  0.1201 -0.3801
23892SOL    HW173353   1.380   4.731   1.060 -0.4010 -1.6441 -0.8143
23892SOL    HW273354   1.279   4.787   0.961 -0.1297 -1.7153 -1.1316
23893SOL     OW73355   5.633   6.651   0.378 -0.1060  0.1255 -0.0477
23893SOL    HW173356   5.620   6.669   0.284 -2.0822  0.2544  0.2185
23893SOL    HW273357   5.623   6.556   0.386  0.9083  0.0169 -0.0927
23894SOL     OW73358   3.244   3.835   3.199 -1.0274 -0.0395 -0.0742
23894SOL    HW173359   3.310   3.809   3.264  1.9702 -2.1028 -3.7933
23894SOL    HW273360   3.170   3.777   3.218 -0.7725  0.3512  2.3729
23895SOL     OW73361   7.328   3.096   8.875 -0.1893 -0.0529 -0.1866
23895SOL    HW173362   7.280   3.018   8.848 -1.1535  0.5535 -0.2676
23895SOL    HW273363   7.358   3.077   8.963 -0.1122 -0.6520 -0.3384
23896SOL     OW73364   0.870   1.047   0.284  0.0262  0.2433 -0.6033
23896SOL    HW173365   0.802   0.998   0.329  0.1388 -0.6642 -1.3861
23896SOL    HW273366   0.825   1.123   0.247 -0.3391  0.2337 -0.1801
23897SOL     OW73367   5.692   5.527   1.464 -0.1572  0.2193  0.0476
23897SOL    HW173368   5.651   5.463   1.404  0.6441 -1.5898  1.3722
23897SOL    HW273369   5.761   5.567   1.412 -0.0742 -0.6562 -0.5447
23898SOL     OW73370   7.350   0.406   2.676 -0.1296  0.7096  0.4693
23898SOL    HW173371   7.376   0.326   2.722 -2.9678 -0.5963 -0.1096
23898SOL    HW273372   7.370   0.389   2.584  2.5969  2.1132  0.7313
23899SOL     OW73373   5.822   7.977   3.710 -0.1739 -0.8945  0.0994
23899SOL    HW173374   5.780   7.907   3.660  1.6647 -1.3629 -0.8409
23899SOL    HW273375   5.853   8.039   3.643  1.9373 -1.3143  0.6605
23900SOL     OW73376   5.031   8.439   0.236  0.6794  0.2330  0.2678
23900SOL    HW173377   4.936   8.452   0.238  0.3739 -1.6550 -0.7476
23900SOL    HW273378   5.064   8.512   0.184 -0.3149  0.4272 -0.0995
23901SOL     OW73379   3.883   0.269   6.312 -0.0567  0.1065  0.1305
23901SOL    HW173380   3.860   0.225   6.394 -0.5354  0.5432  0.2311
23901SOL    HW273381   3.875   0.362   6.331  0.0241  0.2151 -0.3572
23902SOL     OW73382   7.648   4.315   6.286  0.1536  0.1114  0.2776
23902SOL    HW173383   7.638   4.314   6.191  0.0850  1.0529  0.2713
23902SOL    HW273384   7.630   4.225   6.313 -1.5292  0.1991 -0.4451
23903SOL     OW73385   0.714   7.368   8.044  0.3126  0.1091  0.3919
23903SOL    HW173386   0.644   7.303   8.051 -0.0158  0.5538  1.2591
23903SOL    HW273387   0.776   7.344   8.113 -0.8444  1.9622  2.1257
23904SOL     OW73388   6.220   4.281   2.258 -0.0752  0.7388 -0.4267
23904SOL    HW173389   6.175   4.219   2.316 -1.2657 -0.5162 -2.6301
23904SOL    HW273390   6.311   4.278   2.286 -0.5139 -0.3148  0.9639
23905SOL     OW73391   5.618   8.549   2.100  0.3374 -0.1679 -0.1753
23905SOL    HW173392   5.576   8.609   2.162  0.7448  1.7759 -1.7466
23905SOL    HW273393   5.551   8.533   2.034  0.4188 -1.0352 -0.0564
23906SOL     OW73394   9.017   0.578   3.786  0.2130  0.0052  0.2214
23906SOL    HW173395   8.987   0.599   3.697  0.2318 -2.0277 -0.2991
23906SOL    HW273396   8.941   0.536   3.827  0.3360  0.5665  1.0477
23907SOL     OW73397   4.973   4.908   1.284  0.6327 -0.0377  0.4927
23907SOL    HW173398   5.004   4.938   1.198  0.5754 -0.6793  0.2447
23907SOL    HW273399   5.022   4.961   1.347  0.2825  0.8117  0.0513
23908SOL     OW73400   1.305   7.881   5.952  0.0052 -0.5430  0.4616
23908SOL    HW173401   1.318   7.969   5.918 -0.3501 -0.5056  0.4158
23908SOL    HW273402   1.303   7.892   6.047 -0.1263 -0.4859  0.4533
23909SOL     OW73403   5.910   2.792   6.181  0.1441 -0.3786 -0.0493
23909SOL    HW173404   5.946   2.707   6.206  5.0365  1.3168 -0.7968
23909SOL    HW273405   5.881   2.781   6.091 -0.8528 -1.6870  0.4218
23910SOL     OW73406   9.112   5.301   3.612 -0.5266  0.5107 -0.1934
23910SOL    HW173407   9.198   5.327   3.582 -0.1260 -0.7865 -0.2160
23910SOL    HW273408   9.095   5.217   3.568 -1.0621 -0.0910  1.1125
23911SOL     OW73409   2.314   6.100   6.406 -0.4523 -0.3738 -0.0393
23911SOL    HW173410   2.296   6.069   6.317 -0.4804  1.1670 -0.5827
23911SOL    HW273411   2.257   6.176   6.417  0.9711  0.6291  0.5774
23912SOL     OW73412   0.348   7.511   8.857  0.0499 -0.1243  0.2112
23912SOL    HW173413   0.305   7.558   8.928  0.1010 -0.1510  0.2605
23912SOL    HW273414   0.282   7.449   8.826 -0.5112  0.9864 -0.8391
23913SOL     OW73415   9.185   5.063   0.291 -0.0512 -0.8882  0.3148
23913SOL    HW173416   9.154   5.028   0.375  0.3429 -1.1971  0.3308
23913SOL    HW273417   9.218   5.150   0.312  1.2863 -1.4795  0.7287
23914SOL     OW73418   6.629   0.276   6.314 -0.2787 -0.1173  0.0423
23914SOL    HW173419   6.629   0.181   6.299  0.9775 -0.1657  0.2732
23914SOL    HW273420   6.701   0.309   6.261 -1.2823  0.8427 -0.7482
23915SOL     OW73421   0.928   9.053   6.293  0.1882  1.1550  0.1997
23915SOL    HW173422   0.915   9.004   6.212  2.0227 -1.0001  1.1526
23915SOL    HW273423   0.863   9.018   6.354  0.9256  0.4709  0.6132
23916SOL     OW73424   8.255   3.081   8.288  0.1604  0.0436  0.0428
23916SOL    HW173425   8.311   3.066   8.212  0.5858 -1.6630  0.6746
23916SOL    HW273426   8.221   2.994   8.311 -2.8847  1.0350 -0.4108
23917SOL     OW73427   0.149   5.157   9.260 -0.4367 -0.0639 -0.4118
23917SOL    HW173428   0.093   5.115   9.194 -0.6726 -2.6704  1.3513
23917SOL    HW273429   0.173   5.085   9.319  2.5471  1.5484  0.4151
23918SOL     OW73430   6.508   1.677   9.060  0.0347 -0.5181  0.9743
23918SOL    HW173431   6.535   1.604   9.004  0.4148 -0.6908  1.3874
23918SOL    HW273432   6.524   1.755   9.006  1.3136 -0.6247  1.2055
23919SOL     OW73433   8.228   8.074   5.419  0.1277  0.2602 -1.4725
23919SOL    HW173434   8.279   8.066   5.499 -2.2285  0.4533  0.1043
23919SOL    HW273435   8.256   8.157   5.380 -0.7164  1.5562  0.6343
23920SOL     OW73436   6.068   1.116   5.569  0.0338  0.1369  0.6823
23920SOL    HW173437   6.112   1.187   5.617 -1.0197  1.3853 -0.1936
23920SOL    HW273438   6.022   1.066   5.637  0.1641  0.7345  1.2123
23921SOL     OW73439   2.251   2.092   5.675  0.2485  0.2295 -0.1923
23921SOL    HW173440   2.268   2.051   5.591 -1.4885  2.4853 -1.7157
23921SOL    HW273441   2.314   2.165   5.679 -0.1383  0.5495  0.1287
23922SOL     OW73442   2.649   1.086   6.844  0.3891  0.8375  0.1771
23922SOL    HW173443   2.631   1.180   6.846  0.2352  0.8056  0.3103
23922SOL    HW273444   2.722   1.074   6.904  0.3515  0.8609  0.2276
23923SOL     OW73445   3.699   8.727   8.411  0.0394  0.0088 -0.5605
23923SOL    HW173446   3.674   8.807   8.456  0.9218 -0.5428  0.9644
23923SOL    HW273447   3.625   8.668   8.423 -0.2620  0.3135 -0.9453
23924SOL     OW73448   6.116   1.498   2.296  0.2279  0.2288 -0.2836
23924SOL    HW173449   6.185   1.435   2.320  0.9238  0.2755 -2.1111
23924SOL    HW273450   6.037   1.445   2.287  0.8140 -0.3935 -1.8246
23925SOL     OW73451   1.361   2.464   2.812  0.5382  0.6794 -0.4490
23925SOL    HW173452   1.399   2.524   2.875  1.6700 -1.4025  0.9216
23925SOL    HW273453   1.331   2.389   2.864 -2.8602  0.9860 -1.8368
23926SOL     OW73454   5.377   0.964   6.733 -0.2889  0.6454  0.1852
23926SOL    HW173455   5.383   0.886   6.678 -0.1825  0.3628  0.5934
23926SOL    HW273456   5.460   0.965   6.781  0.1286  1.5543 -0.5433
23927SOL     OW73457   8.655   8.472   6.890  0.0830  0.5293 -0.5755
23927SOL    HW173458   8.561   8.487   6.880  0.1193  0.4489 -1.0540
23927SOL    HW273459   8.692   8.558   6.910 -0.1385  0.4994 -0.0346
23928SOL     OW73460   8.932   3.128   0.916  0.3881 -0.5498  0.0785
23928SOL    HW173461   8.918   3.041   0.953  0.2370 -0.5651 -0.0120
23928SOL    HW273462   9.014   3.159   0.956 -0.2365 -0.1943  1.1331
23929SOL     OW73463   4.357   0.416   2.200 -0.4453 -0.3836 -0.7581
23929SOL    HW173464   4.408   0.494   2.178  0.2737  0.1175  2.4958
23929SOL    HW273465   4.408   0.343   2.165  1.4046  0.2629  0.5457
23930SOL     OW73466   5.054   2.754   0.284 -0.3383 -0.6144  0.6329
23930SOL    HW173467   5.065   2.756   0.189 -1.0639  0.8356  0.5711
23930SOL    HW273468   5.143   2.763   0.319 -0.0555 -1.3213  0.1026
23931SOL     OW73469   7.509   3.167   1.875  0.7098 -0.0487  0.0100
23931SOL    HW173470   7.517   3.082   1.832 -1.6305  0.4525 -1.5416
23931SOL    HW273471   7.543   3.229   1.810  0.7512  0.3613  0.4212
23932SOL     OW73472   2.590   7.327   3.287  0.5415 -0.3536 -0.0166
23932SOL    HW173473   2.534   7.363   3.356  1.4081  0.1490  0.4260
23932SOL    HW273474   2.549   7.243   3.265  0.7915 -0.9799  1.7952
23933SOL     OW73475   7.584   2.586   0.922 -0.3567 -0.2686  0.1146
23933SOL    HW173476   7.671   2.547   0.920  0.4294  1.4411 -1.4056
23933SOL    HW273477   7.570   2.610   1.013  1.2622  0.4361  0.1982
23934SOL     OW73478   3.600   6.466   3.263 -0.0641  0.5662 -0.4301
23934SOL    HW173479   3.613   6.484   3.170  1.9912 -1.1324 -0.5132
23934SOL    HW273480   3.686   6.475   3.302  0.1506 -3.6365  0.3750
23935SOL     OW73481   0.416   8.463   4.134  0.1243 -0.1427 -0.6320
23935SOL    HW173482   0.320   8.465   4.137  0.1411 -0.1215 -0.0544
23935SOL    HW273483   0.437   8.405   4.060 -0.3257 -1.1221  0.0036
23936SOL     OW73484   4.134   4.148   0.834 -0.0270 -0.0850  0.0875
23936SOL    HW173485   4.073   4.211   0.794 -0.8630 -0.3713  0.9139
23936SOL    HW273486   4.080   4.094   0.891  0.9033 -0.7469  0.3608
23937SOL     OW73487   8.906   8.775   6.347  0.5935 -0.3048  0.2460
23937SOL    HW173488   8.845   8.702   6.356 -0.7903  0.8753  0.6675
23937SOL    HW273489   8.917   8.785   6.252  0.5952 -0.8976  0.1811
23938SOL     OW73490   0.251   3.990   2.849 -0.3991  0.5250 -0.2144
23938SOL    HW173491   0.328   3.980   2.907  0.7490  0.8980 -1.6479
23938SOL    HW273492   0.272   4.066   2.795 -2.0708  1.0030 -0.2160
23939SOL     OW73493   2.161   6.718   3.614  0.3374  0.3689  0.6428
23939SOL    HW173494   2.179   6.744   3.705  0.4926  2.8270 -0.0480
23939SOL    HW273495   2.136   6.800   3.571 -0.1341 -0.8502 -1.4419
23940SOL     OW73496   3.219   2.530   6.112 -0.0278 -0.5028  1.4116
23940SOL    HW173497   3.263   2.594   6.056  0.5822 -0.3868  2.0186
23940SOL    HW273498   3.176   2.583   6.179 -1.4088 -0.5933  0.6030
23941SOL     OW73499   2.215   5.968   6.188 -0.2229  0.2641 -0.4223
23941SOL    HW173500   2.137   6.017   6.161 -0.5583  0.5194  0.9308
23941SOL    HW273501   2.211   5.887   6.139 -0.2759  1.1163 -1.8440
23942SOL     OW73502   7.246   3.635   1.395  0.0992 -0.7425  0.2013
23942SOL    HW173503   7.192   3.601   1.466  0.2918  0.1179  0.7713
23942SOL    HW273504   7.184   3.667   1.330 -0.0977  0.4611  0.9607
23943SOL     OW73505   1.183   6.015   4.688 -0.3669 -0.0425 -0.0151
23943SOL    HW173506   1.194   5.988   4.597 -0.3917  0.0700 -0.0515
23943SOL    HW273507   1.253   6.078   4.703  0.5094 -1.1193  0.4660
23944SOL     OW73508   2.373   7.049   1.029  0.5726 -0.2571  0.3609
23944SOL    HW173509   2.432   7.103   0.975  0.8157  0.7949  1.6430
23944SOL    HW273510   2.345   6.978   0.971  1.3359  0.4919 -0.9478
23945SOL     OW73511   5.862   1.606   1.501 -0.2344 -0.7331  0.1900
23945SOL    HW173512   5.876   1.613   1.595 -0.9266  2.3861  0.1119
23945SOL    HW273513   5.768   1.587   1.492 -1.0205  2.9422  0.0705
23946SOL     OW73514   1.310   1.763   2.873 -0.4519  0.0035  0.7557
23946SOL    HW173515   1.399   1.746   2.904 -0.0698 -0.0493 -0.3594
23946SOL    HW273516   1.296   1.856   2.892 -0.2350 -0.0363  1.1133
23947SOL     OW73517   1.071   4.910   0.227 -0.0263  0.5006  0.6446
23947SOL    HW173518   0.983   4.871   0.223 -1.3741  3.4572  0.0427
23947SOL    HW273519   1.069   4.980   0.162  2.9558  0.3417  0.3263
23948SOL     OW73520   0.012   6.765   5.477  0.7581 -0.2853  0.3818
23948SOL    HW173521   0.051   6.786   5.561 -0.3151  0.1745  0.7816
23948SOL    HW273522  -0.080   6.791   5.486  0.5718 -0.4724 -0.8418
23949SOL     OW73523   5.103   0.154   1.516 -0.1333  0.3712 -0.0829
23949SOL    HW173524   5.172   0.109   1.467  0.2591  1.3580 -0.4457
23949SOL    HW273525   5.141   0.170   1.602 -0.9465 -1.6819  0.6960
23950SOL     OW73526   7.301   8.891   3.273  0.3641  0.1341 -0.0149
23950SOL    HW173527   7.212   8.860   3.258  0.6937  0.5656 -3.0914
23950SOL    HW273528   7.331   8.841   3.349 -2.3155 -0.3523  0.7715
23951SOL     OW73529   7.867   5.591   5.876  0.7386 -0.0823 -0.3009
23951SOL    HW173530   7.821   5.609   5.958  0.9422  1.0893 -0.4334
23951SOL    HW273531   7.960   5.600   5.898  0.7861  0.4391 -0.6997
23952SOL     OW73532   6.920   5.137   4.765 -0.3058 -0.6946  0.4638
23952SOL    HW173533   6.849   5.074   4.753 -0.4669 -0.3076 -0.7163
23952SOL    HW273534   6.985   5.091   4.817 -1.5689 -0.9427  1.8407
23953SOL     OW73535   4.966   6.210   0.836  0.6727  0.2177 -0.1010
23953SOL    HW173536   4.974   6.141   0.902 -0.8307  0.3258  0.1934
23953SOL    HW273537   4.960   6.163   0.753 -1.7166 -0.0623  0.2171
23954SOL     OW73538   1.282   1.601   6.772  0.7006  0.3845 -0.0344
23954SOL    HW173539   1.195   1.561   6.772  0.7825  0.2023 -0.0676
23954SOL    HW273540   1.266   1.695   6.768  0.4989  0.3724  0.4353
23955SOL     OW73541   4.365   1.335   1.589  0.1492 -0.0101  0.5456
23955SOL    HW173542   4.427   1.313   1.520  0.7080  2.5322  0.1874
23955SOL    HW273543   4.417   1.386   1.652 -0.9365 -0.1997  1.6206
23956SOL     OW73544   6.091   1.217   5.293 -0.0020 -0.5003 -1.3197
23956SOL    HW173545   6.062   1.153   5.358 -0.0164  0.2041 -0.6214
23956SOL    HW273546   6.013   1.236   5.242 -0.5453  0.6509 -0.0776
23957SOL     OW73547   6.572   7.978   1.750 -0.5224  0.0116 -0.1816
23957SOL    HW173548   6.576   8.073   1.754  0.5769 -0.0494  0.5403
23957SOL    HW273549   6.563   7.958   1.657  1.4757  0.7733 -0.5663
23958SOL     OW73550   1.029   9.077   4.056 -0.5013  0.0362 -0.1853
23958SOL    HW173551   1.119   9.052   4.077  0.1044  1.1510 -1.3485
23958SOL    HW273552   0.981   8.994   4.058  0.3266 -0.4275  1.4848
23959SOL     OW73553   5.029   7.566   3.427 -0.0325  0.2373  0.2458
23959SOL    HW173554   4.991   7.565   3.515 -0.3915  0.7483  0.0948
23959SOL    HW273555   4.991   7.489   3.384 -0.1358  0.1955  0.4131
23960SOL     OW73556   5.163   5.860   0.945 -0.1290 -1.0416 -0.3517
23960SOL    HW173557   5.231   5.920   0.913 -0.4637  0.3064  1.4229
23960SOL    HW273558   5.089   5.916   0.967 -1.8177 -2.4893 -2.1225
23961SOL     OW73559   2.168   9.255   3.298 -0.1506  0.1716 -0.5742
23961SOL    HW173560   2.106   9.277   3.228 -0.0999  0.7497 -0.4376
23961SOL    HW273561   2.224   9.187   3.260 -0.2948  0.2937 -1.0070
23962SOL     OW73562   5.543   5.363   8.284  0.6590 -0.5185  0.0445
23962SOL    HW173563   5.574   5.429   8.223  0.2788 -1.3396 -1.0409
23962SOL    HW273564   5.465   5.402   8.324  0.2235 -0.4428 -0.8618
23963SOL     OW73565   1.192   4.026   3.440 -0.0677 -0.4905 -0.2651
23963SOL    HW173566   1.151   4.109   3.461 -0.4900 -0.3644 -1.5174
23963SOL    HW273567   1.123   3.961   3.455 -0.5919 -0.3347 -1.8064
23964SOL     OW73568   3.010   2.747   7.845  0.2072  0.8079 -0.4418
23964SOL    HW173569   3.067   2.680   7.807 -0.5074 -0.7653  1.1945
23964SOL    HW273570   2.930   2.743   7.791 -0.2444 -0.4119  0.2956
23965SOL     OW73571   5.009   4.961   0.984  0.9243  0.0080  0.3410
23965SOL    HW173572   4.980   4.870   0.993 -0.2837  0.5569  2.5036
23965SOL    HW273573   4.933   5.007   0.949  1.4168  0.2700 -0.3999
23966SOL     OW73574   3.839   4.554   3.698  0.3039 -0.1892 -0.0114
23966SOL    HW173575   3.870   4.548   3.789  2.1024  1.7121 -0.4519
23966SOL    HW273576   3.888   4.627   3.661  0.8404 -1.9677 -3.0135
23967SOL     OW73577   5.656   3.426   8.398  0.5443  0.0278 -0.1446
23967SOL    HW173578   5.689   3.388   8.317  1.2099 -0.3453  0.2952
23967SOL    HW273579   5.734   3.443   8.450  0.0655 -0.6597  0.8188
23968SOL     OW73580   7.871   4.084   3.480  1.1090 -0.2472 -0.2567
23968SOL    HW173581   7.845   4.015   3.540 -0.7352  0.8335  0.2274
23968SOL    HW273582   7.830   4.163   3.516  0.0629  0.4371 -2.8431
23969SOL     OW73583   5.864   5.104   7.258 -0.4212  0.7361  0.6173
23969SOL    HW173584   5.789   5.156   7.287 -0.2766  0.4774  1.4733
23969SOL    HW273585   5.827   5.039   7.198 -1.3353 -1.2575  3.2568
23970SOL     OW73586   7.565   5.255   5.640  0.7068  0.1079  0.2034
23970SOL    HW173587   7.607   5.304   5.710 -0.6972  0.7526  0.6171
23970SOL    HW273588   7.479   5.232   5.675 -0.5665  1.6518 -1.7998
23971SOL     OW73589   6.876   0.249   1.153 -0.2774 -0.6501  0.0549
23971SOL    HW173590   6.803   0.257   1.092  0.3770 -0.3534 -0.6890
23971SOL    HW273591   6.863   0.321   1.215  0.5792  0.7434 -1.3478
23972SOL     OW73592   6.050   8.071   3.123  0.0704  0.5985 -0.1151
23972SOL    HW173593   5.974   8.035   3.077 -1.5244  2.5588  0.9159
23972SOL    HW273594   6.116   8.081   3.055 -0.9609 -0.1461 -1.2527
23973SOL     OW73595   8.204   6.114   1.035  0.0136  0.4310  0.6457
23973SOL    HW173596   8.286   6.101   1.083 -0.2462  0.4382  1.0948
23973SOL    HW273597   8.140   6.139   1.102  0.2374  2.9644 -0.0347
23974SOL     OW73598   1.597   6.113   4.045 -0.0433  0.1888 -0.0615
23974SOL    HW173599   1.634   6.101   4.133  0.7553 -0.4868 -0.4768
23974SOL    HW273600   1.579   6.206   4.039 -2.1686 -0.0834  1.6325
23975SOL     OW73601   2.467   2.980   7.453 -0.1359 -0.0864  0.2683
23975SOL    HW173602   2.495   2.994   7.362 -0.6215  3.0321  0.5425
23975SOL    HW273603   2.373   2.998   7.452  0.3809  3.0962  1.9117
23976SOL     OW73604   0.765   8.040   7.505  0.5020 -0.4827  0.0499
23976SOL    HW173605   0.829   8.078   7.566 -0.4522  0.0214  0.7582
23976SOL    HW273606   0.726   7.967   7.554 -1.6065  1.0904  0.7555
23977SOL     OW73607   7.218   8.296   0.467  0.8680 -0.3276  0.6381
23977SOL    HW173608   7.180   8.383   0.480  0.4363 -0.5409  0.7798
23977SOL    HW273609   7.311   8.314   0.449  0.2301  0.3558 -2.1913
23978SOL     OW73610   1.377   8.704   1.303  0.5825  0.1307  0.3288
23978SOL    HW173611   1.331   8.693   1.387 -0.8100  0.2205 -0.4096
23978SOL    HW273612   1.409   8.794   1.305  1.1966 -0.0942  1.0669
23979SOL     OW73613   1.624   7.925   7.522  0.2214  0.0175  0.2554
23979SOL    HW173614   1.714   7.895   7.526  0.5092  0.8615  0.1646
23979SOL    HW273615   1.586   7.878   7.447  0.0527 -1.7339  1.4267
23980SOL     OW73616   6.497   2.685   9.292 -0.4939 -0.0518 -0.3391
23980SOL    HW173617   6.581   2.716   9.260 -0.5460 -1.0782 -1.4994
23980SOL    HW273618   6.460   2.760   9.339  0.0650  1.1579 -1.7793
23981SOL     OW73619   9.223   1.984   8.148  0.0422 -0.4280 -0.0735
23981SOL    HW173620   9.248   1.979   8.056 -0.5701  1.1925 -0.3446
23981SOL    HW273621   9.148   2.043   8.149 -0.3318 -0.9207  1.3937
23982SOL     OW73622   0.748   3.205   8.237  0.4688  0.6519  0.0811
23982SOL    HW173623   0.785   3.185   8.323 -2.3797 -2.6366  0.6693
23982SOL    HW273624   0.811   3.168   8.175  2.2529  2.5334  0.7072
23983SOL     OW73625   4.220   6.795   1.727 -0.4305 -0.6624 -0.0733
23983SOL    HW173626   4.137   6.754   1.705 -0.2445 -0.5871 -0.9240
23983SOL    HW273627   4.220   6.798   1.823 -0.2732 -2.9970  0.0321
23984SOL     OW73628   2.340   2.536   1.787  0.0906 -0.5548  0.4242
23984SOL    HW173629   2.399   2.482   1.734  0.3371 -0.5618  0.7018
23984SOL    HW273630   2.383   2.621   1.792 -0.4383 -0.2423 -0.2532
23985SOL     OW73631   4.415   5.067   7.176 -0.2477 -0.6438 -0.2185
23985SOL    HW173632   4.324   5.082   7.151  0.0480 -0.0452 -0.9737
23985SOL    HW273633   4.435   4.979   7.144 -0.5103 -0.7128 -0.1970
23986SOL     OW73634   8.854   4.633   8.449 -0.1510 -0.5586  0.6960
23986SOL    HW173635   8.940   4.668   8.475  0.9664 -2.6595 -0.0305
23986SOL    HW273636   8.854   4.638   8.354  0.2762 -2.9329  0.5228
23987SOL     OW73637   2.269   7.755   3.329 -0.0661 -0.5393 -0.0038
23987SOL    HW173638   2.309   7.780   3.412  0.7225 -0.7069 -0.3300
23987SOL    HW273639   2.224   7.672   3.348 -0.4997 -0.2100  0.4295
23988SOL     OW73640   3.566   5.112   3.950 -0.0559 -0.1525 -0.0333
23988SOL    HW173641   3.549   5.018   3.945 -0.6242 -0.0941  0.6782
23988SOL    HW273642   3.661   5.120   3.938  0.3683 -1.0476  2.3957
23989SOL     OW73643   5.803   3.869   7.658  0.1588  0.3407 -0.5250
23989SOL    HW173644   5.877   3.808   7.661  2.0722  2.6129 -0.3357
23989SOL    HW273645   5.727   3.815   7.680  1.9200 -1.7752  0.5778
23990SOL     OW73646   4.978   1.620   0.610  0.4996 -0.6506  0.3416
23990SOL    HW173647   4.957   1.547   0.552 -1.6427 -0.3579  0.7126
23990SOL    HW273648   5.053   1.663   0.568 -1.3837 -0.0473 -2.5884
23991SOL     OW73649   7.552   5.353   5.308  0.4957 -0.3012  0.5737
23991SOL    HW173650   7.463   5.350   5.341  0.5490 -1.1977  0.6395
23991SOL    HW273651   7.605   5.317   5.379  1.0285  1.1294  0.9205
23992SOL     OW73652   0.871   5.826   2.992  0.2925  0.5094  0.3655
23992SOL    HW173653   0.898   5.737   3.012  0.8729  1.1326  2.5255
23992SOL    HW273654   0.779   5.830   3.021 -0.2876  0.1258 -1.3665
23993SOL     OW73655   0.531   0.774   1.778 -0.5999 -0.0322  0.2759
23993SOL    HW173656   0.444   0.805   1.755 -0.1256  1.8766  0.9451
23993SOL    HW273657   0.523   0.741   1.867 -0.2620  1.8200  1.0100
23994SOL     OW73658   3.359   2.266   2.018  0.0936  0.0481  0.2717
23994SOL    HW173659   3.312   2.248   2.099 -0.6030  0.2870 -0.0780
23994SOL    HW273660   3.298   2.318   1.966  1.1773  1.3811  0.2945
23995SOL     OW73661   1.856   4.290   7.105 -0.6184  0.3618 -0.7477
23995SOL    HW173662   1.769   4.250   7.104  0.0413 -1.1272  0.3889
23995SOL    HW273663   1.852   4.354   7.176 -0.6504 -0.0123 -0.4116
23996SOL     OW73664   0.016   3.117   6.324 -0.6249  0.2241 -0.2716
23996SOL    HW173665  -0.011   3.027   6.341 -0.5622  0.7847  3.1507
23996SOL    HW273666   0.111   3.115   6.332 -0.4687  0.2842 -1.9455
23997SOL     OW73667   0.331   8.953   7.270  0.1558 -0.5150  0.3976
23997SOL    HW173668   0.396   9.012   7.308  0.0415 -0.3412  0.3250
23997SOL    HW273669   0.383   8.882   7.233  0.3753  0.0610 -0.4330
23998SOL     OW73670   9.065   8.912   2.801 -0.4000  0.4825  0.1412
23998SOL    HW173671   9.069   8.837   2.861 -0.2344  0.2467 -0.1625
23998SOL    HW273672   9.153   8.917   2.764 -0.2625  1.1484  0.5459
23999SOL     OW73673   2.617   8.702   4.363  0.0151 -0.1873 -0.3068
23999SOL    HW173674   2.619   8.649   4.443 -1.2758 -3.3233 -2.2523
23999SOL    HW273675   2.524   8.714   4.344  0.3115  1.2260 -0.9165
24000SOL     OW73676   1.211   5.009   2.889 -0.2976 -0.0095  0.4628
24000SOL    HW173677   1.124   4.970   2.881 -1.0519  1.6069  0.4169
24000SOL    HW273678   1.253   4.995   2.804 -1.2444  0.8539 -0.1588
24001SOL     OW73679   3.875   3.118   5.538  0.2314 -0.0571 -0.1382
24001SOL    HW173680   3.926   3.169   5.600  1.3239 -1.6546  0.3191
24001SOL    HW273681   3.788   3.157   5.539  0.6253  0.7867  1.3685
24002SOL     OW73682   3.266   6.484   7.694 -0.3371 -0.3123  0.7558
24002SOL    HW173683   3.248   6.487   7.600 -1.5581  1.2560  1.0287
24002SOL    HW273684   3.336   6.548   7.707 -0.5574 -0.1156  0.9883
24003SOL     OW73685   8.358   1.776   1.311  0.4704 -0.6350  0.2472
24003SOL    HW173686   8.281   1.747   1.262  1.4433 -1.1738 -1.0070
24003SOL    HW273687   8.365   1.716   1.384 -0.0103 -0.9005  0.0762
24004SOL     OW73688   6.591   4.399   4.107  0.7382  0.6533  0.1998
24004SOL    HW173689   6.499   4.428   4.103  0.4583 -0.0447  1.3574
24004SOL    HW273690   6.613   4.380   4.016 -0.3025  0.7247 -0.0826
24005SOL     OW73691   9.134   6.616   4.770  0.1538 -0.0407 -0.1712
24005SOL    HW173692   9.223   6.643   4.750  0.3957 -0.8783 -0.2291
24005SOL    HW273693   9.120   6.536   4.720 -1.2329  1.0072 -1.5241
24006SOL     OW73694   1.028   0.923   2.054  0.4590  0.1945  0.5428
24006SOL    HW173695   0.947   0.891   2.014  1.0348 -0.1523 -0.3697
24006SOL    HW273696   1.097   0.887   1.998  1.2959 -0.6109  2.0830
24007SOL     OW73697   6.148   4.589   0.784 -0.0452 -0.2373 -0.5733
24007SOL    HW173698   6.065   4.608   0.828 -0.1471 -0.5654 -0.6258
24007SOL    HW273699   6.172   4.672   0.742  0.7641  0.4687  1.2556
24008SOL     OW73700   5.026   5.149   6.796 -0.1099  0.3133  0.3401
24008SOL    HW173701   5.013   5.211   6.868 -0.8402 -0.5100  0.9327
24008SOL    HW273702   4.943   5.151   6.748  0.1515  0.3881 -0.1108
24009SOL     OW73703   2.231   4.488   5.776  0.0968 -0.3723  0.2716
24009SOL    HW173704   2.161   4.467   5.838  0.1949 -1.5383  0.0057
24009SOL    HW273705   2.279   4.560   5.817 -0.8866  0.0284  0.7340
24010SOL     OW73706   5.936   3.763   1.613 -0.0319  0.0860 -0.2557
24010SOL    HW173707   5.946   3.853   1.643  0.3597 -0.0291 -0.0329
24010SOL    HW273708   6.015   3.745   1.563  0.0465 -0.2412 -0.0202
24011SOL     OW73709   3.331   7.062   7.712  0.2467 -0.5682  0.2468
24011SOL    HW173710   3.421   7.073   7.744 -0.2579 -1.5700  2.1187
24011SOL    HW273711   3.322   7.126   7.642  2.4459 -0.5109 -0.0155
24012SOL     OW73712   2.731   2.963   7.437  0.0151  0.1102  0.5136
24012SOL    HW173713   2.758   3.039   7.384  0.2845  0.2927  0.9064
24012SOL    HW273714   2.635   2.968   7.439  0.0542  0.7264  0.9531
24013SOL     OW73715   2.155   1.929   0.316 -0.2328 -0.2896 -0.3764
24013SOL    HW173716   2.074   1.965   0.281 -0.9826  0.2943  1.8815
24013SOL    HW273717   2.129   1.850   0.362  0.6125 -0.5625 -0.3495
24014SOL     OW73718   0.988   6.178   0.725  0.1125  0.2812  0.6319
24014SOL    HW173719   1.054   6.220   0.670  0.4716 -0.3125  0.6042
24014SOL    HW273720   0.950   6.249   0.776  0.7854  0.6212  0.6613
24015SOL     OW73721   2.079   7.472   2.468 -0.0704  0.2177 -0.3566
24015SOL    HW173722   2.085   7.448   2.376 -0.7561  0.4754 -0.4738
24015SOL    HW273723   1.999   7.525   2.474 -0.7552 -0.8942  0.6225
24016SOL     OW73724   5.025   4.879   8.173  0.3588 -0.2979  0.4766
24016SOL    HW173725   5.088   4.943   8.206 -1.4098  1.7258  0.0827
24016SOL    HW273726   4.968   4.861   8.247 -2.0077  2.2455 -0.6350
24017SOL     OW73727   4.801   3.497   3.549  0.0761  0.5396 -0.0501
24017SOL    HW173728   4.723   3.448   3.577 -0.1707  0.9901  0.0629
24017SOL    HW273729   4.869   3.471   3.612 -0.6413  2.0213  1.3953
24018SOL     OW73730   2.212   0.918   5.621  0.2956 -0.1105 -0.2717
24018SOL    HW173731   2.131   0.881   5.586  0.7608 -1.2560 -0.1617
24018SOL    HW273732   2.227   0.871   5.703  0.0584  1.4571  0.6842
24019SOL     OW73733   2.592   2.286   3.790  0.2106  0.2280  0.6834
24019SOL    HW173734   2.519   2.224   3.788  0.1928  0.2460  0.7562
24019SOL    HW273735   2.611   2.304   3.698 -0.5144  0.9624  0.6656
24020SOL     OW73736   7.624   5.491   1.805  0.1324 -0.0360  0.6797
24020SOL    HW173737   7.577   5.408   1.814 -1.5348  0.7052 -0.8058
24020SOL    HW273738   7.556   5.558   1.815  1.2096  1.1193  0.3987
24021SOL     OW73739   8.228   6.832   2.380 -0.2749 -0.0950 -0.0577
24021SOL    HW173740   8.151   6.790   2.342  0.5930 -3.6893  1.9010
24021SOL    HW273741   8.214   6.828   2.475  1.0680  1.7088  0.2459
24022SOL     OW73742   4.724   0.635   2.823  0.3913 -0.4128 -0.2226
24022SOL    HW173743   4.787   0.602   2.887  1.3996 -0.3600 -1.1761
24022SOL    HW273744   4.764   0.715   2.788  0.7378 -1.4461 -2.2786
24023SOL     OW73745   3.864   7.212   7.784  0.3166 -0.1432 -0.4893
24023SOL    HW173746   3.917   7.137   7.814 -1.7887 -1.4906 -0.0135
24023SOL    HW273747   3.907   7.240   7.703  2.5524 -0.3096  0.5949
24024SOL     OW73748   8.912   0.573   8.752  0.0735  0.3789 -0.1462
24024SOL    HW173749   8.870   0.658   8.760  0.1357  0.5856 -1.7905
24024SOL    HW273750   8.938   0.550   8.841 -0.3621  1.8584  0.3747
24025SOL     OW73751   2.303   2.628   6.970  0.6233  0.6783  0.1669
24025SOL    HW173752   2.300   2.669   6.883 -1.7335  2.7967  1.2107
24025SOL    HW273753   2.258   2.544   6.959 -1.2703  1.7262 -0.2823
24026SOL     OW73754   3.096   2.532   4.185  0.3543  0.1811 -0.9082
24026SOL    HW173755   3.177   2.581   4.198  2.3642 -2.9016 -1.2159
24026SOL    HW273756   3.028   2.586   4.226  2.8879  1.8423  1.2569
24027SOL     OW73757   6.963   4.368   1.573 -0.4247 -0.0657  0.1824
24027SOL    HW173758   6.952   4.415   1.656 -0.1683  0.1616  0.0884
24027SOL    HW273759   6.905   4.292   1.581 -0.9200  0.3227  0.2902
24028SOL     OW73760   5.641   5.589   1.778 -0.1879 -0.0439  0.2946
24028SOL    HW173761   5.720   5.642   1.789 -0.0724  0.0768 -1.0552
24028SOL    HW273762   5.673   5.498   1.782 -0.0054  0.0041 -0.0025
24029SOL     OW73763   5.729   3.718   0.984  0.3008  0.0152  0.3604
24029SOL    HW173764   5.678   3.739   0.906 -2.8448 -0.5988  2.1615
24029SOL    HW273765   5.746   3.803   1.025  1.0185  0.2450 -0.3908
24030SOL     OW73766   4.316   3.390   2.862  0.2787  0.6154  0.7564
24030SOL    HW173767   4.349   3.338   2.935 -0.6161 -0.1312  0.6398
24030SOL    HW273768   4.230   3.420   2.891 -0.0682  0.3410  0.0184
24031SOL     OW73769   0.488   4.906   2.709 -0.5356 -0.5062  0.4061
24031SOL    HW173770   0.454   4.968   2.774 -0.6706  1.5261 -1.5405
24031SOL    HW273771   0.411   4.878   2.660 -0.1900 -0.4200 -0.2006
24032SOL     OW73772   1.342   2.410   4.538 -0.2695 -0.4045 -0.3898
24032SOL    HW173773   1.343   2.329   4.590  0.1740 -0.7120 -0.8696
24032SOL    HW273774   1.398   2.470   4.587 -1.6520  0.0608  0.6562
24033SOL     OW73775   4.593   4.404   8.339  0.3715 -0.4770 -0.2209
24033SOL    HW173776   4.526   4.336   8.333 -0.9331  0.6525  1.2113
24033SOL    HW273777   4.586   4.437   8.428  2.2716  0.2583 -0.3125
24034SOL     OW73778   3.940   5.160   0.687 -0.2569 -0.0558 -0.7620
24034SOL    HW173779   3.916   5.102   0.759 -0.4214 -1.4714 -1.9186
24034SOL    HW273780   3.886   5.130   0.613 -0.9171  2.0794 -1.1898
24035SOL     OW73781   3.513   8.156   7.671 -0.0445  0.9840  0.6151
24035SOL    HW173782   3.470   8.077   7.640  2.0601  0.5285 -1.2364
24035SOL    HW273783   3.464   8.228   7.631 -0.3491  0.5492  0.2151
24036SOL     OW73784   4.757   8.536   6.328 -0.3578  0.1745 -0.1094
24036SOL    HW173785   4.686   8.592   6.359  0.6741  0.9968  0.7830
24036SOL    HW273786   4.712   8.464   6.282 -1.8187 -0.0512  1.6059
24037SOL     OW73787   0.511   8.585   5.511 -0.2625  0.1235  0.4765
24037SOL    HW173788   0.523   8.517   5.577  1.5240 -0.4745 -0.4425
24037SOL    HW273789   0.513   8.667   5.561 -0.3879 -0.3936  1.3380
24038SOL     OW73790   0.626   5.049   7.742  0.3637  0.7700  0.4778
24038SOL    HW173791   0.585   5.056   7.656 -1.1258  1.4497  1.2228
24038SOL    HW273792   0.622   4.955   7.763  0.7036  0.6086 -0.1698
24039SOL     OW73793   6.480   8.397   3.494  0.4803 -0.1065 -1.2797
24039SOL    HW173794   6.393   8.427   3.469 -0.7747 -0.7598  2.0247
24039SOL    HW273795   6.466   8.308   3.528  2.3313 -0.0377 -0.2621
24040SOL     OW73796   3.986   2.455   0.357  0.0910  0.1190  0.0857
24040SOL    HW173797   3.935   2.373   0.354 -0.8651  0.6618  1.1579
24040SOL    HW273798   3.966   2.499   0.274  0.0689 -0.4047 -0.1908
24041SOL     OW73799   9.015   8.123   5.701 -0.4642 -0.0283 -0.5681
24041SOL    HW173800   9.011   8.114   5.797 -0.6174  0.8504 -0.4915
24041SOL    HW273801   8.971   8.044   5.669  0.1320 -0.6341  0.0745
24042SOL     OW73802   0.675   0.846   6.704  0.0367 -0.3231 -0.4922
24042SOL    HW173803   0.653   0.914   6.640 -0.1971  0.3529  0.2826
24042SOL    HW273804   0.720   0.894   6.774  0.7365 -1.1294 -0.3829
24043SOL     OW73805   8.272   2.966   5.548 -0.1980  0.3001 -0.1279
24043SOL    HW173806   8.277   2.909   5.625  1.9470 -0.5510 -0.8576
24043SOL    HW273807   8.198   3.023   5.566 -1.4466 -1.6842  1.3387
24044SOL     OW73808   9.066   2.837   8.549 -0.3440 -0.1380 -0.6735
24044SOL    HW173809   9.046   2.777   8.477 -2.2124  0.8227 -0.9613
24044SOL    HW273810   8.983   2.848   8.595  0.2303  1.3897  0.0132
24045SOL     OW73811   7.232   8.278   3.295  0.0503  0.2899  0.3249
24045SOL    HW173812   7.240   8.246   3.385 -0.2702  0.7263  0.5114
24045SOL    HW273813   7.192   8.364   3.304 -1.3960 -0.2840 -0.3225
24046SOL     OW73814   8.502   0.394   4.018 -0.4173  0.4919 -0.4234
24046SOL    HW173815   8.500   0.351   3.933  0.7338  0.1059 -0.2659
24046SOL    HW273816   8.462   0.331   4.078  0.7271 -0.1358 -0.3007
24047SOL     OW73817   4.662   3.539   0.527  0.2099  0.0163 -0.4211
24047SOL    HW173818   4.685   3.602   0.459 -1.4761  0.7498 -0.3286
24047SOL    HW273819   4.567   3.532   0.523  0.2285 -1.2234  0.7245
24048SOL     OW73820   2.272   4.291   6.438  0.4424  0.2189  0.5350
24048SOL    HW173821   2.244   4.364   6.382  1.4940  0.0965 -0.1667
24048SOL    HW273822   2.194   4.266   6.486 -0.9998 -0.9939 -2.3445
24049SOL     OW73823   2.151   6.891   3.383 -0.7812 -0.0988 -0.2264
24049SOL    HW173824   2.064   6.900   3.345  0.1547  2.7051 -1.8335
24049SOL    HW273825   2.191   6.978   3.375  2.0079 -1.1929  0.9029
24050SOL     OW73826   6.987   0.888   3.608 -0.1624  0.2942  0.2834
24050SOL    HW173827   7.004   0.889   3.703  0.3592  1.9335  0.1806
24050SOL    HW273828   7.069   0.859   3.569 -0.3100 -0.1687  0.3094
24051SOL     OW73829   8.267   2.554   8.618 -0.7196 -0.2975  0.1208
24051SOL    HW173830   8.339   2.500   8.651 -1.0760  0.1381  1.6441
24051SOL    HW273831   8.309   2.631   8.582 -0.2860 -1.0379 -0.9892
24052SOL     OW73832   5.396   8.040   1.959 -0.4225  0.1804  0.2276
24052SOL    HW173833   5.414   8.104   1.890  2.0870  1.0713  1.6221
24052SOL    HW273834   5.391   8.092   2.040  1.0546 -1.2511  1.2901
24053SOL     OW73835   6.320   1.758   4.636  0.2979 -0.2530  0.6876
24053SOL    HW173836   6.226   1.763   4.654  0.5440 -2.5275  2.7303
24053SOL    HW273837   6.339   1.841   4.591 -2.6011  0.3892  0.5118
24054SOL     OW73838   8.464   6.580   2.056 -0.4612 -0.5244 -0.7689
24054SOL    HW173839   8.459   6.657   2.000  1.5752 -0.0318 -0.3012
24054SOL    HW273840   8.484   6.508   1.996  0.1528 -0.2660 -0.8717
24055SOL     OW73841   9.256   1.517   3.195  0.0015  0.1777 -0.2882
24055SOL    HW173842   9.185   1.561   3.241  1.8895  2.5438  0.4555
24055SOL    HW273843   9.271   1.437   3.245 -2.0106 -0.3112 -0.3924
24056SOL     OW73844   5.740   1.574   5.209  0.1490  0.5267 -0.3826
24056SOL    HW173845   5.707   1.661   5.185  1.6967  1.5861  1.1832
24056SOL    HW273846   5.832   1.574   5.180  0.9508  0.4570  2.0566
24057SOL     OW73847   3.459   4.629   4.687 -0.5066 -0.5597 -0.1693
24057SOL    HW173848   3.546   4.595   4.705  0.8541  0.8696 -3.6510
24057SOL    HW273849   3.446   4.697   4.753  1.2959 -0.2702 -0.0945
24058SOL     OW73850   3.089   9.286   7.634  0.1461  0.2752 -0.1347
24058SOL    HW173851   3.099   9.197   7.668  0.2981  0.2609 -0.2173
24058SOL    HW273852   3.030   9.277   7.560  0.5272  0.1716 -0.4313
24059SOL     OW73853   5.060   7.533   2.182  0.1264  0.7330  0.3813
24059SOL    HW173854   5.039   7.495   2.268  1.7499  2.2179  1.4590
24059SOL    HW273855   5.127   7.475   2.147 -0.3101  0.3065  0.2370
24060SOL     OW73856   3.980   0.129   8.724  0.0096 -0.3817  0.1559
24060SOL    HW173857   3.901   0.078   8.742 -0.1979  0.5539  2.0621
24060SOL    HW273858   4.027   0.131   8.807  1.4255  0.1464 -0.6337
24061SOL     OW73859   1.669   3.351   3.260  0.4409  0.1946  0.1160
24061SOL    HW173860   1.707   3.331   3.346  0.8841 -1.1859 -0.3814
24061SOL    HW273861   1.677   3.446   3.252 -0.7734  0.5116  2.1408
24062SOL     OW73862   0.158   5.321   6.417 -0.0477 -0.2121  0.5062
24062SOL    HW173863   0.086   5.377   6.446 -0.1522  1.9976 -3.6454
24062SOL    HW273864   0.235   5.377   6.421  0.2455 -0.4332 -1.4639
24063SOL     OW73865   5.816   4.151   6.424 -0.0584  0.8686  0.4726
24063SOL    HW173866   5.826   4.213   6.496  1.6517  0.1442  0.8831
24063SOL    HW273867   5.876   4.182   6.356 -0.2533  0.4815  0.1195
24064SOL     OW73868   4.514   8.858   6.623 -0.6037 -0.1593 -0.0540
24064SOL    HW173869   4.439   8.917   6.629  1.1607  1.9560  2.1710
24064SOL    HW273870   4.533   8.833   6.713  2.0443  0.2326 -0.4472
24065SOL     OW73871   0.759   1.282   8.838  0.2613  0.2948  0.0437
24065SOL    HW173872   0.831   1.219   8.841  0.2854  0.3668  0.9087
24065SOL    HW273873   0.795   1.357   8.790  1.1335  0.7987  1.4582
24066SOL     OW73874   1.182   5.449   3.330  0.4059 -0.3703  0.2731
24066SOL    HW173875   1.107   5.447   3.390 -0.0279  0.8433 -0.2203
24066SOL    HW273876   1.252   5.491   3.380  0.3834 -0.3775  0.3106
24067SOL     OW73877   8.950   0.727   4.154  0.0690  0.4996 -0.0238
24067SOL    HW173878   8.992   0.759   4.074 -2.8474  1.1022 -1.3672
24067SOL    HW273879   8.867   0.774   4.158 -1.7174 -2.6079  1.0915
24068SOL     OW73880   2.925   7.004   1.604  0.5478 -0.5668 -0.0136
24068SOL    HW173881   2.893   6.958   1.681  1.2507 -0.3548  0.4024
24068SOL    HW273882   2.872   7.084   1.600  0.7617 -0.4040  0.4513
24069SOL     OW73883   7.929   4.129   2.426 -0.3035 -0.2372 -0.7535
24069SOL    HW173884   7.903   4.147   2.516 -1.2314 -1.7900 -0.6723
24069SOL    HW273885   7.999   4.064   2.434 -0.5936 -0.6040 -1.1440
24070SOL     OW73886   0.294   5.348   7.486 -0.3956  0.5140 -0.4282
24070SOL    HW173887   0.255   5.335   7.399 -0.1700  0.9324 -0.5950
24070SOL    HW273888   0.229   5.315   7.547 -0.7085  0.5496 -0.7415
24071SOL     OW73889   1.426   0.605   5.135 -0.1847  0.4254  0.0446
24071SOL    HW173890   1.490   0.616   5.065  0.2803  0.1554  0.4240
24071SOL    HW273891   1.341   0.607   5.091  0.1338 -0.5581 -0.6310
24072SOL     OW73892   8.151   5.937   6.811  0.2488  0.2098  0.8614
24072SOL    HW173893   8.244   5.918   6.828  0.0626  1.4463  3.4610
24072SOL    HW273894   8.106   5.855   6.830  0.8818 -0.7501 -1.5525
24073SOL     OW73895   6.592   0.596   7.641 -0.3286 -0.2536 -0.3981
24073SOL    HW173896   6.592   0.545   7.722  0.7663  1.8481  0.9717
24073SOL    HW273897   6.595   0.687   7.670 -1.0135  0.5602 -2.8034
24074SOL     OW73898   2.791   4.746   0.581  0.5107  0.4198  0.3525
24074SOL    HW173899   2.744   4.766   0.501  1.2181  0.2608 -0.1137
24074SOL    HW273900   2.740   4.677   0.623 -0.7775  1.6861  0.8982
24075SOL     OW73901   2.568   4.686   7.811 -0.4731 -0.3552  0.3392
24075SOL    HW173902   2.634   4.741   7.855  0.6867 -0.3223 -1.4080
24075SOL    HW273903   2.589   4.597   7.839  1.1009 -0.4788 -1.1610
24076SOL     OW73904   5.971   7.345   3.685 -0.4198  0.1131  0.4684
24076SOL    HW173905   5.969   7.255   3.716 -0.5447  0.3109  1.0427
24076SOL    HW273906   6.054   7.352   3.637  0.4632  0.1949  1.9724
24077SOL     OW73907   2.881   6.920   8.526 -0.1206 -0.2928  0.2238
24077SOL    HW173908   2.968   6.958   8.541  0.2562 -0.0265 -2.4169
24077SOL    HW273909   2.821   6.993   8.539 -0.0144 -0.5726  2.4744
24078SOL     OW73910   8.430   6.469   7.982  0.1749 -0.3707  0.0815
24078SOL    HW173911   8.438   6.556   7.943 -4.0680  0.2404  0.3837
24078SOL    HW273912   8.460   6.481   8.073  1.5695  0.2511 -0.4414
24079SOL     OW73913   0.898   2.329   7.876  0.3863  0.0865  0.0834
24079SOL    HW173914   0.855   2.372   7.802  0.5081  1.6334  0.8827
24079SOL    HW273915   0.977   2.381   7.892  2.5962 -2.6623 -1.3131
24080SOL     OW73916   6.366   8.007   6.397 -0.2625  0.0023  0.0101
24080SOL    HW173917   6.359   8.016   6.302  0.5287 -1.0197 -0.1619
24080SOL    HW273918   6.291   7.952   6.421 -0.4747  0.2765 -0.0245
24081SOL     OW73919   8.461   2.309   4.019 -0.2074  0.2046  0.3210
24081SOL    HW173920   8.378   2.341   4.054 -0.3066  1.3931 -0.9584
24081SOL    HW273921   8.508   2.276   4.096 -2.6556 -2.3937  0.8117
24082SOL     OW73922   0.917   3.891   2.790 -0.2287  0.6931 -0.4754
24082SOL    HW173923   0.866   3.870   2.869 -0.7137  0.3948 -0.8688
24082SOL    HW273924   1.008   3.873   2.816 -0.5718 -1.4161 -0.6236
24083SOL     OW73925   7.669   0.211   0.145  0.6504 -0.6507  0.9554
24083SOL    HW173926   7.668   0.243   0.236 -2.0266 -0.6965  0.9829
24083SOL    HW273927   7.649   0.288   0.093  1.5659 -0.7616  0.4258
24084SOL     OW73928   3.547   5.040   3.312 -0.4048 -0.1478 -0.5647
24084SOL    HW173929   3.497   4.995   3.244  0.3062 -0.1514 -1.0885
24084SOL    HW273930   3.631   5.059   3.271 -0.8565  2.0915 -0.5240
24085SOL     OW73931   7.030   2.996   2.553  0.3203  0.8224  0.2064
24085SOL    HW173932   7.023   3.054   2.477  0.5719  0.9656  0.2939
24085SOL    HW273933   7.101   2.936   2.531 -1.7613 -1.2619 -1.1007
24086SOL     OW73934   0.333   5.424   4.407  0.3291 -0.5068  0.1612
24086SOL    HW173935   0.281   5.350   4.378 -1.2814  0.8795 -0.5762
24086SOL    HW273936   0.343   5.411   4.502 -2.3888 -0.1823  0.5220
24087SOL     OW73937   1.963   6.214   0.603 -0.8637  0.2403 -0.5207
24087SOL    HW173938   1.911   6.150   0.652  0.3133  0.5068  1.1329
24087SOL    HW273939   1.904   6.289   0.591 -1.8867 -0.7026 -1.4977
24088SOL     OW73940   4.268   1.720   0.505 -0.1702  0.9652 -0.5838
24088SOL    HW173941   4.291   1.772   0.582 -0.4236  1.0314 -0.5528
24088SOL    HW273942   4.242   1.785   0.439  0.4981  0.9370 -0.8786
24089SOL     OW73943   5.863   4.710   8.697 -0.2253 -0.4830  0.0494
24089SOL    HW173944   5.852   4.627   8.651 -2.3010  0.6655 -1.5687
24089SOL    HW273945   5.795   4.709   8.765 -0.6224  0.1165 -0.3306
24090SOL     OW73946   0.282   2.126   5.553  0.1907 -0.2309  0.0869
24090SOL    HW173947   0.344   2.183   5.507  0.5834 -0.7296 -0.0075
24090SOL    HW273948   0.200   2.135   5.505  0.2741  0.1923  0.0218
24091SOL     OW73949   4.227   2.385   8.471 -0.0035 -0.4865 -0.7503
24091SOL    HW173950   4.291   2.387   8.542 -0.9943 -0.8356  0.1470
24091SOL    HW273951   4.142   2.377   8.514 -0.5922 -0.9706 -1.9776
24092SOL     OW73952   1.111   1.257   8.330  0.3128  0.5811  0.2603
24092SOL    HW173953   1.140   1.206   8.406  0.8329  1.4961  0.6858
24092SOL    HW273954   1.192   1.297   8.297 -0.3055  2.2723  0.7846
24093SOL     OW73955   3.909   3.427   7.975 -0.1280  0.4600 -0.3019
24093SOL    HW173956   3.830   3.475   7.950 -0.9804 -0.3664  0.7723
24093SOL    HW273957   3.904   3.345   7.927 -0.2126  0.1692  0.1989
24094SOL     OW73958   1.634   1.312   5.197 -0.2538  0.3931  0.0070
24094SOL    HW173959   1.593   1.276   5.276 -0.0252  1.1061  0.4537
24094SOL    HW273960   1.564   1.314   5.132 -0.7055  0.7875  0.5062
24095SOL     OW73961   2.036   5.825   4.026 -0.0008  0.1210 -0.1894
24095SOL    HW173962   2.017   5.745   4.074 -3.1788  1.1814  0.4701
24095SOL    HW273963   2.084   5.880   4.087 -0.0920 -0.2760  0.2380
24096SOL     OW73964   6.410   7.134   3.709 -0.5883 -0.0803 -0.1634
24096SOL    HW173965   6.394   7.066   3.644  0.9585  0.4928 -1.1960
24096SOL    HW273966   6.325   7.149   3.750 -0.9123 -2.7380  0.2232
24097SOL     OW73967   4.338   4.305   3.348 -0.0880  0.2819  0.2189
24097SOL    HW173968   4.398   4.238   3.317 -0.6714 -0.7363  1.2590
24097SOL    HW273969   4.382   4.388   3.328  2.5856 -0.4401  2.7483
24098SOL     OW73970   2.796   1.443   7.911 -0.0178  0.4308  0.6541
24098SOL    HW173971   2.837   1.529   7.901  1.9227 -0.4413  0.8625
24098SOL    HW273972   2.715   1.460   7.959  0.1255  2.1930  0.3019
24099SOL     OW73973   4.472   3.518   9.200  0.0389  0.1050 -0.2912
24099SOL    HW173974   4.554   3.484   9.236 -0.8154  0.4171  2.0637
24099SOL    HW273975   4.489   3.611   9.184 -0.0385  0.3236  0.8401
24100SOL     OW73976   0.928   6.051   9.108 -0.7056  0.3461  0.1917
24100SOL    HW173977   0.966   6.049   9.196 -0.3312  1.3523  0.0684
24100SOL    HW273978   0.980   5.988   9.058  0.2168  1.0215  0.2686
24101SOL     OW73979   3.133   9.221   4.479  0.3080 -0.4059  0.0282
24101SOL    HW173980   3.106   9.303   4.520 -1.3373  0.1326 -2.0439
24101SOL    HW273981   3.108   9.153   4.542 -0.8637  0.4806  0.5308
24102SOL     OW73982   8.299   3.212   6.760 -0.3229  0.3319  0.5078
24102SOL    HW173983   8.227   3.249   6.709 -0.3190 -0.3843 -0.0141
24102SOL    HW273984   8.290   3.254   6.846 -1.3150  0.3013  0.4302
24103SOL     OW73985   0.117   2.768   8.326 -0.0528  0.0211 -0.3875
24103SOL    HW173986   0.173   2.799   8.397 -0.0908 -0.9368  0.0774
24103SOL    HW273987   0.065   2.698   8.366 -0.6672  0.0374 -1.1448
24104SOL     OW73988   8.623   3.480   5.445  0.7695 -0.0736  0.2782
24104SOL    HW173989   8.532   3.458   5.424  0.0659 -0.1089  3.1894
24104SOL    HW273990   8.627   3.575   5.439  0.2451  0.0130  1.1345
24105SOL     OW73991   8.656   7.143   7.934  0.3005  0.0878 -0.2059
24105SOL    HW173992   8.726   7.198   7.969  0.2692  0.1388 -0.2251
24105SOL    HW273993   8.700   7.082   7.876  0.1721  0.9333 -1.2000
24106SOL     OW73994   2.283   2.677   0.146 -0.5608  0.5287  0.2382
24106SOL    HW173995   2.374   2.673   0.176 -0.6671 -0.0886  0.4802
24106SOL    HW273996   2.243   2.597   0.178 -0.8075  0.0742 -1.1624
24107SOL     OW73997   5.358   8.954   6.223 -0.4240 -0.0006  0.1418
24107SOL    HW173998   5.411   8.996   6.291  0.1727 -0.7532  0.1385
24107SOL    HW273999   5.415   8.888   6.185 -0.2530  1.3802 -2.0755
24108SOL     OW74000   0.556   5.516   2.755  0.1306  0.3407  1.0794
24108SOL    HW174001   0.588   5.427   2.769 -0.7772 -0.8327 -3.4206
24108SOL    HW274002   0.481   5.524   2.814  0.6962 -1.6214  2.0918
24109SOL     OW74003   6.590   1.997   5.095  0.1522  0.2584 -0.1517
24109SOL    HW174004   6.568   1.923   5.039 -0.3443 -0.2760  0.7513
24109SOL    HW274005   6.562   2.074   5.045 -1.8025 -0.2907  0.0522
24110SOL     OW74006   1.433   5.548   9.208 -0.3200  0.6030 -0.1950
24110SOL    HW174007   1.371   5.599   9.259 -0.3005  1.2742 -0.8394
24110SOL    HW274008   1.406   5.560   9.117 -1.5577 -2.1669 -0.2409
24111SOL     OW74009   8.609   8.696   4.206 -0.0043 -0.3351  0.0098
24111SOL    HW174010   8.516   8.681   4.225  0.0990 -1.2629 -0.2211
24111SOL    HW274011   8.631   8.774   4.258 -0.3860 -1.3304  1.7005
24112SOL     OW74012   7.825   0.536   5.999  0.1494 -0.0935  0.0819
24112SOL    HW174013   7.816   0.520   6.093 -0.7892  0.9317  0.1777
24112SOL    HW274014   7.914   0.570   5.989 -0.6487  2.3422  0.9845
24113SOL     OW74015   4.499   6.457   5.018  0.3886  0.1774  0.0107
24113SOL    HW174016   4.420   6.411   4.993 -0.1519  0.4464  1.1647
24113SOL    HW274017   4.467   6.538   5.059  1.2253 -0.0971  1.2361
24114SOL     OW74018   9.225   5.084   1.825  0.1395  0.4568  0.2525
24114SOL    HW174019   9.167   5.008   1.826 -0.0276  0.5820  0.1214
24114SOL    HW274020   9.226   5.113   1.734  0.4676  0.4116  0.2383
24115SOL     OW74021   8.924   1.601   6.807 -0.6453 -0.3627 -0.7580
24115SOL    HW174022   8.897   1.586   6.716  0.5344 -3.1698 -0.6820
24115SOL    HW274023   8.980   1.526   6.828 -1.7667 -0.3266  2.6385
24116SOL     OW74024   3.189   8.358   2.856  0.7611 -0.0132  0.2635
24116SOL    HW174025   3.229   8.445   2.855 -2.1631  1.3807  0.0201
24116SOL    HW274026   3.154   8.346   2.768 -3.3869  0.8145  1.6696
24117SOL     OW74027   8.215   4.384   2.447 -0.0252  0.3151 -0.1814
24117SOL    HW174028   8.259   4.314   2.496 -1.1057 -0.0583  0.2772
24117SOL    HW274029   8.261   4.463   2.473  1.7386 -0.3013 -1.3218
24118SOL     OW74030   3.508   2.930   8.254  0.1072 -0.4142 -0.3185
24118SOL    HW174031   3.570   2.859   8.268  1.9348  0.7784 -2.0515
24118SOL    HW274032   3.523   2.990   8.327 -1.1767 -1.5951  0.9399
24119SOL     OW74033   2.470   7.334   7.408 -0.2902  0.1861 -0.3617
24119SOL    HW174034   2.493   7.414   7.361  1.9997  0.5133  1.2358
24119SOL    HW274035   2.507   7.346   7.495 -2.6099 -1.3274  0.8613
24120SOL     OW74036   7.986   8.161   8.818  0.2352  0.2594  0.3573
24120SOL    HW174037   7.902   8.131   8.786  1.0903 -0.6904 -1.0470
24120SOL    HW274038   8.041   8.170   8.740  1.4542  0.8308  1.2397
24121SOL     OW74039   8.939   2.866   0.979  0.2311  0.4124  0.1230
24121SOL    HW174040   9.015   2.918   1.007 -0.5634  0.8310  1.5324
24121SOL    HW274041   8.883   2.861   1.057 -1.1975  0.1173 -0.9079
24122SOL     OW74042   1.161   6.252   8.188 -0.0855  0.0927  0.1322
24122SOL    HW174043   1.101   6.320   8.157 -0.5768 -1.1114 -1.6284
24122SOL    HW274044   1.128   6.229   8.275 -1.3031  0.4648 -0.2209
24123SOL     OW74045   7.777   0.885   3.127 -0.2064  0.2581  0.1941
24123SOL    HW174046   7.709   0.828   3.161  0.9170 -0.3495  1.5036
24123SOL    HW274047   7.743   0.973   3.140 -0.3530 -0.0039  1.7817
24124SOL     OW74048   0.578   3.238   8.817  0.6030  0.4056  0.3606
24124SOL    HW174049   0.597   3.320   8.862 -1.7700 -0.1978  2.6254
24124SOL    HW274050   0.556   3.264   8.728  0.6288  2.1727  0.8461
24125SOL     OW74051   7.624   2.726   1.444  0.3785  0.2765 -0.3337
24125SOL    HW174052   7.710   2.766   1.453  0.7454 -0.2773 -1.3576
24125SOL    HW274053   7.607   2.686   1.530  2.2659 -1.8416 -0.9218
24126SOL     OW74054   3.060   1.279   3.028  0.3376 -0.5896  0.0226
24126SOL    HW174055   3.074   1.244   2.940  0.2907  0.8480 -0.5811
24126SOL    HW274056   3.125   1.235   3.083  0.6851 -1.1450 -0.8238
24127SOL     OW74057   1.464   7.691   9.105  0.4850  0.2510  0.6572
24127SOL    HW174058   1.426   7.777   9.123  0.2130  0.2306  0.1917
24127SOL    HW274059   1.477   7.652   9.191 -0.0685  0.4663  0.8379
24128SOL     OW74060   7.739   8.408   9.073  0.1291 -0.6112 -0.0111
24128SOL    HW174061   7.759   8.449   9.157  0.8775 -0.2094 -0.3805
24128SOL    HW274062   7.653   8.369   9.085 -0.7104  1.2678  0.2827
24129SOL     OW74063   2.775   3.510   4.674 -0.3602 -0.0103 -0.6270
24129SOL    HW174064   2.692   3.500   4.626  0.2048  0.1118 -1.6365
24129SOL    HW274065   2.836   3.545   4.609  0.6602 -0.7099 -0.0484
24130SOL     OW74066   0.256   5.140   7.844  0.3731  0.0066  0.5695
24130SOL    HW174067   0.315   5.214   7.853 -1.2439  1.2938  0.8710
24130SOL    HW274068   0.244   5.107   7.933 -2.3975  2.2053  1.0714
24131SOL     OW74069   3.194   1.514   0.460  0.0359  0.3003  0.0238
24131SOL    HW174070   3.209   1.465   0.379 -1.7927  0.0727 -0.2018
24131SOL    HW274071   3.264   1.486   0.519  0.9646 -0.0715 -1.2338
24132SOL     OW74072   7.262   8.934   4.673  0.0656  0.3736  0.2392
24132SOL    HW174073   7.217   8.852   4.695 -0.3928  1.0700  1.9505
24132SOL    HW274074   7.341   8.906   4.627  0.7645 -1.1131  2.2624
24133SOL     OW74075   6.941   5.333   5.723  0.1762 -0.2180  0.5071
24133SOL    HW174076   7.017   5.374   5.682  0.0464 -0.2823  0.1997
24133SOL    HW274077   6.936   5.372   5.811  0.6278 -0.2932  0.5674
24134SOL     OW74078   6.315   7.959   4.267 -0.4172  0.3374  0.1287
24134SOL    HW174079   6.400   7.949   4.310  0.6376  0.5907 -1.8235
24134SOL    HW274080   6.279   7.871   4.265  0.9319 -0.2045 -1.2498
24135SOL     OW74081   2.255   9.273   7.211  0.5470 -0.3993  0.0832
24135SOL    HW174082   2.248   9.189   7.256 -0.4422 -0.2015  0.3010
24135SOL    HW274083   2.229   9.337   7.276  1.5970  0.1145  0.0103
24136SOL     OW74084   4.179   3.505   4.888 -0.1690 -0.5434 -0.2855
24136SOL    HW174085   4.087   3.519   4.910 -0.1747  0.1614 -0.7611
24136SOL    HW274086   4.211   3.445   4.956 -1.2275 -1.5659 -0.6949
24137SOL     OW74087   8.955   0.670   6.983 -0.3804 -0.0840  0.0282
24137SOL    HW174088   9.046   0.677   7.011 -0.1176 -1.5456 -0.4468
24137SOL    HW274089   8.951   0.721   6.901  0.3338 -1.1787 -0.6931
24138SOL     OW74090   0.826   6.093   1.117  0.2282  0.1032 -0.3775
24138SOL    HW174091   0.824   6.067   1.025  1.7041  0.1841 -0.4362
24138SOL    HW274092   0.896   6.158   1.123  0.2462 -0.0062  0.8282
24139SOL     OW74093   4.986   1.094   8.804  0.7396  0.0391  0.6330
24139SOL    HW174094   4.991   1.014   8.855 -0.0883 -1.6038 -1.7900
24139SOL    HW274095   4.892   1.110   8.792  0.8262  2.3572  2.5248
24140SOL     OW74096   2.637   8.385   7.843  0.0908  0.5978  0.7435
24140SOL    HW174097   2.672   8.458   7.792 -0.3408  0.0323 -0.3825
24140SOL    HW274098   2.714   8.345   7.883  0.3601  1.4877  1.1467
24141SOL     OW74099   0.994   9.222   1.840 -0.0534  0.2284 -0.3294
24141SOL    HW174100   1.035   9.141   1.872  0.1696  0.4896  0.0463
24141SOL    HW274101   0.953   9.260   1.917  1.1407  1.2572 -0.1965
24142SOL     OW74102   3.598   0.382   1.818 -0.0017  0.3054  0.4324
24142SOL    HW174103   3.558   0.318   1.877  0.2908 -0.5978 -0.3346
24142SOL    HW274104   3.652   0.330   1.758  2.3528  1.4902  1.4557
24143SOL     OW74105   9.200   1.209   6.752  0.2997 -0.0390 -0.1599
24143SOL    HW174106   9.206   1.140   6.818 -2.8479  0.8171  1.1632
24143SOL    HW274107   9.146   1.171   6.682 -2.0239  1.1874  0.8825
24144SOL     OW74108   7.950   0.500   7.701 -0.1665  0.2231  0.1228
24144SOL    HW174109   7.877   0.533   7.648 -0.0009  1.6589  0.7620
24144SOL    HW274110   7.938   0.541   7.787  1.5389  0.6945  0.1541
24145SOL     OW74111   2.616   0.752   6.235 -0.1796 -0.3727  0.0949
24145SOL    HW174112   2.636   0.762   6.142 -0.1654  1.2911  0.2678
24145SOL    HW274113   2.536   0.699   6.237  0.1841 -0.9627 -0.8383
24146SOL     OW74114   8.997   0.418   1.025  0.1403 -0.8422  0.1764
24146SOL    HW174115   9.010   0.513   1.033 -0.7884 -0.7697  0.9436
24146SOL    HW274116   9.019   0.399   0.934 -4.4257  0.9770 -1.4794
24147SOL     OW74117   2.564   7.012   3.718  0.0397 -0.2618 -0.5092
24147SOL    HW174118   2.553   7.064   3.798  0.5738  0.2610 -0.7763
24147SOL    HW274119   2.659   7.006   3.707 -0.0021 -1.6534 -0.2458
24148SOL     OW74120   6.492   5.649   6.293  0.4355  0.1330 -0.1185
24148SOL    HW174121   6.421   5.704   6.327  0.5806 -0.8628  1.8671
24148SOL    HW274122   6.502   5.677   6.202 -0.9920  1.8352  0.2123
24149SOL     OW74123   6.868   4.519   5.888  0.3793 -0.3753 -0.2589
24149SOL    HW174124   6.836   4.474   5.967  1.0525  2.4864  1.7031
24149SOL    HW274125   6.791   4.526   5.832 -0.6578 -0.3147  1.1601
24150SOL     OW74126   2.074   2.336   7.214  0.3339 -0.1613  0.6436
24150SOL    HW174127   2.115   2.385   7.286 -0.4621  0.7468  0.4905
24150SOL    HW274128   2.009   2.396   7.178  0.4265 -0.7641 -0.5666
24151SOL     OW74129   8.810   4.275   7.231 -0.3258  0.4831 -0.0391
24151SOL    HW174130   8.714   4.274   7.232 -0.3153  0.0840  0.7415
24151SOL    HW274131   8.835   4.184   7.249  0.1956  0.4527 -0.8946
24152SOL     OW74132   4.302   2.579   7.672  0.5301  0.1781 -0.0628
24152SOL    HW174133   4.294   2.673   7.656  0.9866  0.3409  0.6519
24152SOL    HW274134   4.308   2.571   7.767 -0.0684 -0.6192 -0.0913
24153SOL     OW74135   7.508   9.027   5.173  0.0287 -0.3603  0.1212
24153SOL    HW174136   7.559   9.054   5.249 -0.9680 -0.3772  0.8035
24153SOL    HW274137   7.512   9.102   5.113 -1.3255  0.6661  1.2892
24154SOL     OW74138   0.238   3.821   2.602 -0.3747  0.0600 -0.0317
24154SOL    HW174139   0.215   3.899   2.552  0.3374 -0.2682 -0.8912
24154SOL    HW274140   0.303   3.851   2.666 -0.1753  0.1831 -0.2955
24155SOL     OW74141   0.345   0.492   7.347  0.0135  0.0325  0.1595
24155SOL    HW174142   0.424   0.468   7.395  0.1826  0.7891  0.2561
24155SOL    HW274143   0.276   0.491   7.413 -0.2528 -1.6192 -0.1138
24156SOL     OW74144   7.737   3.446   1.455  0.1681  0.1485  0.1294
24156SOL    HW174145   7.725   3.494   1.372 -3.6083  0.1121  0.5585
24156SOL    HW274146   7.754   3.356   1.428  1.2849  0.5618 -0.6058
24157SOL     OW74147   3.709   2.188   4.277 -0.1729  0.2464  0.2648
24157SOL    HW174148   3.650   2.201   4.351 -0.9559 -1.0309 -0.1120
24157SOL    HW274149   3.745   2.100   4.290  0.3487  0.3562 -0.4023
24158SOL     OW74150   8.303   7.298   6.428 -0.6987  0.3975  0.0641
24158SOL    HW174151   8.305   7.394   6.431 -1.8107  0.4128  0.1912
24158SOL    HW274152   8.258   7.277   6.346  1.0372 -0.0341 -0.8261
24159SOL     OW74153   1.605   0.142   7.025  0.3857 -0.5806  0.4235
24159SOL    HW174154   1.585   0.103   6.940 -0.9417 -0.0469  0.4763
24159SOL    HW274155   1.682   0.197   7.009  0.9933 -1.5593 -0.1116
24160SOL     OW74156   4.815   2.456   5.066 -0.4821  0.2398  0.1367
24160SOL    HW174157   4.743   2.426   5.122 -0.7970  1.5630  0.4656
24160SOL    HW274158   4.893   2.450   5.120 -0.3985 -0.7977 -0.0850
24161SOL     OW74159   9.256   8.880   1.229 -0.0284  0.2841  0.2384
24161SOL    HW174160   9.285   8.816   1.294 -3.6050 -0.8501  0.8158
24161SOL    HW274161   9.261   8.834   1.145  0.8617  0.4839  0.1714
24162SOL     OW74162   7.003   5.026   4.376 -0.4296 -0.3329 -0.6344
24162SOL    HW174163   6.971   4.963   4.441 -1.1688 -0.1589 -0.8252
24162SOL    HW274164   7.014   5.108   4.425 -0.2841 -0.3867 -0.5747
24163SOL     OW74165   0.473   8.454   4.555 -0.4461 -0.0487 -0.2893
24163SOL    HW174166   0.566   8.443   4.536 -0.9923 -2.0517 -2.0663
24163SOL    HW274167   0.448   8.374   4.601 -1.5253 -0.0892 -0.9154
24164SOL     OW74168   6.425   5.191   4.176  0.2877 -0.0596 -0.7934
24164SOL    HW174169   6.395   5.142   4.253  1.8376  0.0599 -0.0869
24164SOL    HW274170   6.493   5.136   4.138  2.6901  1.8740  0.5283
24165SOL     OW74171   4.651   5.483   5.891 -0.1252 -0.5060 -0.1528
24165SOL    HW174172   4.681   5.521   5.973  1.7595 -0.4640 -0.8449
24165SOL    HW274173   4.572   5.533   5.869  0.1200  0.3754  0.9400
24166SOL     OW74174   2.543   0.157   3.215 -0.1637  0.2110 -0.0133
24166SOL    HW174175   2.608   0.177   3.282 -0.1764 -1.3947  0.4936
24166SOL    HW274176   2.594   0.143   3.135 -0.2300  3.2270 -0.6344
24167SOL     OW74177   6.817   6.596   3.448  0.2992  0.3008 -0.2780
24167SOL    HW174178   6.838   6.649   3.524 -0.4790  1.3252 -0.7589
24167SOL    HW274179   6.779   6.658   3.385  0.8961 -0.5330 -1.4810
24168SOL     OW74180   2.194   4.488   2.053  0.4434 -0.1744 -0.5849
24168SOL    HW174181   2.271   4.544   2.042  0.2398 -0.0295 -1.3407
24168SOL    HW274182   2.128   4.526   1.994 -0.5137  0.2346  0.7262
24169SOL     OW74183   8.193   8.252   7.001  0.1473 -0.2481 -0.6244
24169SOL    HW174184   8.129   8.310   6.959 -1.7226 -1.4704  0.4233
24169SOL    HW274185   8.208   8.183   6.935 -0.9204 -0.8521 -0.2544
24170SOL     OW74186   0.222   7.907   4.261  0.2794  0.4058 -0.4410
24170SOL    HW174187   0.299   7.930   4.314 -0.0301 -0.5433  0.4288
24170SOL    HW274188   0.239   7.818   4.231  0.2645  0.7929 -1.6336
24171SOL     OW74189   8.208   7.113   8.813 -0.1058  0.0628 -0.0108
24171SOL    HW174190   8.207   7.160   8.896  1.5181 -0.7722  0.5124
24171SOL    HW274191   8.252   7.172   8.752 -1.6685  0.8478 -0.4147
24172SOL     OW74192   0.158   5.373   1.769  0.2084  0.5611 -0.2199
24172SOL    HW174193   0.158   5.308   1.840 -2.0054  0.6651 -0.1028
24172SOL    HW274194   0.246   5.412   1.773  0.1953  0.4323  2.3425
24173SOL     OW74195   7.872   4.096   1.375 -0.3286  0.3985  0.3129
24173SOL    HW174196   7.854   4.008   1.409 -0.9816  0.2313 -0.4398
24173SOL    HW274197   7.819   4.154   1.429  0.0538  0.3263  0.7699
24174SOL     OW74198   3.176   2.765   5.390  0.3367  0.6283 -0.1609
24174SOL    HW174199   3.261   2.724   5.409 -0.7949 -0.6290  2.4231
24174SOL    HW274200   3.122   2.693   5.355  0.0599  1.2363 -1.0046
24175SOL     OW74201   1.756   5.940   6.479 -0.3175 -0.1645 -0.0474
24175SOL    HW174202   1.778   5.976   6.565  0.4370 -2.1965  0.6329
24175SOL    HW274203   1.785   5.849   6.483 -0.8287 -0.4452 -2.2519
24176SOL     OW74204   8.848   0.713   6.720 -0.1806 -0.4871 -0.1639
24176SOL    HW174205   8.812   0.633   6.683 -0.5145 -0.4842  0.1584
24176SOL    HW274206   8.781   0.779   6.703 -0.3430 -0.4896  0.4721
24177SOL     OW74207   8.071   3.706   8.185 -0.2943 -0.5742 -0.0795
24177SOL    HW174208   8.144   3.691   8.124  1.7655  1.7268  1.7256
24177SOL    HW274209   8.100   3.669   8.268 -0.8562  0.9479  0.8315
24178SOL     OW74210   9.016   2.814   1.521 -0.3740 -0.1013 -0.0914
24178SOL    HW174211   8.939   2.825   1.577 -2.4755 -2.4706 -2.3963
24178SOL    HW274212   9.028   2.901   1.482 -2.1347  0.2305  0.0234
24179SOL     OW74213   7.143   4.722   0.634  0.1069  0.4979  0.2678
24179SOL    HW174214   7.217   4.744   0.577 -0.2406  0.6384 -0.1249
24179SOL    HW274215   7.075   4.785   0.611 -0.2055  0.2418  0.4901
24180SOL     OW74216   0.894   8.322   7.829 -0.4157  0.2364 -0.0976
24180SOL    HW174217   0.810   8.277   7.829 -0.2032 -0.2074  2.2681
24180SOL    HW274218   0.959   8.253   7.839  0.1397  0.7079 -0.4258
24181SOL     OW74219   8.199   8.583   2.194 -0.4170 -0.5000  0.1433
24181SOL    HW174220   8.176   8.651   2.257  1.3040  0.6507 -0.4689
24181SOL    HW274221   8.161   8.613   2.111  2.7957  1.1918 -0.7763
24182SOL     OW74222   1.582   5.912   5.808  0.5426 -0.3154  0.6231
24182SOL    HW174223   1.635   5.945   5.735 -0.6557  0.6166  0.1613
24182SOL    HW274224   1.574   5.818   5.791  0.1575 -0.0881 -0.5352
24183SOL     OW74225   8.326   4.314   5.060  0.2713  0.4681 -0.1638
24183SOL    HW174226   8.350   4.224   5.079  1.3570  0.2027 -2.5561
24183SOL    HW274227   8.257   4.307   4.994 -0.6957  1.3662  0.7394
24184SOL     OW74228   7.970   2.143   3.081  0.4385  0.0441  0.6557
24184SOL    HW174229   7.974   2.183   2.994 -0.8281  0.1315  0.6326
24184SOL    HW274230   7.912   2.068   3.071  0.8999 -0.3906  1.2504
24185SOL     OW74231   3.708   1.327   1.640 -0.1826  0.0691 -0.4955
24185SOL    HW174232   3.772   1.361   1.578  1.5856  0.1854  1.3545
24185SOL    HW274233   3.746   1.245   1.672 -0.5666  0.5291  1.2137
24186SOL     OW74234   3.485   1.597   2.821 -0.1330 -0.3191 -0.2810
24186SOL    HW174235   3.440   1.634   2.897  1.8720 -0.1599  0.8740
24186SOL    HW274236   3.442   1.637   2.746  0.6430  2.8557  0.8795
24187SOL     OW74237   6.650   0.896   8.687  0.2477  0.0506 -0.1909
24187SOL    HW174238   6.572   0.840   8.686 -0.0486  0.3789  1.6479
24187SOL    HW274239   6.723   0.835   8.694 -0.0128 -0.1715  0.7164
24188SOL     OW74240   7.591   1.067   1.101 -0.1753 -0.2322  0.0827
24188SOL    HW174241   7.672   1.043   1.055  0.0038  0.5888 -0.0314
24188SOL    HW274242   7.558   1.143   1.054 -1.1925 -0.7538 -0.0620
24189SOL     OW74243   2.024   6.393   1.798  0.2368  0.0148  0.3715
24189SOL    HW174244   2.075   6.406   1.718  0.8522 -0.8388  0.6205
24189SOL    HW274245   1.946   6.347   1.770 -0.0115  0.5952  0.1106
24190SOL     OW74246   3.089   2.372   1.375  0.4896 -0.1405  0.1789
24190SOL    HW174247   3.160   2.381   1.439 -0.0055  1.5208  0.5197
24190SOL    HW274248   3.103   2.444   1.314 -0.5550 -0.1586 -0.0833
24191SOL     OW74249   1.604   5.033   1.725 -0.0038  0.2607  0.2681
24191SOL    HW174250   1.597   4.940   1.745  1.5465 -0.0379 -0.5591
24191SOL    HW274251   1.515   5.059   1.700 -0.1657 -1.2775 -0.7770
24192SOL     OW74252   3.698   6.937   2.808 -0.5333 -0.3446  0.2981
24192SOL    HW174253   3.651   6.853   2.808  0.6559 -1.0185 -0.2519
24192SOL    HW274254   3.724   6.950   2.717 -3.1847  2.0619 -0.2108
24193SOL     OW74255   7.701   1.346   6.427 -0.0821 -0.1136 -0.3982
24193SOL    HW174256   7.620   1.313   6.467  1.1321 -1.0724  1.3250
24193SOL    HW274257   7.754   1.376   6.501  1.8769 -1.1820 -1.3221
24194SOL     OW74258   6.265   6.774   1.119  0.1572  0.1884  0.2398
24194SOL    HW174259   6.284   6.819   1.037  0.5396  0.2232  0.3474
24194SOL    HW274260   6.345   6.782   1.171 -0.1971  0.4721  0.7561
24195SOL     OW74261   8.287   7.903   5.861 -0.5397  0.1117 -0.4644
24195SOL    HW174262   8.347   7.922   5.933 -0.5183 -0.6073 -0.2923
24195SOL    HW274263   8.321   7.955   5.788  0.0677  0.0099 -0.2598
24196SOL     OW74264   1.890   8.393   3.944 -0.6759 -0.4290  0.0559
24196SOL    HW174265   1.829   8.466   3.934 -0.8521 -0.5811  0.0156
24196SOL    HW274266   1.857   8.344   4.019  0.2966  0.3689  1.0228
24197SOL     OW74267   5.022   4.000   0.901  0.1235  0.0252 -0.0116
24197SOL    HW174268   4.968   4.051   0.961 -0.3074  0.2191 -0.5581
24197SOL    HW274269   5.020   4.049   0.819  0.4026 -0.4299 -0.2923
24198SOL     OW74270   3.304   1.303   2.177  0.2488 -0.1471 -0.0426
24198SOL    HW174271   3.343   1.335   2.259  1.7440 -1.3562 -0.2628
24198SOL    HW274272   3.379   1.283   2.121 -0.7119 -1.4765 -0.8833
24199SOL     OW74273   4.440   3.836   3.609  0.0270 -0.9601 -0.3245
24199SOL    HW174274   4.417   3.762   3.552  0.8960 -3.2856  2.2455
24199SOL    HW274275   4.528   3.815   3.641 -0.1120  0.6979  1.2338
24200SOL     OW74276   4.362   6.939   9.145 -0.7106 -0.1833 -0.3906
24200SOL    HW174277   4.285   6.960   9.092 -1.8041 -0.4067  1.0622
24200SOL    HW274278   4.415   6.881   9.090 -1.5849 -0.0449 -1.3958
24201SOL     OW74279   9.019   7.329   6.309  0.1249  0.0401 -0.0240
24201SOL    HW174280   9.040   7.301   6.220 -0.9102 -3.2745  0.7109
24201SOL    HW274281   9.085   7.395   6.329  1.3441 -0.2988 -2.6625
24202SOL     OW74282   1.730   3.979   0.174 -0.1848 -0.7155  0.1016
24202SOL    HW174283   1.743   4.052   0.234 -0.1887 -1.0024  0.4525
24202SOL    HW274284   1.643   3.993   0.138 -0.0335 -0.3345 -0.1279
24203SOL     OW74285   6.170   0.273   3.027 -0.4163 -0.0754  0.2868
24203SOL    HW174286   6.248   0.326   3.009  0.3451 -1.6455 -1.1441
24203SOL    HW274287   6.200   0.209   3.092 -0.7610 -0.1189  0.4002
24204SOL     OW74288   3.293   6.436   0.671 -0.1894  0.0785 -0.0954
24204SOL    HW174289   3.369   6.471   0.624  1.0181  0.0219  1.8011
24204SOL    HW274290   3.240   6.395   0.602  1.6564 -0.2110 -1.3822
24205SOL     OW74291   6.936   4.598   0.785 -0.3053  0.3911 -0.5202
24205SOL    HW174292   6.895   4.573   0.701  1.7527 -2.1454 -0.8328
24205SOL    HW274293   7.013   4.648   0.759 -0.5327  0.9646 -0.0830
24206SOL     OW74294   4.657   1.025   1.868 -0.0115 -0.5808 -0.6118
24206SOL    HW174295   4.730   0.975   1.904  0.1033  0.5690  0.7675
24206SOL    HW274296   4.586   1.013   1.931 -1.2625 -2.2406 -2.2773
24207SOL     OW74297   0.373   2.285   3.585  0.2808 -0.2125 -0.0288
24207SOL    HW174298   0.293   2.234   3.595  0.4129 -0.1986  1.2838
24207SOL    HW274299   0.438   2.238   3.639  1.3123 -0.5615 -1.5466
24208SOL     OW74300   4.380   4.138   0.559  1.1117  0.0433  0.2773
24208SOL    HW174301   4.349   4.079   0.491 -1.0283 -0.3488  1.5552
24208SOL    HW274302   4.471   4.157   0.535  0.6837 -0.8229 -2.1473
24209SOL     OW74303   7.000   7.796   8.706  0.1442 -0.0084  0.2742
24209SOL    HW174304   6.958   7.877   8.736 -0.5313  0.6971 -2.3957
24209SOL    HW274305   6.929   7.747   8.664  0.6274 -1.8643  1.5774
24210SOL     OW74306   2.524   9.207   2.322  0.1281 -0.8193  0.2836
24210SOL    HW174307   2.512   9.120   2.282 -1.2176  0.0623 -1.2919
24210SOL    HW274308   2.491   9.197   2.411 -3.4224 -1.0136 -0.9855
24211SOL     OW74309   4.891   3.422   7.972  0.3392 -0.7446  0.0546
24211SOL    HW174310   4.936   3.411   7.889  1.7332 -3.4685  1.1065
24211SOL    HW274311   4.824   3.354   7.972 -0.5478  0.1109  0.6076
24212SOL     OW74312   5.270   6.982   2.892  0.3495  0.5803 -0.1545
24212SOL    HW174313   5.363   6.992   2.872  0.4665  2.1487  1.0567
24212SOL    HW274314   5.267   6.957   2.984 -0.4460  1.5901  0.1049
24213SOL     OW74315   8.926   0.039   1.381 -0.4717  0.0843 -0.3998
24213SOL    HW174316   8.975   0.120   1.367  0.2605 -0.2823  0.0416
24213SOL    HW274317   8.980  -0.029   1.342 -0.9733 -0.2340 -0.5550
24214SOL     OW74318   8.031   0.517   3.023  0.4100 -0.4666  0.1312
24214SOL    HW174319   7.956   0.534   3.081  0.0208 -0.8588 -0.2552
24214SOL    HW274320   8.100   0.487   3.082 -0.4476 -2.3326  0.2346
24215SOL     OW74321   2.635   5.995   6.601  0.2538 -0.1418  0.1210
24215SOL    HW174322   2.629   6.067   6.664  2.3370 -0.1154  0.3366
24215SOL    HW274323   2.545   5.964   6.591 -0.8502  3.2139 -0.8612
24216SOL     OW74324   8.592   3.184   9.028  0.1168 -0.8040 -0.6162
24216SOL    HW174325   8.665   3.246   9.031 -0.3473 -0.2623 -0.3117
24216SOL    HW274326   8.546   3.205   8.946 -1.5510  1.0226  0.7308
24217SOL     OW74327   9.280   8.973   7.702  0.1107  0.1238  0.2973
24217SOL    HW174328   9.272   9.067   7.687 -0.5112  0.1629  0.8461
24217SOL    HW274329   9.275   8.935   7.614  1.7843  0.6777 -0.0660
24218SOL     OW74330   8.103   4.965   4.268 -0.4109 -0.5714 -0.2865
24218SOL    HW174331   8.184   4.960   4.218 -0.4838 -2.8075 -0.1906
24218SOL    HW274332   8.071   5.054   4.251  1.1927 -0.2156 -1.6323
24219SOL     OW74333   3.304   0.831   0.946 -0.0773  0.3609 -0.3775
24219SOL    HW174334   3.345   0.756   0.902 -0.5070 -0.6542  0.9390
24219SOL    HW274335   3.225   0.795   0.986  1.2392  0.8752  2.7850
24220SOL     OW74336   0.033   2.148   5.432 -0.3548  0.1786 -0.2789
24220SOL    HW174337  -0.003   2.223   5.480  1.3914  0.4174  0.6846
24220SOL    HW274338  -0.015   2.072   5.466 -0.6219  0.6027  0.2900
24221SOL     OW74339   8.026   4.900   9.232 -0.1322 -0.9536  0.4334
24221SOL    HW174340   7.998   4.986   9.263  1.5386 -0.9630  2.0074
24221SOL    HW274341   8.111   4.916   9.190  0.8860 -2.0293  2.0184
24222SOL     OW74342   1.788   4.423   2.695  0.6604  0.0186  0.6386
24222SOL    HW174343   1.709   4.436   2.747  0.5607 -0.9592  0.7408
24222SOL    HW274344   1.834   4.351   2.739 -0.1379 -1.8081 -1.4397
24223SOL     OW74345   8.497   7.883   7.865  0.0997  0.3989 -0.4240
24223SOL    HW174346   8.570   7.915   7.918 -0.2534  1.2759 -0.4531
24223SOL    HW274347   8.439   7.841   7.928 -1.1551  2.9380  0.1825
24224SOL     OW74348   4.331   0.455   9.239 -0.2627  0.4900 -0.2461
24224SOL    HW174349   4.237   0.471   9.246 -0.2608  0.6502 -0.5639
24224SOL    HW274350   4.352   0.475   9.148 -0.0204 -0.0925 -0.3179
24225SOL     OW74351   5.766   0.010   5.131  0.2132  0.1036  0.2160
24225SOL    HW174352   5.784   0.097   5.166  1.0288  0.4452 -1.0368
24225SOL    HW274353   5.845  -0.013   5.082 -0.9734 -0.3086 -1.5323
24226SOL     OW74354   3.113   1.717   7.153 -0.3068 -0.0803  0.1785
24226SOL    HW174355   3.105   1.738   7.247  0.2003  0.9089  0.0144
24226SOL    HW274356   3.140   1.800   7.113  1.4097 -0.9666 -0.5725
24227SOL     OW74357   5.975   0.545   1.861  0.1405  0.4179  0.2221
24227SOL    HW174358   6.071   0.540   1.858  0.1521  1.4133 -1.4888
24227SOL    HW274359   5.947   0.506   1.779 -0.9717 -0.5478  1.0485
24228SOL     OW74360   1.225   0.589   1.670  0.0138  0.2011 -0.1476
24228SOL    HW174361   1.157   0.654   1.690 -0.0471  0.0860  0.0211
24228SOL    HW274362   1.286   0.636   1.613 -1.0708 -0.1881 -1.6651
24229SOL     OW74363   0.802   6.251   2.663  0.4330 -0.7356  0.1797
24229SOL    HW174364   0.760   6.229   2.581  2.0090  0.1026 -0.8813
24229SOL    HW274365   0.853   6.172   2.686 -0.3165 -1.1134  0.5733
24230SOL     OW74366   7.473   0.883   7.081 -0.0804  0.1626  0.0737
24230SOL    HW174367   7.497   0.923   6.998 -2.1198  0.5598 -0.3485
24230SOL    HW274368   7.450   0.957   7.138  0.9107 -0.1259  0.8638
24231SOL     OW74369   0.355   4.193   7.902 -0.0115 -0.0104  0.0517
24231SOL    HW174370   0.361   4.161   7.992 -0.1024 -0.9623 -0.2720
24231SOL    HW274371   0.362   4.288   7.910  1.0889 -0.1574  0.9587
24232SOL     OW74372   3.097   3.127   9.120 -0.5630 -0.2907 -0.1856
24232SOL    HW174373   3.044   3.153   9.045 -1.6493 -1.5306  0.1244
24232SOL    HW274374   3.110   3.033   9.107  0.3389 -0.2556  0.4993
24233SOL     OW74375   6.806   8.192   0.242 -0.1794  0.1907  0.2047
24233SOL    HW174376   6.815   8.098   0.255  1.8820  0.0907 -1.7290
24233SOL    HW274377   6.715   8.211   0.267 -0.6586 -2.3005  0.5008
24234SOL     OW74378   4.123   3.050   5.462  0.0718 -0.2372 -0.0990
24234SOL    HW174379   4.151   3.097   5.540  1.7837  1.1672 -1.5231
24234SOL    HW274380   4.027   3.054   5.465  0.1013 -0.8958  2.3062
24235SOL     OW74381   6.329   0.128   9.109  0.4712  0.0530  0.4987
24235SOL    HW174382   6.351   0.038   9.086 -1.2563 -0.7530  1.9040
24235SOL    HW274383   6.265   0.154   9.043  1.8954  0.7032 -0.6512
24236SOL     OW74384   3.392   3.275   2.754 -0.7210  0.1292  0.5260
24236SOL    HW174385   3.421   3.318   2.674  2.2645  1.3525  2.1896
24236SOL    HW274386   3.388   3.346   2.819 -1.8865 -1.0503  1.7845
24237SOL     OW74387   5.576   0.445   7.942  0.4462 -0.1295 -0.1889
24237SOL    HW174388   5.559   0.497   8.020  0.7473 -0.7509  0.2887
24237SOL    HW274389   5.631   0.501   7.887  3.1477 -1.0281  1.5615
24238SOL     OW74390   0.876   2.349   4.802  0.3601 -0.2571 -0.2105
24238SOL    HW174391   0.904   2.440   4.807  0.0170 -0.1182 -0.7840
24238SOL    HW274392   0.876   2.319   4.893 -0.3753  0.5775  0.0717
24239SOL     OW74393   2.576   2.716   5.925  0.4332 -0.1983 -0.2292
24239SOL    HW174394   2.636   2.702   5.998 -0.4573  0.6236  0.6759
24239SOL    HW274395   2.598   2.803   5.892  0.0443 -0.0794 -0.1779
24240SOL     OW74396   4.119   2.289   4.627  0.1556  0.8481 -0.3290
24240SOL    HW174397   4.140   2.353   4.560 -0.8951  0.7314 -0.7905
24240SOL    HW274398   4.190   2.224   4.622  0.7060  1.4624 -0.5119
24241SOL     OW74399   7.274   0.049   7.607 -0.1748 -0.3094 -0.4394
24241SOL    HW174400   7.256   0.037   7.701 -0.8859 -0.0394 -0.5361
24241SOL    HW274401   7.323  -0.029   7.582  0.1167 -0.3291  0.1865
24242SOL     OW74402   9.145   2.395   2.919  0.1007  0.0492 -0.0417
24242SOL    HW174403   9.168   2.474   2.869 -0.9184  1.2360  1.2956
24242SOL    HW274404   9.173   2.414   3.008 -1.5762 -0.4390  0.6206
24243SOL     OW74405   1.814   1.095   6.206 -0.5942  0.0561  0.4600
24243SOL    HW174406   1.745   1.043   6.248  0.9343 -2.3435  0.1113
24243SOL    HW274407   1.780   1.114   6.119 -1.3818  0.1099  0.7701
24244SOL     OW74408   1.979   3.341   7.082  0.0670 -0.0388 -0.1259
24244SOL    HW174409   2.037   3.418   7.086 -0.3883  0.2216  2.1604
24244SOL    HW274410   1.892   3.376   7.102 -0.3467 -0.9691 -0.2923
24245SOL     OW74411   6.193   3.259   6.395 -0.3573 -0.3923 -0.2750
24245SOL    HW174412   6.102   3.247   6.422  0.0740  1.7168  2.3144
24245SOL    HW274413   6.188   3.292   6.306 -2.1398 -0.1811 -0.0999
24246SOL     OW74414   4.658   0.450   8.115  0.0965  0.0014  0.0946
24246SOL    HW174415   4.572   0.415   8.138  0.4084 -0.6875  0.2405
24246SOL    HW274416   4.681   0.406   8.033  0.4712 -0.0999  0.2496
24247SOL     OW74417   0.740   4.314   6.111 -0.1801 -0.2806 -0.1420
24247SOL    HW174418   0.826   4.272   6.105  0.4450  1.1007 -1.1053
24247SOL    HW274419   0.714   4.329   6.020 -0.3295  1.5346  0.1834
24248SOL     OW74420   4.956   6.025   1.063 -0.0409  0.2777 -0.5048
24248SOL    HW174421   4.987   6.029   1.154  0.8781 -0.7180 -0.7677
24248SOL    HW274422   4.861   6.033   1.070  0.0615  0.7431  0.5036
24249SOL     OW74423   7.319   6.154   0.163  0.0786  0.5734  0.5102
24249SOL    HW174424   7.270   6.213   0.106  1.4181  0.1294 -1.1261
24249SOL    HW274425   7.255   6.123   0.227 -1.0420  2.4005  0.2974
24250SOL     OW74426   4.758   1.996   3.374  0.1702  0.1988 -0.5952
24250SOL    HW174427   4.742   2.065   3.438  1.4740  0.3473 -0.4297
24250SOL    HW274428   4.839   2.022   3.330  0.2000 -0.7768 -1.1317
24251SOL     OW74429   3.106   7.207   5.818 -0.1847 -0.3519  0.3106
24251SOL    HW174430   3.138   7.128   5.861 -1.3958 -1.9356 -1.5894
24251SOL    HW274431   3.017   7.184   5.789 -1.5889  2.5984  2.0520
24252SOL     OW74432   1.908   8.297   7.149 -0.3291  0.3048  0.1161
24252SOL    HW174433   1.899   8.307   7.054 -1.0853 -0.8371  0.0500
24252SOL    HW274434   1.859   8.370   7.186  0.2431  0.9374 -0.3843
24253SOL     OW74435   0.945   4.814   0.689 -0.0830 -0.0532  0.0650
24253SOL    HW174436   1.007   4.852   0.626 -0.9414  0.9387 -0.1798
24253SOL    HW274437   0.950   4.871   0.765 -0.2883 -0.3005  0.2640
24254SOL     OW74438   4.950   2.313   4.512  0.1563 -0.0873  0.6122
24254SOL    HW174439   4.935   2.223   4.542  0.8377 -0.4303 -0.0834
24254SOL    HW274440   4.862   2.348   4.498 -0.0922 -1.0685 -0.3555
24255SOL     OW74441   0.211   8.261   1.853 -0.4726  0.0257 -0.1125
24255SOL    HW174442   0.206   8.169   1.878  0.7893 -0.5504 -1.9191
24255SOL    HW274443   0.168   8.265   1.767  0.9861  0.8027 -0.8216
24256SOL     OW74444   4.835   3.144   1.976  0.2464  0.0788  0.0531
24256SOL    HW174445   4.889   3.078   2.019  0.3780  0.2193  0.1029
24256SOL    HW274446   4.897   3.210   1.945  0.2213 -0.3478 -0.9456
24257SOL     OW74447   2.344   0.002   4.159  0.4793  0.2109 -0.0005
24257SOL    HW174448   2.334   0.084   4.207  1.6858  0.4035 -0.0685
24257SOL    HW274449   2.271   0.002   4.096 -0.1362  0.7297  0.7066
24258SOL     OW74450   2.367   0.798   4.931  0.3112  0.1159 -0.0170
24258SOL    HW174451   2.442   0.857   4.927 -0.5978  1.3588  0.7276
24258SOL    HW274452   2.399   0.723   4.982  1.1668  0.4355 -0.0666
24259SOL     OW74453   6.745   2.364   1.754 -0.0069 -0.3760 -0.3310
24259SOL    HW174454   6.810   2.373   1.824 -2.3601 -2.3019  2.2332
24259SOL    HW274455   6.751   2.272   1.728 -1.4162 -0.4741 -0.3371
24260SOL     OW74456   4.950   3.998   5.100 -0.9299  0.4079 -0.0928
24260SOL    HW174457   4.962   4.091   5.084  0.8101  0.0911 -0.7896
24260SOL    HW274458   4.889   3.993   5.174 -1.4928  2.0712 -0.4369
24261SOL     OW74459   4.885   7.819   0.965 -0.3385  0.1622  0.5236
24261SOL    HW174460   4.972   7.832   0.927 -0.1605 -1.5680  0.2603
24261SOL    HW274461   4.824   7.854   0.900  0.0836 -0.6302 -0.3123
24262SOL     OW74462   0.084   6.469   2.645 -0.0904 -0.4399 -0.0145
24262SOL    HW174463   0.123   6.432   2.566  0.2034 -0.8713  0.3227
24262SOL    HW274464   0.039   6.395   2.686 -0.6972 -0.0934 -0.0565
24263SOL     OW74465   7.471   4.738   5.239  0.1746  0.3326  0.2460
24263SOL    HW174466   7.499   4.720   5.150 -1.5780  0.2034 -0.2968
24263SOL    HW274467   7.536   4.694   5.294  0.7992 -0.2866 -0.9734
24264SOL     OW74468   0.172   8.460   3.949 -0.5514 -0.1823 -0.8265
24264SOL    HW174469   0.205   8.530   3.892 -0.1445  1.0562  0.8796
24264SOL    HW274470   0.222   8.383   3.924 -0.2425  0.3916 -2.0147
24265SOL     OW74471   0.820   4.777   5.303  0.3174  0.1612 -0.5074
24265SOL    HW174472   0.771   4.717   5.360  2.9938 -0.2894  1.4371
24265SOL    HW274473   0.908   4.780   5.342  1.4664  1.9648 -3.1073
24266SOL     OW74474   7.568   6.341   1.105 -0.1423  0.5059 -0.1560
24266SOL    HW174475   7.486   6.307   1.069 -0.0414  1.4587 -1.3018
24266SOL    HW274476   7.636   6.289   1.063 -0.0613  1.0871 -0.7409
24267SOL     OW74477   4.921   9.184   7.140  0.2446 -0.5325  0.2158
24267SOL    HW174478   4.858   9.183   7.212 -0.3606 -1.0632 -0.3218
24267SOL    HW274479   4.940   9.092   7.123  1.0316 -0.3824  0.2499
24268SOL     OW74480   7.855   2.624   5.658 -0.0220  0.6896 -0.4822
24268SOL    HW174481   7.851   2.580   5.743  0.5468  0.6986 -0.4490
24268SOL    HW274482   7.939   2.598   5.622  0.2269  1.5901 -0.5568
24269SOL     OW74483   4.124   5.486   4.960  0.5139 -0.3466 -0.0732
24269SOL    HW174484   4.211   5.520   4.938  0.9955 -0.6436  1.2962
24269SOL    HW274485   4.130   5.464   5.053 -0.9326 -0.6796 -0.0466
24270SOL     OW74486   6.763   5.514   8.298  0.3023  0.3537  0.2474
24270SOL    HW174487   6.711   5.534   8.220 -0.8918  1.7997  1.3864
24270SOL    HW274488   6.849   5.552   8.280  0.0181  0.7071 -0.3532
24271SOL     OW74489   2.965   2.477   0.366  0.1232 -0.4423  0.1260
24271SOL    HW174490   3.032   2.501   0.302 -1.5717  0.5394 -1.3289
24271SOL    HW274491   2.926   2.560   0.392 -0.0041 -0.9420  1.5357
24272SOL     OW74492   1.057   6.335   5.934 -0.0148 -0.1492  0.4701
24272SOL    HW174493   0.972   6.372   5.910 -0.6794 -1.2382  1.1380
24272SOL    HW274494   1.102   6.322   5.850 -0.9999 -0.7541  0.0234
24273SOL     OW74495   1.192   5.935   2.911  0.1029  0.2651 -0.3443
24273SOL    HW174496   1.140   6.015   2.921 -2.4191 -1.7059  3.0733
24273SOL    HW274497   1.282   5.964   2.924 -0.8016  2.5087  1.3603
24274SOL     OW74498   0.409   4.606   0.858 -0.0212 -0.3121 -0.1963
24274SOL    HW174499   0.386   4.656   0.936  0.7907 -0.6943  0.3018
24274SOL    HW274500   0.465   4.535   0.891  1.1851  0.1297 -1.2381
24275SOL     OW74501   0.786   6.628   6.162 -0.2967  0.1416 -0.6443
24275SOL    HW174502   0.695   6.655   6.175 -0.1519  0.3764 -0.0923
24275SOL    HW274503   0.788   6.591   6.074 -1.2559 -1.2403 -0.0984
24276SOL     OW74504   8.912   9.128   7.486 -0.5293  0.3611 -1.1207
24276SOL    HW174505   8.936   9.196   7.549 -5.0563  0.5856  0.5228
24276SOL    HW274506   8.922   9.170   7.401  3.2149  0.8643 -0.5061
24277SOL     OW74507   5.696   1.848   1.954 -0.2969  0.2653  0.5387
24277SOL    HW174508   5.688   1.841   1.859 -0.0173  0.0315  0.5315
24277SOL    HW274509   5.782   1.812   1.974 -0.6157 -0.2832  0.9491
24278SOL     OW74510   8.574   8.666   2.217  0.2901  0.2372  0.4007
24278SOL    HW174511   8.583   8.760   2.197  0.3965  0.4571  1.4837
24278SOL    HW274512   8.601   8.622   2.136  3.2816  1.0639  0.8949
24279SOL     OW74513   0.494   4.358   9.034  0.1355 -0.2175 -0.0662
24279SOL    HW174514   0.491   4.433   8.975  0.2104 -1.3623 -1.5592
24279SOL    HW274515   0.577   4.315   9.012  0.4129 -0.3688  1.2473
24280SOL     OW74516   3.211   1.538   1.739  0.2889 -0.0993 -0.1819
24280SOL    HW174517   3.186   1.454   1.701 -1.0414 -0.4628  1.4351
24280SOL    HW274518   3.307   1.535   1.740  0.2992 -0.8212 -1.8014
24281SOL     OW74519   1.107   8.217   1.772  0.1215  0.0282 -0.1239
24281SOL    HW174520   1.101   8.313   1.767  1.7045  0.0691 -1.7043
24281SOL    HW274521   1.027   8.186   1.731 -0.0052  0.6623 -0.3705
24282SOL     OW74522   3.342   1.874   7.527  0.2787 -0.6693  0.4869
24282SOL    HW174523   3.327   1.856   7.620  0.1662 -0.0507  0.5900
24282SOL    HW274524   3.405   1.946   7.527  0.6704 -1.0102  0.0785
24283SOL     OW74525   3.721   2.845   0.135 -0.3936 -0.2736  0.2445
24283SOL    HW174526   3.628   2.823   0.140 -0.4902  0.0509 -0.1085
24283SOL    HW274527   3.735   2.868   0.043 -0.2060  0.7426  0.5304
24284SOL     OW74528   0.119   4.475   3.839 -0.3809 -0.1578 -0.3320
24284SOL    HW174529   0.195   4.491   3.896  0.0939  0.8852 -1.2313
24284SOL    HW274530   0.073   4.402   3.881 -0.0697  0.5978  1.4062
24285SOL     OW74531   3.023   8.086   1.662  0.5064  0.1570  0.4653
24285SOL    HW174532   2.942   8.103   1.615  1.4002  0.9957 -0.8026
24285SOL    HW274533   3.089   8.072   1.593  1.3435 -0.9823  1.4676
24286SOL     OW74534   7.323   7.231   4.338  0.0285 -0.0843 -0.0626
24286SOL    HW174535   7.330   7.300   4.272 -2.9015  0.1124 -0.2362
24286SOL    HW274536   7.342   7.275   4.421 -0.7988  0.7152 -0.2861
24287SOL     OW74537   3.961   7.509   2.147  1.1702  0.0701 -0.0776
24287SOL    HW174538   3.951   7.603   2.136 -0.9240  0.0786  1.5631
24287SOL    HW274539   4.055   7.496   2.158  1.2915  2.1865  1.6147
24288SOL     OW74540   4.682   7.645   8.346 -0.0076  0.3034  0.7039
24288SOL    HW174541   4.666   7.563   8.300  0.8628  0.1219  0.7209
24288SOL    HW274542   4.767   7.674   8.314  0.5035  0.2905  2.0420
24289SOL     OW74543   3.376   7.228   8.432 -0.2401 -0.0303 -0.5257
24289SOL    HW174544   3.293   7.253   8.475  0.6993  0.1694  1.2199
24289SOL    HW274545   3.361   7.138   8.402 -0.6455 -0.4738  0.9672
24290SOL     OW74546   4.817   4.388   1.866 -0.1900  0.0548  0.2359
24290SOL    HW174547   4.777   4.472   1.843  1.0251  0.0271 -2.0896
24290SOL    HW274548   4.872   4.408   1.941 -0.8797  1.0611  0.4932
24291SOL     OW74549   0.488   0.164   7.654 -0.5785 -0.0336 -0.7938
24291SOL    HW174550   0.527   0.231   7.597  2.5747 -2.1726 -1.2823
24291SOL    HW274551   0.524   0.183   7.741 -0.5368 -0.4538 -0.7208
24292SOL     OW74552   2.210   7.438   3.298  0.0353  0.3702  0.0010
24292SOL    HW174553   2.263   7.440   3.218 -0.0933  0.9616 -0.0704
24292SOL    HW274554   2.120   7.437   3.267 -0.0248  1.3150  0.1522
24293SOL     OW74555   1.660   2.342   6.780 -0.1303 -0.0253  0.1200
24293SOL    HW174556   1.615   2.347   6.864  1.4069 -0.0826  0.9551
24293SOL    HW274557   1.729   2.276   6.793 -2.5565 -3.2903 -2.4614
24294SOL     OW74558   5.324   8.474   5.241  0.0358 -0.0749  1.0834
24294SOL    HW174559   5.281   8.516   5.315 -3.4302  0.1933 -1.0026
24294SOL    HW274560   5.409   8.518   5.235 -0.2639  0.9848  3.8771
24295SOL     OW74561   3.281   9.233   1.174  0.1438  0.4252  0.1104
24295SOL    HW174562   3.226   9.287   1.230 -0.4344 -0.9302  0.8785
24295SOL    HW274563   3.354   9.290   1.149 -1.1312  1.9414 -0.1667
24296SOL     OW74564   5.088   6.741   7.261 -0.4871  0.6391  0.2773
24296SOL    HW174565   5.055   6.733   7.171 -1.1848  0.7246  0.5182
24296SOL    HW274566   5.147   6.667   7.272 -2.1089 -0.6712  0.4630
24297SOL     OW74567   1.394   4.290   0.593  0.1738 -0.3175  0.1900
24297SOL    HW174568   1.446   4.211   0.579 -0.6805 -0.5338 -1.8920
24297SOL    HW274569   1.305   4.266   0.566 -0.0800  1.3664 -0.5694
24298SOL     OW74570   8.149   9.126   4.660 -0.2481  0.1990 -0.1750
24298SOL    HW174571   8.177   9.034   4.655  0.2299  0.3482 -0.2375
24298SOL    HW274572   8.230   9.176   4.661 -0.5086  0.6200 -0.0927
24299SOL     OW74573   1.396   5.962   0.474  0.3845  0.0063  0.3918
24299SOL    HW174574   1.346   6.028   0.425 -0.8873 -1.1696  0.0756
24299SOL    HW274575   1.367   5.971   0.564  0.7507  0.3577  0.4780
24300SOL     OW74576   2.492   7.042   3.277 -0.7388  0.8487 -0.0500
24300SOL    HW174577   2.512   7.003   3.192  0.8806  1.3976  0.0566
24300SOL    HW274578   2.499   6.969   3.339  1.1350  1.0355 -0.0049
24301SOL     OW74579   4.569   4.597   7.685  0.5336 -0.5943  0.1770
24301SOL    HW174580   4.561   4.595   7.589  0.7851 -1.1027  0.1629
24301SOL    HW274581   4.642   4.539   7.704  0.3491 -0.6613  0.6946
24302SOL     OW74582   8.035   4.785   0.189  0.3768 -0.5549  0.5716
24302SOL    HW174583   8.121   4.763   0.153 -0.3860 -1.9693 -0.4851
24302SOL    HW274584   7.993   4.836   0.120  0.1837 -0.3231  0.8635
24303SOL     OW74585   0.763   8.158   0.954  0.5833 -0.0858 -0.4569
24303SOL    HW174586   0.780   8.093   1.022 -0.5915 -0.0057 -0.0772
24303SOL    HW274587   0.850   8.179   0.919  1.0875 -0.9599  0.2414
24304SOL     OW74588   2.215   1.072   2.857 -0.7763  0.3748 -0.6585
24304SOL    HW174589   2.175   0.989   2.831  0.8152 -0.4944 -0.3815
24304SOL    HW274590   2.241   1.113   2.775 -2.7463  1.2141 -0.8745
24305SOL     OW74591   0.014   2.722   8.033 -0.5978  0.0572  0.1425
24305SOL    HW174592   0.020   2.673   7.951 -1.0643  1.4147 -0.7209
24305SOL    HW274593  -0.071   2.697   8.070 -1.1332  0.7216 -0.6286
24306SOL     OW74594   7.861   5.456   6.189 -0.2066 -0.6074 -0.0112
24306SOL    HW174595   7.859   5.447   6.284 -0.2746 -0.2383  0.0210
24306SOL    HW274596   7.826   5.373   6.156  1.2575 -1.3617  0.2585
24307SOL     OW74597   2.532   7.149   8.152 -0.0996  0.2875 -0.1273
24307SOL    HW174598   2.548   7.213   8.083 -0.6181  0.5310 -0.0282
24307SOL    HW274599   2.568   7.067   8.118 -1.5903  0.0894 -1.2817
24308SOL     OW74600   1.903   4.963   7.320 -0.5320  0.4035 -0.4179
24308SOL    HW174601   1.818   4.949   7.361 -0.0620  2.8381  1.5374
24308SOL    HW274602   1.882   5.000   7.234 -1.4653 -0.2593 -0.4861
24309SOL     OW74603   8.879   0.570   1.670  0.1234  0.0264  0.2182
24309SOL    HW174604   8.910   0.611   1.589  0.1090 -1.6918 -0.6801
24309SOL    HW274605   8.802   0.620   1.694  0.1540  0.5928 -0.8216
24310SOL     OW74606   3.190   0.001   8.866  0.1469  0.0558  0.2994
24310SOL    HW174607   3.194  -0.009   8.961 -0.4454  0.7271  0.4030
24310SOL    HW274608   3.139   0.081   8.853  1.8262  1.0142 -0.5365
24311SOL     OW74609   8.625   3.917   0.185  0.1588  0.1111  0.3630
24311SOL    HW174610   8.576   3.949   0.110 -0.9719 -1.9922  0.1599
24311SOL    HW274611   8.658   3.831   0.156  0.5618 -0.2644  1.9046
24312SOL     OW74612   5.448   5.967   7.439 -0.3029 -0.6552  0.2186
24312SOL    HW174613   5.424   5.980   7.531  3.3093  0.7451  1.0447
24312SOL    HW274614   5.379   6.010   7.390 -0.3175  1.9358  2.4022
24313SOL     OW74615   5.050   1.072   5.075  0.0604 -0.2634 -0.2615
24313SOL    HW174616   5.092   1.134   5.134 -0.2231 -2.2767  2.1170
24313SOL    HW274617   5.042   1.119   4.992  3.8266  1.3407  0.2223
24314SOL     OW74618   0.427   2.916   5.755 -0.2415  0.8784  0.6500
24314SOL    HW174619   0.494   2.853   5.728 -1.4209  0.6811 -2.0079
24314SOL    HW274620   0.456   2.948   5.841  2.0281 -0.8954  0.5776
24315SOL     OW74621   5.979   0.595   4.101  0.8001 -0.7277 -0.5223
24315SOL    HW174622   6.021   0.677   4.128 -1.2125  1.1505 -2.8923
24315SOL    HW274623   6.042   0.555   4.041  1.2396 -0.2871 -0.3626
24316SOL     OW74624   7.748   2.855   4.994  0.1421  0.1210  0.1846
24316SOL    HW174625   7.712   2.854   5.082  0.2221  0.1571  0.2185
24316SOL    HW274626   7.827   2.801   5.000 -0.1724 -0.3538 -0.0012
24317SOL     OW74627   1.615   0.044   5.283 -0.6253  0.2158  0.5076
24317SOL    HW174628   1.529   0.079   5.263 -0.5576  1.3019  2.0114
24317SOL    HW274629   1.599  -0.044   5.316 -0.8662 -0.9115 -2.4526
24318SOL     OW74630   4.226   3.969   7.183  0.2010  0.5212  0.8440
24318SOL    HW174631   4.208   4.038   7.121  1.0072  0.0707  0.0995
24318SOL    HW274632   4.189   3.890   7.143  0.4981  0.2773  1.0445
24319SOL     OW74633   4.063   0.530   2.604 -0.1983 -0.0794 -0.5572
24319SOL    HW174634   4.027   0.604   2.654 -2.4280 -0.4403 -1.5475
24319SOL    HW274635   4.079   0.463   2.670 -0.7092  0.3438  0.0100
24320SOL     OW74636   3.474   0.179   3.589 -0.1205  0.1903  0.0308
24320SOL    HW174637   3.452   0.093   3.626  0.6148 -0.4187 -0.9075
24320SOL    HW274638   3.433   0.242   3.648  1.3617 -0.7384  2.1343
24321SOL     OW74639   3.257   6.044   5.767  0.3100 -0.0631 -0.3499
24321SOL    HW174640   3.196   6.029   5.838  1.3315 -1.1924  0.3032
24321SOL    HW274641   3.312   5.966   5.765  2.0086  1.0996 -0.6281
24322SOL     OW74642   6.048   5.403   4.571 -0.0941 -0.4942 -0.4287
24322SOL    HW174643   6.057   5.424   4.478 -2.0826  0.8256 -0.3491
24322SOL    HW274644   5.987   5.468   4.605 -0.2962 -1.6720  1.5586
24323SOL     OW74645   2.517   2.547   4.414 -1.0624  0.1553 -0.0010
24323SOL    HW174646   2.425   2.531   4.438 -0.7074 -0.4171  0.9907
24323SOL    HW274647   2.531   2.494   4.336 -1.2515 -0.6490  0.5134
24324SOL     OW74648   8.545   3.870   7.817 -0.3361  0.2795  0.0673
24324SOL    HW174649   8.637   3.848   7.803 -0.4335 -1.6447  2.1844
24324SOL    HW274650   8.499   3.827   7.745  0.1737 -0.9660  0.4701
24325SOL     OW74651   4.893   6.945   0.711 -0.2374 -0.8603 -0.2205
24325SOL    HW174652   4.822   6.923   0.772 -0.7397  0.7848 -0.1886
24325SOL    HW274653   4.946   7.008   0.760 -1.0940  1.0982 -1.7579
24326SOL     OW74654   8.358   0.081   7.009  0.2783 -0.1539 -0.5038
24326SOL    HW174655   8.447   0.050   7.022  0.7260  0.7116 -1.4028
24326SOL    HW274656   8.357   0.168   7.050  0.4011  0.6410 -2.1559
24327SOL     OW74657   0.112   2.430   7.474 -0.6702 -0.1197 -0.4640
24327SOL    HW174658   0.140   2.358   7.417 -0.3719 -0.2888 -0.1032
24327SOL    HW274659   0.022   2.448   7.447 -0.5958 -0.3328 -0.8566
24328SOL     OW74660   5.080   2.264   1.643  0.0753 -0.5627 -0.5137
24328SOL    HW174661   5.154   2.207   1.623  1.2309  1.1367 -1.2114
24328SOL    HW274662   5.100   2.301   1.729  0.1428  0.0942 -0.8149
24329SOL     OW74663   4.158   1.136   7.641  0.3157 -0.1541  0.5063
24329SOL    HW174664   4.162   1.108   7.549  0.2922 -0.9207  0.7381
24329SOL    HW274665   4.242   1.109   7.678  0.4918  0.5235  0.6123
24330SOL     OW74666   6.055   3.555   0.627 -0.0108 -0.1594 -0.3073
24330SOL    HW174667   6.107   3.480   0.657  0.5286  0.0832 -0.6297
24330SOL    HW274668   5.996   3.573   0.699 -1.8306 -2.4313 -1.1470
24331SOL     OW74669   9.274   8.256   7.115  0.4804  0.6190 -0.0611
24331SOL    HW174670   9.330   8.301   7.052  2.0185 -1.8553 -0.5388
24331SOL    HW274671   9.321   8.174   7.134 -1.0067  0.3282  2.6376
24332SOL     OW74672   5.669   4.974   8.364  0.5061  0.5497  0.3620
24332SOL    HW174673   5.607   4.922   8.417  0.7346 -0.9112 -0.7803
24332SOL    HW274674   5.642   5.065   8.379 -0.7563  0.0376  1.3426
24333SOL     OW74675   7.559   0.267   8.570 -0.3897 -0.3824  0.0532
24333SOL    HW174676   7.535   0.281   8.478 -1.8589  4.0102  1.0243
24333SOL    HW274677   7.477   0.242   8.612 -0.2094  0.0181  0.6382
24334SOL     OW74678   7.816   6.750   8.305 -0.0533  0.1992 -1.2139
24334SOL    HW174679   7.802   6.759   8.400  0.7201 -2.0291 -0.8470
24334SOL    HW274680   7.756   6.813   8.266 -1.5094  0.0849  0.7303
24335SOL     OW74681   0.115   8.130   5.545 -0.2787  0.2382 -0.7341
24335SOL    HW174682   0.032   8.175   5.562 -0.6412  0.3905 -2.8294
24335SOL    HW274683   0.105   8.094   5.457  1.5358 -0.5236 -0.6344
24336SOL     OW74684   1.411   1.414   6.619 -0.3131 -0.2820 -0.0311
24336SOL    HW174685   1.377   1.465   6.693 -1.2451 -0.5520 -0.2709
24336SOL    HW274686   1.377   1.458   6.542  1.9569  0.9391 -0.3743
24337SOL     OW74687   7.194   6.147   2.616 -0.8284  0.6337  0.0541
24337SOL    HW174688   7.220   6.057   2.597  0.1505  0.8842  0.1443
24337SOL    HW274689   7.173   6.147   2.709  1.8832  1.0764  0.7356
24338SOL     OW74690   9.188   5.589   8.361 -0.0944 -0.0335  0.0190
24338SOL    HW174691   9.228   5.508   8.330  0.1614  0.9330 -2.2126
24338SOL    HW274692   9.149   5.565   8.445  0.5367 -2.3075 -0.3047
24339SOL     OW74693   0.950   3.364   4.080  0.2971  0.5047 -0.0170
24339SOL    HW174694   0.954   3.385   4.174 -1.8708  0.0289  0.2018
24339SOL    HW274695   0.908   3.440   4.040 -2.5939 -1.0115  0.0155
24340SOL     OW74696   9.207   9.016   4.756  0.1902  0.4026  0.2540
24340SOL    HW174697   9.124   8.981   4.789  0.7307 -0.8645  0.2698
24340SOL    HW274698   9.195   9.111   4.761 -1.1729  0.2408  0.4813
24341SOL     OW74699   7.918   1.911   3.413 -0.6434 -0.2685  0.1674
24341SOL    HW174700   7.900   1.961   3.493 -1.4931 -2.1244  1.1496
24341SOL    HW274701   8.000   1.948   3.379  0.2903 -0.1912  2.4662
24342SOL     OW74702   3.475   3.469   5.192 -0.4484  0.7878 -0.0966
24342SOL    HW174703   3.512   3.382   5.178 -1.5270  0.3730 -0.4884
24342SOL    HW274704   3.446   3.497   5.105 -0.4864  1.3518  0.0967
24343SOL     OW74705   8.745   8.627   0.671 -0.2550 -0.0317 -0.7816
24343SOL    HW174706   8.706   8.545   0.701 -0.7983 -0.3129 -2.1917
24343SOL    HW274707   8.673   8.672   0.625  0.6544  0.1570 -2.0416
24344SOL     OW74708   1.449   5.797   7.807  0.0820 -0.8331  0.0077
24344SOL    HW174709   1.477   5.792   7.716  1.7608  1.1389  0.3758
24344SOL    HW274710   1.408   5.712   7.824  0.5182 -1.5531 -2.3138
24345SOL     OW74711   0.312   6.367   8.019 -0.5244  0.6294  0.6107
24345SOL    HW174712   0.312   6.430   7.947 -0.9152 -0.4202 -0.3381
24345SOL    HW274713   0.274   6.287   7.980  1.4952 -0.6982  1.3122
24346SOL     OW74714   6.977   5.133   5.410 -0.1785  0.6406  0.0030
24346SOL    HW174715   7.027   5.172   5.338 -1.7971  0.7805 -1.0521
24346SOL    HW274716   6.984   5.039   5.395  0.7342  0.6148  0.5289
24347SOL     OW74717   4.781   1.875   6.140  0.8140  0.4688 -0.1735
24347SOL    HW174718   4.783   1.837   6.052 -0.7949 -0.2074  0.0724
24347SOL    HW274719   4.870   1.863   6.172  1.0425 -0.6376 -1.1480
24348SOL     OW74720   9.239   7.311   1.627 -0.2157  0.5422  0.1522
24348SOL    HW174721   9.159   7.262   1.647  0.3383 -0.5512 -0.3162
24348SOL    HW274722   9.223   7.398   1.664 -2.2365  0.7917 -1.2275
24349SOL     OW74723   7.983   6.402   3.967 -0.2291  0.2686  0.3395
24349SOL    HW174724   7.910   6.358   4.010 -0.6963  0.9480  0.2459
24349SOL    HW274725   8.000   6.349   3.888 -1.4410  0.8151 -0.2941
24350SOL     OW74726   3.396   3.741   7.207 -0.2230 -0.3487  0.0626
24350SOL    HW174727   3.398   3.832   7.235 -0.1736 -0.6804  1.1472
24350SOL    HW274728   3.327   3.701   7.259  0.2747 -1.1064  0.1528
24351SOL     OW74729   3.279   6.426   4.488  0.9035 -0.4604 -0.4617
24351SOL    HW174730   3.347   6.380   4.538  1.4282  0.6997 -0.0888
24351SOL    HW274731   3.197   6.402   4.531  1.4113  1.0930  1.4417
24352SOL     OW74732   6.100   8.758   3.130  0.2993  0.4293 -0.8657
24352SOL    HW174733   6.108   8.815   3.053  0.7972  1.4352 -0.0826
24352SOL    HW274734   6.168   8.692   3.118  1.9526  1.9632 -0.1485
24353SOL     OW74735   1.935   0.164   8.475 -0.1946 -0.3861 -0.0580
24353SOL    HW174736   1.915   0.201   8.389 -1.0014  1.4024  0.8843
24353SOL    HW274737   1.940   0.239   8.533  2.2877 -1.3970  1.1170
24354SOL     OW74738   7.644   8.199   4.788 -0.4108  0.4617 -0.1759
24354SOL    HW174739   7.642   8.104   4.788 -0.2588  0.4603 -0.3616
24354SOL    HW274740   7.584   8.225   4.719 -1.2484  0.5153  0.5591
24355SOL     OW74741   4.525   7.794   3.206 -0.4080  0.5631 -0.2346
24355SOL    HW174742   4.509   7.759   3.119 -2.6248  0.8366  0.0361
24355SOL    HW274743   4.621   7.795   3.215 -0.2152 -1.3985 -1.8438
24356SOL     OW74744   3.316   7.207   1.127 -0.0038  0.0263 -0.1084
24356SOL    HW174745   3.367   7.165   1.196 -0.8320 -0.5708  0.1491
24356SOL    HW274746   3.350   7.169   1.046 -0.4598 -0.8511  0.0999
24357SOL     OW74747   3.582   2.789   9.025 -0.0989  0.1805 -0.2253
24357SOL    HW174748   3.583   2.722   8.957  2.0368 -0.9356  0.8523
24357SOL    HW274749   3.498   2.777   9.070 -0.1547 -1.1353 -0.6664
24358SOL     OW74750   5.349   0.800   4.142  0.5617 -0.0876  0.1398
24358SOL    HW174751   5.283   0.848   4.091 -0.5267 -0.3968  1.2424
24358SOL    HW274752   5.404   0.758   4.076 -1.7417 -1.7084 -0.7899
24359SOL     OW74753   2.129   1.551   8.258  0.1605 -0.6155  0.5966
24359SOL    HW174754   2.196   1.541   8.191 -0.4489  1.7845 -0.4010
24359SOL    HW274755   2.058   1.493   8.229  0.3394 -0.4179 -0.2494
24360SOL     OW74756   7.016   2.491   8.931 -0.7911  0.9802  0.1454
24360SOL    HW174757   7.045   2.404   8.957  0.9845  1.5329  0.1271
24360SOL    HW274758   6.951   2.476   8.863  2.0848 -0.2811 -2.4063
24361SOL     OW74759   8.984   2.054   7.858 -0.2355 -0.4668  0.3182
24361SOL    HW174760   8.903   2.041   7.908 -0.4170 -0.0405  0.1419
24361SOL    HW274761   8.995   2.149   7.855  0.3099 -0.5242  0.3958
24362SOL     OW74762   3.241   4.438   5.039 -0.0285  0.0925  0.5334
24362SOL    HW174763   3.160   4.425   4.990  0.6656  1.9068 -1.1495
24362SOL    HW274764   3.213   4.452   5.129 -1.7043  2.0221 -0.2524
24363SOL     OW74765   3.940   1.666   6.350  0.9574 -0.2441  0.2595
24363SOL    HW174766   4.016   1.690   6.403  1.3242  1.7328 -1.0842
24363SOL    HW274767   3.864   1.687   6.405  1.3427 -1.6916  1.3842
24364SOL     OW74768   9.138   0.564   2.550 -0.8632  0.0714  0.2339
24364SOL    HW174769   9.137   0.497   2.617 -1.1669 -1.1297 -0.9613
24364SOL    HW274770   9.050   0.601   2.551 -0.6938  0.4676  0.8934
24365SOL     OW74771   2.489   4.284   4.569 -0.1045 -0.1363  0.1284
24365SOL    HW174772   2.578   4.320   4.574  0.1107  0.0130 -3.5453
24365SOL    HW274773   2.500   4.190   4.577  0.4118 -0.1304 -0.4977
24366SOL     OW74774   3.055   5.347   8.409  0.0959  0.3330 -0.0334
24366SOL    HW174775   3.118   5.415   8.383  2.1555 -0.7811  1.8591
24366SOL    HW274776   3.090   5.266   8.372 -1.3280  0.0064 -0.6836
24367SOL     OW74777   4.079   4.247   3.963 -0.0567  1.0545 -0.4930
24367SOL    HW174778   4.107   4.327   4.006 -0.8463  1.8024 -1.3629
24367SOL    HW274779   4.008   4.274   3.905 -1.6258 -0.5636  0.6196
24368SOL     OW74780   2.247   2.074   6.936  0.2843  0.3666  0.4105
24368SOL    HW174781   2.159   2.037   6.933  0.5609 -0.1803 -1.2775
24368SOL    HW274782   2.303   2.006   6.900  1.0422  1.7132 -1.0097
24369SOL     OW74783   7.099   8.926   2.957 -0.0983 -0.2422  0.0412
24369SOL    HW174784   7.149   8.988   3.009 -0.4798  0.0689  0.0339
24369SOL    HW274785   7.158   8.902   2.886  0.4366 -0.6979  0.6323
24370SOL     OW74786   0.511   7.143   5.835 -0.0352  0.3145 -0.2921
24370SOL    HW174787   0.604   7.155   5.851  0.4153 -0.6054 -2.1040
24370SOL    HW274788   0.501   7.155   5.741 -2.0125  2.0104  0.0922
24371SOL     OW74789   7.025   1.305   2.890 -0.0877  0.4868  0.8399
24371SOL    HW174790   7.022   1.228   2.833 -1.6641  1.0323  0.1577
24371SOL    HW274791   7.019   1.380   2.830  3.0483  1.2241  1.3687
24372SOL     OW74792   8.208   2.447   8.919 -0.2452 -0.1641 -0.2262
24372SOL    HW174793   8.215   2.352   8.929 -0.5602 -0.1463  0.1569
24372SOL    HW274794   8.160   2.459   8.836 -0.7127 -0.3470  0.0167
24373SOL     OW74795   4.077   2.125   7.781 -0.8127  0.2386 -0.0573
24373SOL    HW174796   4.003   2.069   7.802  0.8979 -1.6582  1.1042
24373SOL    HW274797   4.082   2.187   7.854 -0.9692  0.0787  0.0870
24374SOL     OW74798   0.095   0.168   6.738  0.1089 -0.2284  0.2412
24374SOL    HW174799   0.030   0.208   6.679 -0.6472 -0.1737  1.1005
24374SOL    HW274800   0.100   0.077   6.709 -0.8715 -0.4052  0.6186
24375SOL     OW74801   2.057   0.720   2.469  0.3256  0.1962 -0.5544
24375SOL    HW174802   2.045   0.635   2.512  1.5049  0.0348 -0.5174
24375SOL    HW274803   1.973   0.765   2.479 -0.5604 -1.2796 -1.2657
24376SOL     OW74804   7.487   3.100   6.828 -0.2868 -0.3852 -0.1493
24376SOL    HW174805   7.554   3.169   6.825 -1.0401  0.3177 -1.8843
24376SOL    HW274806   7.448   3.102   6.740 -1.5342 -1.8193  0.3621
24377SOL     OW74807   4.015   3.483   6.228 -0.1540 -0.0267  0.0602
24377SOL    HW174808   4.034   3.565   6.273 -1.9937 -2.0355  4.7443
24377SOL    HW274809   4.099   3.440   6.220  0.4880  1.2697 -0.4110
24378SOL     OW74810   2.253   7.342   7.221 -0.1083  0.1390  0.0004
24378SOL    HW174811   2.340   7.347   7.181 -0.6539  0.5307 -1.1846
24378SOL    HW274812   2.260   7.272   7.286  1.3505  0.8227  0.6019
24379SOL     OW74813   0.389   4.034   3.999  0.0664  0.1969  0.2293
24379SOL    HW174814   0.448   3.989   3.939  1.0021  0.3582  1.0137
24379SOL    HW274815   0.446   4.065   4.070 -0.6594  1.9976  0.0645
24380SOL     OW74816   6.107   1.335   1.702 -0.2998 -0.3210  0.1954
24380SOL    HW174817   6.103   1.274   1.628 -1.1590 -0.0996  0.0619
24380SOL    HW274818   6.200   1.340   1.723  0.3634  2.2908 -3.0549
24381SOL     OW74819   0.181   5.007   4.524  0.5467  0.3133 -0.5641
24381SOL    HW174820   0.146   5.005   4.435  2.1132  0.8450 -1.1955
24381SOL    HW274821   0.129   5.074   4.569 -3.0413 -2.7645  0.1391
24382SOL     OW74822   1.627   8.211   3.783  0.4264  0.3076  0.0926
24382SOL    HW174823   1.678   8.145   3.736  0.9406  3.1594 -3.6277
24382SOL    HW274824   1.692   8.275   3.812 -0.1055 -0.5228  3.2878
24383SOL     OW74825   2.938   4.786   3.145  0.3759  0.6026  0.7390
24383SOL    HW174826   2.885   4.706   3.145  0.7133  0.3478 -1.1085
24383SOL    HW274827   3.027   4.756   3.163  0.3466  0.6731  0.9978
24384SOL     OW74828   4.242   8.327   4.444 -0.1764  0.8266 -0.1249
24384SOL    HW174829   4.192   8.409   4.437 -0.1498  0.8037 -0.6217
24384SOL    HW274830   4.190   8.263   4.397  0.2561  0.7699 -0.5295
24385SOL     OW74831   2.538   3.524   3.073 -0.1681  0.2217 -0.2907
24385SOL    HW174832   2.455   3.522   3.024 -0.0297 -0.6704 -0.4953
24385SOL    HW274833   2.604   3.542   3.007 -0.1910  0.8574 -0.1389
24386SOL     OW74834   7.793   1.272   6.180 -0.5457  0.0787  0.4555
24386SOL    HW174835   7.779   1.280   6.275  1.7266  1.4717  0.7259
24386SOL    HW274836   7.879   1.232   6.173 -0.6156  0.1780 -1.0198
24387SOL     OW74837   5.118   6.316   4.579 -0.2913  0.1171  0.5427
24387SOL    HW174838   5.026   6.326   4.554  0.2097  2.4408 -0.4792
24387SOL    HW274839   5.167   6.338   4.500  1.1774 -1.8199  0.8547
24388SOL     OW74840   4.069   2.032   3.009 -0.4729 -0.0198  0.4833
24388SOL    HW174841   4.110   2.016   2.924 -0.2856  0.9375  0.3930
24388SOL    HW274842   3.990   1.977   3.008 -1.0956  0.8658 -0.7833
24389SOL     OW74843   6.260   5.480   0.917  0.4802  0.0566 -0.4806
24389SOL    HW174844   6.199   5.443   0.981  0.3092 -0.9337 -1.2077
24389SOL    HW274845   6.338   5.426   0.925  1.3099  1.3699  0.5019
24390SOL     OW74846   1.797   5.655   7.750 -0.0349 -0.8372  0.5876
24390SOL    HW174847   1.762   5.744   7.754  1.1653 -0.3874  1.8269
24390SOL    HW274848   1.857   5.657   7.675 -1.0758 -1.0042 -0.2457
24391SOL     OW74849   0.120   8.617   1.978 -0.3974 -0.0373  0.7500
24391SOL    HW174850   0.133   8.554   2.050 -0.8828 -1.1655 -0.1386
24391SOL    HW274851   0.030   8.647   1.988 -1.3543 -2.2242 -0.9574
24392SOL     OW74852   1.682   7.433   2.213  0.3837  0.6325 -0.5713
24392SOL    HW174853   1.742   7.506   2.226  1.3516 -0.1675 -0.4824
24392SOL    HW274854   1.606   7.454   2.268  0.1105  2.1663 -1.5132
24393SOL     OW74855   8.071   8.332   2.189 -0.9806 -0.5258 -0.1865
24393SOL    HW174856   8.100   8.422   2.203 -1.6960 -0.4669  1.0109
24393SOL    HW274857   7.992   8.339   2.137 -0.0072 -0.5751 -1.7007
24394SOL     OW74858   1.928   1.657   5.848 -0.1583 -0.1332  0.1116
24394SOL    HW174859   1.931   1.596   5.922 -0.3568 -0.3147 -0.0294
24394SOL    HW274860   1.857   1.624   5.793  0.4507 -0.4256 -0.5188
24395SOL     OW74861   3.953   2.521   1.188 -0.3725 -0.1240 -0.5187
24395SOL    HW174862   3.871   2.471   1.198 -0.3944 -0.0360 -0.2465
24395SOL    HW274863   3.973   2.516   1.095  0.4061 -1.8730 -0.2784
24396SOL     OW74864   4.077   1.327   5.605 -0.2692  0.5039 -0.0932
24396SOL    HW174865   4.031   1.388   5.548 -1.8252 -1.0339 -0.5251
24396SOL    HW274866   4.078   1.244   5.557  1.5142  0.0837  0.6180
24397SOL     OW74867   6.699   2.255   7.851 -0.2043  0.0167 -0.1214
24397SOL    HW174868   6.721   2.253   7.944  0.7325 -2.3191 -0.3775
24397SOL    HW274869   6.735   2.339   7.820 -1.5165  1.3416  1.8106
24398SOL     OW74870   1.853   2.102   2.983 -0.1883 -0.0102 -0.4478
24398SOL    HW174871   1.825   2.178   2.931  2.7575  1.4096 -0.0321
24398SOL    HW274872   1.870   2.034   2.918 -0.8301  0.3291 -0.9848
24399SOL     OW74873   5.178   3.404   2.766  0.0239  0.3278 -0.3855
24399SOL    HW174874   5.123   3.443   2.834  0.4368  1.4487 -0.6869
24399SOL    HW274875   5.245   3.470   2.748  0.3223 -0.2353 -1.3966
24400SOL     OW74876   2.940   2.883   6.354 -0.3612  0.3881  0.0196
24400SOL    HW174877   3.029   2.854   6.332 -0.1550  1.4065 -0.5371
24400SOL    HW274878   2.899   2.807   6.396  0.1318 -0.7144 -1.4803
24401SOL     OW74879   0.577   3.561   4.911 -0.1987 -0.6619  0.2322
24401SOL    HW174880   0.500   3.569   4.968 -1.1311 -1.3429 -0.9165
24401SOL    HW274881   0.582   3.468   4.891  0.4687 -0.5059 -0.3286
24402SOL     OW74882   3.759   0.680   6.642  0.4008 -0.3671 -0.4547
24402SOL    HW174883   3.748   0.771   6.672  0.4511 -0.8364  1.0106
24402SOL    HW274884   3.671   0.643   6.645  0.7496 -1.1351  1.5423
24403SOL     OW74885   7.337   5.148   7.638  0.1034  0.6606 -0.7650
24403SOL    HW174886   7.347   5.233   7.597 -0.4141  0.7460 -0.7184
24403SOL    HW274887   7.262   5.108   7.594 -1.5883  1.4780  1.2739
24404SOL     OW74888   1.920   8.055   4.236  0.9867  0.3640  0.3267
24404SOL    HW174889   2.003   8.094   4.263  1.5486  1.2271 -2.5282
24404SOL    HW274890   1.940   8.011   4.153 -1.4692  0.9320 -0.5988
24405SOL     OW74891   4.085   1.109   5.442  0.0460 -0.1286  0.5300
24405SOL    HW174892   4.087   1.135   5.350 -1.5176  1.7226  0.9699
24405SOL    HW274893   4.120   1.020   5.443  1.7747  0.4810 -1.6034
24406SOL     OW74894   5.600   3.910   4.763  0.7537  0.4099 -0.0224
24406SOL    HW174895   5.558   3.947   4.686 -2.6343 -1.1019  1.0036
24406SOL    HW274896   5.583   3.816   4.757 -0.8583  0.4131  3.2605
24407SOL     OW74897   2.576   7.319   7.936  0.0976  0.2011  0.1319
24407SOL    HW174898   2.578   7.413   7.953  0.6115  0.5219 -1.5744
24407SOL    HW274899   2.489   7.303   7.899  0.4218  0.2035 -0.6317
24408SOL     OW74900   6.812   7.497   9.292  0.2505 -0.0143  0.3245
24408SOL    HW174901   6.757   7.566   9.327 -1.6865 -0.0508 -2.5112
24408SOL    HW274902   6.886   7.542   9.252 -0.7233  0.3860 -1.0266
24409SOL     OW74903   0.857   8.217   6.492 -0.2154  0.2637  0.0171
24409SOL    HW174904   0.823   8.128   6.501 -0.3220  0.3570  0.5507
24409SOL    HW274905   0.886   8.241   6.580  1.2876  0.1674 -0.4407
24410SOL     OW74906   7.553   6.984   7.113  0.1842 -0.5651  0.0113
24410SOL    HW174907   7.595   6.903   7.143  0.2861 -1.0272 -1.3594
24410SOL    HW274908   7.607   7.053   7.151 -1.3854 -1.0585  3.3563
24411SOL     OW74909   5.090   6.080   2.638  0.4599 -0.3039 -0.7512
24411SOL    HW174910   5.054   6.168   2.644  1.2215  0.0007 -0.6691
24411SOL    HW274911   5.063   6.038   2.721  2.2994  0.6752  0.3677
24412SOL     OW74912   3.517   8.193   8.375  0.2905 -0.2071 -0.1395
24412SOL    HW174913   3.572   8.180   8.298 -0.8368  0.1627 -1.0240
24412SOL    HW274914   3.512   8.107   8.416  0.4192 -0.5399 -0.8082
24413SOL     OW74915   2.076   3.803   3.017  0.0160  0.0665  0.5549
24413SOL    HW174916   2.076   3.789   2.922  0.2546  0.7875  0.4452
24413SOL    HW274917   2.015   3.876   3.030  0.7123  0.5906  0.8610
24414SOL     OW74918   9.082   8.565   3.836  0.1779  0.0847  0.2156
24414SOL    HW174919   9.149   8.501   3.810 -0.7286 -0.4598 -0.8476
24414SOL    HW274920   9.066   8.548   3.928  0.8760 -0.3651  0.2567
24415SOL     OW74921   9.219   1.398   1.185 -0.3422  0.0217  0.1675
24415SOL    HW174922   9.263   1.439   1.109 -1.0093  0.0080 -0.2252
24415SOL    HW274923   9.196   1.472   1.241  0.0235  0.0440  0.2898
24416SOL     OW74924   1.113   1.465   0.373  0.1143  0.5079 -0.2068
24416SOL    HW174925   1.030   1.513   0.365 -0.1896 -0.0435 -0.3886
24416SOL    HW274926   1.180   1.534   0.376 -0.2083  0.9115 -1.8509
24417SOL     OW74927   5.664   4.358   7.000  0.2790  0.1734  0.4646
24417SOL    HW174928   5.676   4.452   7.015  0.4941 -0.0931  2.0864
24417SOL    HW274929   5.753   4.324   6.991  0.2271  0.0356  0.4797
24418SOL     OW74930   3.349   1.594   8.546  0.3053  0.1169  0.0635
24418SOL    HW174931   3.302   1.571   8.465 -0.3240  1.1296  0.1310
24418SOL    HW274932   3.346   1.690   8.549 -0.9835  0.0501  2.0268
24419SOL     OW74933   1.629   0.245   7.877  0.1639 -0.4516  0.2389
24419SOL    HW174934   1.545   0.219   7.838  0.4526 -0.2558 -0.5240
24419SOL    HW274935   1.604   0.294   7.956 -0.3974 -2.0067  1.0448
24420SOL     OW74936   4.807   2.479   5.518  0.6195 -0.3393 -0.6600
24420SOL    HW174937   4.792   2.410   5.583 -0.3376  0.2006 -0.2855
24420SOL    HW274938   4.797   2.561   5.567 -0.1166  0.0740 -1.4819
24421SOL     OW74939   4.220   6.806   1.380  0.1284 -0.3942  0.0482
24421SOL    HW174940   4.133   6.808   1.339 -0.4045  0.1759  1.1771
24421SOL    HW274941   4.214   6.736   1.445  0.2021  0.2787  0.7891
24422SOL     OW74942   8.623   9.165   2.676  0.0583 -0.6759 -0.2191
24422SOL    HW174943   8.698   9.150   2.734 -0.1825 -1.4088 -0.0829
24422SOL    HW274944   8.656   9.223   2.608  0.6271 -0.6291  0.0943
24423SOL     OW74945   1.624   3.395   0.450 -0.0685 -0.1735  1.0577
24423SOL    HW174946   1.673   3.371   0.529  0.0894 -0.3313  0.9127
24423SOL    HW274947   1.551   3.333   0.448  0.3205 -0.6244  0.7014
24424SOL     OW74948   5.338   3.632   3.884 -0.5025 -0.4323 -0.0038
24424SOL    HW174949   5.333   3.711   3.938  0.3069 -0.2929 -0.1329
24424SOL    HW274950   5.362   3.563   3.945 -2.3560 -0.8128  0.3290
24425SOL     OW74951   4.619   7.888   4.143 -0.1580 -0.1521  0.4881
24425SOL    HW174952   4.539   7.919   4.101 -0.3175 -0.5682  0.4735
24425SOL    HW274953   4.594   7.803   4.180 -0.1029  0.3465  1.6849
24426SOL     OW74954   8.262   2.192   8.823 -0.6310 -0.0448 -0.0230
24426SOL    HW174955   8.297   2.113   8.780 -0.9662 -0.7434  0.9787
24426SOL    HW274956   8.221   2.241   8.752  0.9681  0.0133 -0.9412
24427SOL     OW74957   4.072   5.009   7.281 -0.2796 -0.8608  0.2224
24427SOL    HW174958   4.014   4.945   7.323 -0.2793 -0.3228  1.0490
24427SOL    HW274959   4.012   5.069   7.236 -0.3936 -0.2271  1.1847
24428SOL     OW74960   1.957   7.885   0.528  0.3923 -0.0748 -0.2880
24428SOL    HW174961   2.047   7.868   0.554 -0.4070 -2.4834  1.0159
24428SOL    HW274962   1.923   7.800   0.500 -1.6780  0.6789 -0.1911
24429SOL     OW74963   7.725   2.937   7.055  0.0457  0.6183 -0.6999
24429SOL    HW174964   7.667   2.955   7.129  2.2484 -3.2915  2.1665
24429SOL    HW274965   7.801   2.993   7.071 -0.0302  0.7192 -0.6927
24430SOL     OW74966   5.782   2.726   3.073 -0.7711  0.1565  0.0393
24430SOL    HW174967   5.831   2.809   3.072 -1.6540  0.6881  0.6776
24430SOL    HW274968   5.704   2.744   3.021 -1.1947 -0.1330  0.5716
24431SOL     OW74969   4.921   5.758   0.556 -0.4440 -0.0224 -0.5789
24431SOL    HW174970   4.887   5.839   0.517  1.9236  2.1012  1.5882
24431SOL    HW274971   4.900   5.766   0.649 -1.4858 -2.6316 -0.5573
24432SOL     OW74972   3.069   5.716   0.704  0.0670 -0.2970 -0.0078
24432SOL    HW174973   3.021   5.644   0.661  0.3712 -0.5342  0.0437
24432SOL    HW274974   3.056   5.791   0.646 -0.1573 -0.4239 -0.1240
24433SOL     OW74975   3.146   7.226   8.825 -0.4704  0.4919  0.0445
24433SOL    HW174976   3.118   7.301   8.878 -2.5163  0.0303 -0.3447
24433SOL    HW274977   3.138   7.256   8.735 -1.2529 -0.1711 -0.1119
24434SOL     OW74978   0.814   2.191   8.092 -0.2018 -0.0207 -0.2770
24434SOL    HW174979   0.866   2.252   8.145  1.4218  0.6396 -2.5388
24434SOL    HW274980   0.827   2.221   8.002 -1.9195 -1.8414 -1.1677
24435SOL     OW74981   5.790   0.327   6.758 -0.1532  0.3021 -0.3254
24435SOL    HW174982   5.814   0.256   6.818  2.1363  1.8241  0.6330
24435SOL    HW274983   5.868   0.340   6.703 -1.5132  0.2741 -2.3118
24436SOL     OW74984   3.156   7.226   2.263 -0.6535  0.2524  0.3616
24436SOL    HW174985   3.154   7.170   2.185 -1.7234 -0.9008  1.2035
24436SOL    HW274986   3.211   7.179   2.326  1.3799  1.8350 -0.1382
24437SOL     OW74987   8.721   7.612   3.366  0.3593  0.1593 -0.2927
24437SOL    HW174988   8.783   7.682   3.345  2.7371 -1.5339  0.7614
24437SOL    HW274989   8.724   7.606   3.462  0.8998 -1.9335 -0.4075
24438SOL     OW74990   6.899   3.845   9.006  0.1780 -0.0482  0.2360
24438SOL    HW174991   6.935   3.921   9.051 -2.6403  1.4086  0.1236
24438SOL    HW274992   6.847   3.799   9.073 -0.5403 -0.2290 -0.4311
24439SOL     OW74993   2.644   0.638   0.232 -0.0415  0.4411 -0.4580
24439SOL    HW174994   2.667   0.640   0.325  1.5766  0.4087 -0.8450
24439SOL    HW274995   2.549   0.646   0.231 -0.0326  0.9905  1.1766
24440SOL     OW74996   0.846   1.322   5.021  0.3294  0.0233  0.2157
24440SOL    HW174997   0.858   1.416   5.037 -0.5724  0.2033 -0.1508
24440SOL    HW274998   0.905   1.303   4.948  1.9227 -0.1014  1.4992
24441SOL     OW74999   6.720   0.467   0.376 -0.1801 -0.1389  0.0738
24441SOL    HW175000   6.805   0.446   0.338 -0.4440 -0.9670 -0.0760
24441SOL    HW275001   6.660   0.470   0.300 -0.7512 -2.0132  0.4212
24442SOL     OW75002   8.868   8.264   5.959 -0.2633 -0.0043  0.2739
24442SOL    HW175003   8.835   8.336   6.014  0.9867  1.5976 -0.9995
24442SOL    HW275004   8.796   8.247   5.898 -1.1507 -0.8898  1.5405
24443SOL     OW75005   2.914   4.211   0.287 -0.0901  0.6566 -0.4941
24443SOL    HW175006   2.820   4.200   0.278  0.0486 -1.1285  0.0761
24443SOL    HW275007   2.925   4.301   0.318 -1.8594 -0.2073  2.8821
24444SOL     OW75008   3.577   5.799   4.398  0.0719  0.2387  0.3183
24444SOL    HW175009   3.573   5.888   4.361 -1.6527  0.5242  1.1461
24444SOL    HW275010   3.662   5.795   4.441  0.5707  1.1684 -0.5682
24445SOL     OW75011   2.336   6.120   8.508 -0.2464 -0.3507  0.0914
24445SOL    HW175012   2.313   6.160   8.424  0.9259 -1.0388 -0.5688
24445SOL    HW275013   2.413   6.168   8.537 -0.5023 -0.2808  0.6588
24446SOL     OW75014   4.838   5.103   0.021 -0.3451  0.4057  0.0037
24446SOL    HW175015   4.830   5.171  -0.045 -1.4654  1.3286  1.0561
24446SOL    HW275016   4.749   5.090   0.053 -0.1700 -1.7157 -0.3353
24447SOL     OW75017   7.064   0.934   3.107 -0.1207  0.1953 -0.1248
24447SOL    HW175018   7.098   0.906   3.192 -0.6945  0.2877  0.1417
24447SOL    HW275019   6.972   0.954   3.124 -0.1986  0.3672 -0.7358
24448SOL     OW75020   3.334   7.507   0.506 -0.4201  0.1450 -0.3104
24448SOL    HW175021   3.429   7.497   0.499 -0.1597  0.2968  2.3060
24448SOL    HW275022   3.322   7.578   0.570 -2.2789 -0.5516  0.1623
24449SOL     OW75023   6.541   5.100   5.644 -0.0133  0.3344  0.4880
24449SOL    HW175024   6.595   5.067   5.572  0.8246 -1.4300  1.8898
24449SOL    HW275025   6.567   5.192   5.653  1.7576 -0.1220  0.2188
24450SOL     OW75026   6.952   2.596   0.899  0.0846  0.2160  0.1967
24450SOL    HW175027   6.899   2.621   0.974  1.4435 -0.1850  1.3076
24450SOL    HW275028   7.033   2.647   0.908  0.2499  0.1784 -0.9937
24451SOL     OW75029   3.078   5.398   0.812 -0.6531 -0.9083  0.5625
24451SOL    HW175030   3.164   5.360   0.829  0.3570  1.1292  0.1292
24451SOL    HW275031   3.050   5.358   0.730 -0.2509 -1.7849  0.8450
24452SOL     OW75032   5.934   2.577   3.777 -1.0993  0.4756 -0.2556
24452SOL    HW175033   5.847   2.585   3.736 -1.0855  1.0714 -0.1653
24452SOL    HW275034   5.943   2.483   3.794 -1.4207  0.3161 -0.9300
24453SOL     OW75035   8.560   7.529   2.461  0.4490  0.2491 -0.0983
24453SOL    HW175036   8.529   7.460   2.520 -1.4550  0.6888 -0.5283
24453SOL    HW275037   8.653   7.538   2.480  0.9576 -3.1034 -0.7342
24454SOL     OW75038   0.428   2.836   1.232 -0.1952 -0.0934 -0.2339
24454SOL    HW175039   0.334   2.853   1.241 -0.3988 -1.0130 -0.6346
24454SOL    HW275040   0.468   2.886   1.304 -1.0961 -0.7035  0.7079
24455SOL     OW75041   1.428   2.939   5.785 -0.4245 -0.3339  0.6498
24455SOL    HW175042   1.389   2.912   5.702 -1.9325  0.4440  1.0734
24455SOL    HW275043   1.522   2.926   5.774 -0.8108 -2.3124 -0.4015
24456SOL     OW75044   7.389   2.529   7.405  0.0858 -0.3475 -0.1054
24456SOL    HW175045   7.474   2.571   7.401  0.6648 -1.3948  1.0048
24456SOL    HW275046   7.336   2.575   7.339  1.7109 -0.1817 -1.3134
24457SOL     OW75047   5.297   4.442   8.891 -0.1632 -0.0889  0.3761
24457SOL    HW175048   5.209   4.444   8.927 -0.5163  0.9870 -0.5215
24457SOL    HW275049   5.320   4.349   8.888 -1.5122 -0.4150  0.0106
24458SOL     OW75050   3.899   5.957   8.032 -0.3716  0.5176  0.1305
24458SOL    HW175051   3.848   5.910   7.966  0.0725 -0.2515  0.3347
24458SOL    HW275052   3.974   5.991   7.984 -0.0773  0.0056  0.2293
24459SOL     OW75053   4.290   3.206   1.411  0.2858  0.1223 -0.4212
24459SOL    HW175054   4.223   3.241   1.471  0.1516 -0.8242 -0.0030
24459SOL    HW275055   4.373   3.235   1.449  0.1512  0.5753 -0.4651
24460SOL     OW75056   7.652   5.432   0.902 -0.1771 -0.0502  0.2251
24460SOL    HW175057   7.692   5.438   0.816  0.4855  0.4287  0.5622
24460SOL    HW275058   7.650   5.338   0.921  0.9165 -0.0790  0.2581
24461SOL     OW75059   0.221   5.114   5.683 -0.2616  0.5061  0.3569
24461SOL    HW175060   0.172   5.082   5.608  0.7303 -1.4721  0.5153
24461SOL    HW275061   0.313   5.112   5.656  0.0495  0.4849  1.3610
24462SOL     OW75062   1.007   0.719   1.182 -0.1375  0.2201  0.3161
24462SOL    HW175063   1.061   0.798   1.174  0.3300 -0.0068  1.2432
24462SOL    HW275064   1.009   0.680   1.094 -1.4274  1.9139 -0.5021
24463SOL     OW75065   6.702   6.332   3.451 -0.0950  0.0497  0.0004
24463SOL    HW175066   6.792   6.312   3.476 -0.5594 -0.4578  1.3107
24463SOL    HW275067   6.696   6.428   3.460 -0.3321 -0.1498  2.1495
24464SOL     OW75068   7.588   3.314   8.920  0.0705  0.3075 -0.1602
24464SOL    HW175069   7.633   3.250   8.976 -0.0493 -1.3117 -1.8532
24464SOL    HW275070   7.578   3.269   8.836 -0.4666  2.3931 -1.2506
24465SOL     OW75071   4.998   2.101   2.198 -0.0305 -0.0763  0.1720
24465SOL    HW175072   5.091   2.109   2.220 -0.2435  2.0126  0.4827
24465SOL    HW275073   4.995   2.106   2.103  0.1791 -0.1172  0.1634
24466SOL     OW75074   8.345   7.985   6.540 -0.5017 -0.0205 -0.7734
24466SOL    HW175075   8.298   8.048   6.595 -0.8351  0.4252 -1.5659
24466SOL    HW275076   8.374   8.035   6.464 -1.0786 -0.8924 -1.5837
24467SOL     OW75077   7.654   6.066   2.029 -0.2108  0.2974  0.3286
24467SOL    HW175078   7.748   6.054   2.040  0.2879  0.9468 -2.7538
24467SOL    HW275079   7.635   6.149   2.073  0.5862  0.0517  1.1643
24468SOL     OW75080   4.930   5.469   5.803 -0.2264 -0.2574 -0.1217
24468SOL    HW175081   4.859   5.421   5.760 -1.0824 -0.5886  1.6333
24468SOL    HW275082   4.888   5.520   5.871  1.1485  0.0408  0.5280
24469SOL     OW75083   1.985   1.770   0.065  0.4249  0.6516 -0.4346
24469SOL    HW175084   1.912   1.803   0.116 -0.3793 -0.8273 -0.6066
24469SOL    HW275085   1.954   1.769  -0.025  0.0763 -1.4508 -0.3236
24470SOL     OW75086   5.089   4.155   7.240 -0.0677 -0.2607  0.2216
24470SOL    HW175087   5.129   4.109   7.166 -0.4718 -1.3372  0.6729
24470SOL    HW275088   5.003   4.181   7.208  0.1641  0.2005 -0.0368
24471SOL     OW75089   4.059   0.427   8.289 -0.4156 -0.4810  0.2882
24471SOL    HW175090   3.976   0.419   8.334 -0.2842 -0.8522  0.4646
24471SOL    HW275091   4.041   0.402   8.199 -0.3360 -1.3045  0.4936
24472SOL     OW75092   1.275   8.166   8.906 -0.3534 -0.2171  0.3002
24472SOL    HW175093   1.201   8.171   8.845 -0.2758 -1.6081  0.0924
24472SOL    HW275094   1.237   8.135   8.988 -0.8011  3.4117  1.5764
24473SOL     OW75095   3.591   8.977   6.669  0.6460 -0.3601  0.4185
24473SOL    HW175096   3.535   9.038   6.715  0.8407 -0.2970  0.5708
24473SOL    HW275097   3.597   9.012   6.580 -0.2772 -0.8447  0.1533
24474SOL     OW75098   5.921   5.502   8.816 -0.5645  0.1440  0.0179
24474SOL    HW175099   5.831   5.473   8.800 -0.2812 -0.4600 -0.5212
24474SOL    HW275100   5.929   5.506   8.911 -1.2338  0.4090  0.0588
24475SOL     OW75101   4.849   1.296   7.482 -0.4078  0.4346  0.6413
24475SOL    HW175102   4.894   1.361   7.536 -2.3165  2.4813 -0.1670
24475SOL    HW275103   4.771   1.340   7.451 -0.9966 -1.7798 -1.1774
24476SOL     OW75104   2.507   8.152   0.486 -0.2546  0.0817  0.1900
24476SOL    HW175105   2.460   8.148   0.403  2.3490 -1.4423 -1.2953
24476SOL    HW275106   2.599   8.162   0.461  0.4257  1.2380  2.9456
24477SOL     OW75107   5.881   0.364   6.386 -0.4109 -0.8929  0.5128
24477SOL    HW175108   5.834   0.282   6.404 -0.5108 -0.6581  1.3372
24477SOL    HW275109   5.945   0.370   6.457 -0.3408 -0.2970  0.3948
24478SOL     OW75110   4.309   5.511   5.518  0.1074  0.0716 -0.0909
24478SOL    HW175111   4.240   5.573   5.494  1.1064  0.7215 -1.3430
24478SOL    HW275112   4.358   5.556   5.587 -1.0895 -0.6627  1.2735
24479SOL     OW75113   2.913   8.271   3.964 -0.7707 -0.1228 -0.0338
24479SOL    HW175114   3.001   8.290   3.932  0.3463 -0.4008  2.7787
24479SOL    HW275115   2.856   8.326   3.910  1.2266  1.0182 -1.0399
24480SOL     OW75116   4.776   0.998   6.452  0.6989 -0.3879  0.7745
24480SOL    HW175117   4.803   0.994   6.361  2.0576 -0.8319  1.1814
24480SOL    HW275118   4.846   0.954   6.500  0.5066  0.7355  2.1362
24481SOL     OW75119   5.880   7.775   3.229  0.0401 -0.1910  0.2094
24481SOL    HW175120   5.797   7.783   3.182 -0.9919 -1.4075  1.7758
24481SOL    HW275121   5.946   7.773   3.160 -1.4127 -1.4473 -1.1983
24482SOL     OW75122   4.051   3.300   5.623 -0.0495 -0.2116  0.8728
24482SOL    HW175123   4.071   3.383   5.578  0.5269 -1.0383 -0.4406
24482SOL    HW275124   4.050   3.323   5.716 -0.3729  1.3680  0.5021
24483SOL     OW75125   0.930   9.236   0.986 -0.2928  0.1749 -0.0314
24483SOL    HW175126   0.951   9.211   1.075 -0.8057  0.0857  0.0668
24483SOL    HW275127   0.847   9.192   0.967 -0.1519  0.1312 -0.5761
24484SOL     OW75128   4.473   3.954   2.971  0.1488 -0.3489  0.4154
24484SOL    HW175129   4.443   3.933   2.882  0.6628  1.1619 -0.1173
24484SOL    HW275130   4.552   3.900   2.982  0.9878  0.6206 -0.6490
24485SOL     OW75131   5.030   6.714   5.736  0.0136 -0.5516  0.2988
24485SOL    HW175132   4.951   6.700   5.788  0.3918 -2.4349  0.4019
24485SOL    HW275133   5.014   6.666   5.654  0.0666  1.0893 -0.6926
24486SOL     OW75134   8.728   9.254   9.221 -0.2154 -0.2730  0.4477
24486SOL    HW175135   8.683   9.177   9.256  1.6967 -0.9273  1.5301
24486SOL    HW275136   8.744   9.310   9.297  1.4531 -0.4018  0.2088
24487SOL     OW75137   4.482   8.483   5.302  0.6105  0.3614 -0.0350
24487SOL    HW175138   4.416   8.482   5.233  1.2635 -0.9693 -0.6590
24487SOL    HW275139   4.437   8.521   5.378 -0.6561  0.1427 -0.6629
24488SOL     OW75140   2.783   8.587   7.749 -0.6045  0.7755 -0.1954
24488SOL    HW175141   2.712   8.641   7.713 -1.8607 -0.1059  0.8874
24488SOL    HW275142   2.840   8.650   7.793 -2.4334  1.2203  1.6670
24489SOL     OW75143   5.652   4.646   1.130  0.2406  0.0961 -0.0614
24489SOL    HW175144   5.557   4.648   1.143  0.6900  0.4683  3.7466
24489SOL    HW275145   5.672   4.554   1.113 -0.5525 -0.4422  1.7855
24490SOL     OW75146   0.450   6.663   6.327  0.1544  0.5102  0.4475
24490SOL    HW175147   0.507   6.694   6.397  0.1619 -0.0376  0.6836
24490SOL    HW275148   0.432   6.572   6.349  0.3206  0.2816 -0.3741
24491SOL     OW75149   3.339   4.072   3.830  0.4625 -0.1386 -0.4085
24491SOL    HW175150   3.411   4.080   3.768  1.8036 -0.9155  1.0095
24491SOL    HW275151   3.350   4.147   3.889 -0.8235  0.6157 -1.0958
24492SOL     OW75152   5.114   6.852   4.336  0.2999  0.5826  0.2649
24492SOL    HW175153   5.059   6.920   4.376 -0.8197 -0.9253  1.3352
24492SOL    HW275154   5.093   6.773   4.384  3.1412 -0.1337  0.4075
24493SOL     OW75155   6.723   1.643   5.114  0.4899 -0.3415 -0.4045
24493SOL    HW175156   6.718   1.655   5.209 -1.1154  0.3557 -0.5591
24493SOL    HW275157   6.634   1.618   5.088  0.5473  0.9096 -1.9109
24494SOL     OW75158   5.016   0.755   1.545 -0.2778 -0.6927 -0.6268
24494SOL    HW175159   4.991   0.797   1.463 -0.8224 -1.8703 -1.0687
24494SOL    HW275160   5.030   0.828   1.606 -1.1366  0.1357 -1.4059
24495SOL     OW75161   5.621   1.631   3.552  0.4117 -0.4549 -0.0258
24495SOL    HW175162   5.670   1.571   3.496  1.3389 -0.0533  0.3473
24495SOL    HW275163   5.577   1.691   3.491 -2.6701 -3.1057 -0.5254
24496SOL     OW75164   9.136   3.469   1.505  0.1118  0.3862  0.1518
24496SOL    HW175165   9.118   3.563   1.501 -3.3144 -0.1557  1.1001
24496SOL    HW275166   9.132   3.441   1.414 -2.1050  0.6697  0.1191
24497SOL     OW75167   7.341   5.409   2.414 -0.1244  0.0911 -0.0029
24497SOL    HW175168   7.292   5.465   2.475  0.5390  0.4685  0.1870
24497SOL    HW275169   7.273   5.368   2.360 -0.6528  0.6338  0.2384
24498SOL     OW75170   3.640   6.162   6.925  0.4167  0.6830 -0.1301
24498SOL    HW175171   3.552   6.135   6.950  1.1894 -1.9005 -0.0643
24498SOL    HW275172   3.646   6.140   6.832  1.1184  0.4438 -0.0314
24499SOL     OW75173   5.723   7.542   3.124  0.0514 -0.3382  0.0938
24499SOL    HW175174   5.665   7.509   3.056  0.1606  0.6864 -0.5023
24499SOL    HW275175   5.811   7.532   3.088  0.1112  0.1649  0.1005
24500SOL     OW75176   5.354   5.027   1.333 -0.1800  0.3451  0.6993
24500SOL    HW175177   5.310   5.096   1.381 -0.5096  0.2901  0.4791
24500SOL    HW275178   5.310   5.025   1.248  0.7052  0.7651  0.2199
24501SOL     OW75179   0.296   0.363   0.815  0.5555  0.1230  0.1901
24501SOL    HW175180   0.327   0.274   0.796  0.9455  0.3830 -0.4207
24501SOL    HW275181   0.228   0.379   0.749  0.4617  0.2635  0.3205
24502SOL     OW75182   4.094   6.318   6.738  0.2640  0.1948 -0.0392
24502SOL    HW175183   4.045   6.291   6.816  0.3789 -0.2513 -0.1228
24502SOL    HW275184   4.027   6.358   6.682  0.3947  1.6676  0.8111
24503SOL     OW75185   1.886   8.998   2.761  0.1260  0.3016  0.3213
24503SOL    HW175186   1.848   8.930   2.817 -0.5590  0.7718  0.4255
24503SOL    HW275187   1.811   9.041   2.721  0.5556  1.2424  0.5289
24504SOL     OW75188   0.735   3.821   3.053  0.0779  0.0673  0.4824
24504SOL    HW175189   0.693   3.778   3.128 -1.2142 -1.8625 -1.2875
24504SOL    HW275190   0.663   3.845   2.996  1.0007  2.2940  0.2144
24505SOL     OW75191   0.938   6.853   4.159  0.0455 -0.1016  0.2689
24505SOL    HW175192   0.850   6.866   4.194  0.3558 -2.9410  2.2271
24505SOL    HW275193   0.927   6.792   4.086  0.2547  0.5824 -0.3480
24506SOL     OW75194   0.492   2.708   5.066 -0.5532 -0.1435 -0.0492
24506SOL    HW175195   0.424   2.735   5.127 -1.5743 -0.7781 -0.8959
24506SOL    HW275196   0.549   2.785   5.059 -1.9378  0.8718 -0.3779
24507SOL     OW75197   8.842   5.348   3.681  0.0272  0.4279 -0.2630
24507SOL    HW175198   8.872   5.260   3.702  1.0332  0.7680 -0.2700
24507SOL    HW275199   8.913   5.387   3.630 -0.2292  1.3844  0.0872
24508SOL     OW75200   8.937   2.213   9.076  0.1679  0.6479  0.3276
24508SOL    HW175201   8.872   2.147   9.052  0.7891  0.5436 -1.0946
24508SOL    HW275202   8.890   2.271   9.136 -1.2192  0.5265 -0.6062
24509SOL     OW75203   9.110   2.243   4.512  0.5963 -0.4733  0.0050
24509SOL    HW175204   9.106   2.305   4.584  0.3921 -0.4422 -0.0334
24509SOL    HW275205   9.045   2.176   4.534  0.0044 -0.0754 -0.5167
24510SOL     OW75206   5.551   7.672   9.000 -0.2704  0.1978 -0.3945
24510SOL    HW175207   5.523   7.653   8.911  0.6743  0.6215 -0.7921
24510SOL    HW275208   5.470   7.677   9.051 -0.6640 -3.5902 -0.4994
24511SOL     OW75209   2.658   2.108   7.169 -0.1123  0.2171  0.4105
24511SOL    HW175210   2.751   2.103   7.149 -0.1879  1.5850 -0.3416
24511SOL    HW275211   2.622   2.023   7.141  0.3487  0.9033 -2.3167
24512SOL     OW75212   2.629   4.623   0.383  0.3826  0.5853 -0.4244
24512SOL    HW175213   2.685   4.649   0.310  1.0074  0.7026  0.0904
24512SOL    HW275214   2.661   4.536   0.408  0.0758  0.4830 -0.3836
24513SOL     OW75215   8.977   2.614   8.441 -0.3994  0.3807 -0.1925
24513SOL    HW175216   8.984   2.519   8.444  1.4465  0.5208  2.0527
24513SOL    HW275217   8.910   2.635   8.507  1.7206  0.7770  1.8997
24514SOL     OW75218   0.938   5.375   3.260  0.2083 -0.3449  0.4237
24514SOL    HW175219   1.033   5.376   3.267  0.3471 -1.6816 -1.0586
24514SOL    HW275220   0.920   5.325   3.181 -1.7170  0.4957  0.3004
24515SOL     OW75221   6.935   2.354   0.180 -0.7464  0.1746 -0.8383
24515SOL    HW175222   6.955   2.346   0.273  2.8612  0.7004 -1.4901
24515SOL    HW275223   6.881   2.278   0.160  1.3397 -1.8366  0.9761
24516SOL     OW75224   1.136   8.215   3.231 -0.1947 -0.6064 -0.5655
24516SOL    HW175225   1.144   8.136   3.284  2.0667 -1.3578 -1.9490
24516SOL    HW275226   1.214   8.266   3.251 -0.4097  0.1234 -1.5263
24517SOL     OW75227   4.909   5.070   0.355 -0.4292  0.0909  0.4499
24517SOL    HW175228   5.004   5.066   0.351 -0.4616 -1.3697  0.9427
24517SOL    HW275229   4.880   4.990   0.312 -1.4325  0.3956  0.5481
24518SOL     OW75230   3.217   0.554   1.819  0.0771 -0.6684 -0.7252
24518SOL    HW175231   3.308   0.580   1.806  0.4862 -1.0074  1.2814
24518SOL    HW275232   3.172   0.634   1.845  0.9235 -1.4314  3.4572
24519SOL     OW75233   4.767   6.394   3.481 -0.2753  0.2960 -0.1394
24519SOL    HW175234   4.827   6.418   3.410  0.3306 -0.4543  0.1082
24519SOL    HW275235   4.695   6.349   3.437 -0.9125  1.6499 -0.4956
24520SOL     OW75236   0.883   4.355   7.733  0.6105  0.0287  0.2915
24520SOL    HW175237   0.821   4.407   7.784  1.4313  1.4601 -0.1528
24520SOL    HW275238   0.833   4.279   7.705 -0.9453  1.1787 -0.0984
24521SOL     OW75239   3.888   5.143   8.080 -0.1195 -0.1291 -0.0698
24521SOL    HW175240   3.974   5.132   8.120  0.6227 -0.0009 -1.5816
24521SOL    HW275241   3.838   5.067   8.110  0.6474 -0.4068  0.5182
24522SOL     OW75242   9.031   7.168   4.989  0.2083  0.5533 -0.1129
24522SOL    HW175243   8.987   7.128   5.064 -1.5117  0.9532 -0.8713
24522SOL    HW275244   9.088   7.235   5.027  1.8058 -1.4011  1.0418
24523SOL     OW75245   2.619   9.003   4.285 -0.6306 -0.5451 -0.2115
24523SOL    HW175246   2.666   8.986   4.367 -0.4987  1.5800  0.1673
24523SOL    HW275247   2.527   8.995   4.308 -0.5794 -0.5723 -0.0134
24524SOL     OW75248   5.627   8.736   1.057 -0.1145  0.1135 -0.3566
24524SOL    HW175249   5.691   8.743   0.986  3.2097  1.1825  2.6117
24524SOL    HW275250   5.570   8.812   1.045  1.1066  0.9102 -1.2374
24525SOL     OW75251   3.098   4.858   6.724 -0.5117  0.1804  0.0758
24525SOL    HW175252   3.151   4.814   6.658  0.2531  0.8554  0.2389
24525SOL    HW275253   3.090   4.795   6.796  0.6111  0.3227  0.3259
24526SOL     OW75254   0.477   8.719   8.686 -0.2836 -0.5006 -0.1257
24526SOL    HW175255   0.530   8.696   8.762  0.1387 -1.0072 -0.5627
24526SOL    HW275256   0.540   8.722   8.614 -0.9220 -1.6067 -0.7508
24527SOL     OW75257   4.477   2.274   8.812  0.5805 -0.1723 -0.3684
24527SOL    HW175258   4.510   2.344   8.868  1.7843 -0.0903 -1.1570
24527SOL    HW275259   4.485   2.195   8.865 -0.1461  0.1856  0.2803
24528SOL     OW75260   0.129   3.718   8.393  0.7205 -0.0662  0.7273
24528SOL    HW175261   0.177   3.712   8.476  0.5847  1.9027  0.9847
24528SOL    HW275262   0.074   3.796   8.404 -1.8096 -1.7331  0.0564
24529SOL     OW75263   0.120   4.845   2.003  0.1445 -0.3638  0.1468
24529SOL    HW175264   0.124   4.751   1.982  0.6195 -0.3559  0.2079
24529SOL    HW275265   0.029   4.869   1.985  0.2266 -0.6509 -0.6484
24530SOL     OW75266   0.327   0.957   1.995 -0.0968  0.6355 -0.2587
24530SOL    HW175267   0.285   1.036   1.961 -1.1133 -0.0719 -0.6743
24530SOL    HW275268   0.280   0.885   1.954 -1.2738 -0.2448  2.5432
24531SOL     OW75269   0.809   4.541   6.917 -0.4334 -0.5689 -0.0756
24531SOL    HW175270   0.714   4.533   6.931 -0.2439 -1.4677  0.7798
24531SOL    HW275271   0.843   4.455   6.940  0.9320  0.6359  2.5344
24532SOL     OW75272   0.617   2.704   5.778 -0.5128 -0.0478  0.0089
24532SOL    HW175273   0.666   2.671   5.854 -1.6845 -0.6502  0.5142
24532SOL    HW275274   0.678   2.763   5.734  0.7961 -1.0614  0.4331
24533SOL     OW75275   8.272   0.169   5.614 -0.1664  0.2005  0.0373
24533SOL    HW175276   8.272   0.255   5.657  1.1001 -0.4208  1.2978
24533SOL    HW275277   8.231   0.186   5.529 -0.3229  1.9725  0.4349
24534SOL     OW75278   1.753   7.253   5.438 -0.0051 -0.1941  0.0258
24534SOL    HW175279   1.754   7.310   5.361 -0.8494 -0.4254 -0.1540
24534SOL    HW275280   1.772   7.166   5.403 -2.4391 -0.6470 -0.2055
24535SOL     OW75281   3.346   4.691   3.426  0.3555 -0.1824  0.0265
24535SOL    HW175282   3.438   4.669   3.441  0.7988  2.0387  0.7195
24535SOL    HW275283   3.349   4.773   3.376 -1.2519 -0.1172  0.0140
24536SOL     OW75284   7.429   1.659   4.472  0.2485  0.1849 -0.0284
24536SOL    HW175285   7.428   1.740   4.422 -1.4424  0.0580 -0.2473
24536SOL    HW275286   7.360   1.605   4.432  0.3585 -0.7761  1.0406
24537SOL     OW75287   1.645   5.247   0.680  0.0817 -0.4363 -0.4143
24537SOL    HW175288   1.657   5.171   0.624 -2.5499 -0.0237 -1.6272
24537SOL    HW275289   1.597   5.214   0.756  0.7802 -0.3711  0.0635
24538SOL     OW75290   8.913   2.592   4.652 -0.3484 -0.5904 -0.0755
24538SOL    HW175291   8.989   2.609   4.596  0.0096  0.1286  0.6080
24538SOL    HW275292   8.846   2.654   4.622  0.4176  1.0003  1.3698
24539SOL     OW75293   8.822   7.652   1.839  0.0038  0.1507  0.2418
24539SOL    HW175294   8.852   7.595   1.910  0.3881 -0.0567 -0.0871
24539SOL    HW275295   8.728   7.634   1.833  0.5091 -2.1814 -1.4003
24540SOL     OW75296   4.951   5.568   6.369  0.4170  0.0744 -0.8740
24540SOL    HW175297   4.951   5.663   6.383  1.0514 -0.0650  0.1220
24540SOL    HW275298   5.039   5.540   6.393 -0.3009 -1.0153  0.5494
24541SOL     OW75299   4.208   7.153   0.039 -0.4973  0.0340 -0.4613
24541SOL    HW175300   4.187   7.167  -0.054  0.3128 -0.5529 -0.7337
24541SOL    HW275301   4.291   7.105   0.038 -0.0344  0.8020  0.5857
24542SOL     OW75302   2.975   6.340   6.352  0.5554 -0.3534  0.1185
24542SOL    HW175303   2.881   6.338   6.333  0.4160 -1.1468  0.8394
24542SOL    HW275304   3.008   6.259   6.313  0.8187 -0.4238  0.4955
24543SOL     OW75305   5.205   1.625   1.794  0.2887 -0.2218 -0.2456
24543SOL    HW175306   5.110   1.631   1.801  0.1616  1.0853 -2.5202
24543SOL    HW275307   5.235   1.612   1.884 -2.0961 -1.8219  0.3563
24544SOL     OW75308   6.940   0.906   1.211 -0.2570  0.4929 -0.2399
24544SOL    HW175309   6.893   0.973   1.260  0.2949  0.3115  0.5359
24544SOL    HW275310   7.025   0.900   1.254 -0.5552 -1.2109  0.1361
24545SOL     OW75311   1.135   5.706   3.214  0.3403 -0.4636  0.4462
24545SOL    HW175312   1.076   5.729   3.286 -0.7799 -2.1271  0.0790
24545SOL    HW275313   1.139   5.610   3.216  0.9154 -0.4854 -1.2144
24546SOL     OW75314   5.841   1.758   5.580  0.7435  0.1359  0.2717
24546SOL    HW175315   5.873   1.779   5.492  1.1980 -2.5331 -0.2404
24546SOL    HW275316   5.912   1.784   5.638  1.4216 -0.2767 -0.3620
24547SOL     OW75317   9.174   5.684   7.599  0.7308  0.8006  0.3927
24547SOL    HW175318   9.154   5.628   7.674  1.6295  0.4669  0.3859
24547SOL    HW275319   9.193   5.622   7.528  2.0814  1.1071  0.4778
24548SOL     OW75320   8.540   0.587   5.825  0.7237 -0.4285  0.3167
24548SOL    HW175321   8.505   0.543   5.748 -0.2293 -0.9144  1.0165
24548SOL    HW275322   8.491   0.669   5.830 -0.2719 -1.0621  1.2373
24549SOL     OW75323   2.623   2.178   6.844 -0.5672  0.1646 -0.4114
24549SOL    HW175324   2.597   2.229   6.921  1.5642  1.9895 -0.8443
24549SOL    HW275325   2.557   2.109   6.837 -1.1079  0.3014  2.7198
24550SOL     OW75326   8.099   0.633   6.668  0.2986 -0.1647  0.0789
24550SOL    HW175327   8.149   0.556   6.696 -0.8718 -0.9156  0.1101
24550SOL    HW275328   8.009   0.614   6.692 -0.2161  0.6293 -1.1706
24551SOL     OW75329   4.608   6.509   8.274 -0.5083  0.3358 -0.4796
24551SOL    HW175330   4.613   6.580   8.339  0.6851 -1.1159  1.0661
24551SOL    HW275331   4.629   6.551   8.191 -2.1028  2.2475  0.0460
24552SOL     OW75332   4.873   1.991   6.787 -0.1641  0.3872  0.6233
24552SOL    HW175333   4.913   2.075   6.810  2.0636 -0.1984 -0.9385
24552SOL    HW275334   4.835   2.006   6.701  0.1553 -0.1782  0.3837
24553SOL     OW75335   2.318   4.892   7.375 -0.1349 -0.0153  0.0861
24553SOL    HW175336   2.372   4.959   7.418  1.2829 -0.2397 -1.2585
24553SOL    HW275337   2.238   4.888   7.427  0.0074  2.2929  0.5584
24554SOL     OW75338   7.493   0.893   7.996 -0.2208 -0.1272  0.4531
24554SOL    HW175339   7.421   0.882   7.934  0.7206 -2.7265 -0.2710
24554SOL    HW275340   7.482   0.981   8.031 -3.2143 -0.1336 -0.3123
24555SOL     OW75341   8.103   8.853   1.585  0.0755 -0.1834 -0.1030
24555SOL    HW175342   8.153   8.881   1.661 -0.6016 -1.6708  0.9140
24555SOL    HW275343   8.017   8.894   1.597 -0.1455 -0.7070  0.1319
24556SOL     OW75344   5.574   7.430   4.577 -0.2879 -0.2751  0.1902
24556SOL    HW175345   5.627   7.424   4.657  1.0791 -0.6065 -0.7184
24556SOL    HW275346   5.527   7.347   4.573 -1.4175  0.2924  1.3605
24557SOL     OW75347   6.598   8.252   4.879 -0.0884  0.3538  0.7329
24557SOL    HW175348   6.520   8.305   4.891  1.7894  2.9865  1.7391
24557SOL    HW275349   6.608   8.205   4.962 -0.4036  0.2644  0.7219
24558SOL     OW75350   8.569   2.464   0.819  0.0001 -0.0660 -0.0526
24558SOL    HW175351   8.603   2.434   0.903  0.7798  1.6951  0.2760
24558SOL    HW275352   8.646   2.466   0.762 -0.0005  1.4880 -0.0114
24559SOL     OW75353   3.710   2.459   4.922 -0.5653  0.6276 -0.2755
24559SOL    HW175354   3.655   2.498   4.854  0.0464 -0.2777 -1.2950
24559SOL    HW275355   3.777   2.526   4.939 -1.0384  1.0755 -0.1826
24560SOL     OW75356   0.592   2.107   0.559  0.4840 -0.1586  0.0169
24560SOL    HW175357   0.519   2.050   0.582  0.4791 -0.4698 -0.7485
24560SOL    HW275358   0.551   2.187   0.526  0.4887  0.0406  0.4982
24561SOL     OW75359   3.608   8.794   4.983  1.0627  0.2203  0.2178
24561SOL    HW175360   3.645   8.749   5.058  2.2225  1.9957  0.7460
24561SOL    HW275361   3.681   8.802   4.921  0.5615  0.2757 -0.3739
24562SOL     OW75362   5.255   6.097   3.431  0.3961  0.1578  0.2714
24562SOL    HW175363   5.298   6.144   3.502  0.1497 -1.3256  1.4431
24562SOL    HW275364   5.327   6.053   3.385  0.5399  0.9938 -0.3155
24563SOL     OW75365   0.341   5.120   6.068 -0.0122  0.2695  0.2936
24563SOL    HW175366   0.377   5.209   6.074  0.5418 -0.0077  1.2097
24563SOL    HW275367   0.324   5.095   6.159 -2.0790  0.2003 -0.0948
24564SOL     OW75368   0.382   4.134   8.150 -0.1887  1.0752  0.5256
24564SOL    HW175369   0.443   4.176   8.211 -0.5091  1.6494  0.4521
24564SOL    HW275370   0.326   4.080   8.206  0.8905 -0.0891  0.5134
24565SOL     OW75371   8.439   6.202   4.085 -0.1183 -0.0730 -0.4466
24565SOL    HW175372   8.390   6.250   4.019  0.9292 -0.5237 -1.5595
24565SOL    HW275373   8.373   6.153   4.134 -1.2207  2.4951  0.7333
24566SOL     OW75374   8.756   0.098   3.477  0.1810  0.3932 -0.5629
24566SOL    HW175375   8.665   0.127   3.487  0.6471  0.9364  2.4817
24566SOL    HW275376   8.752   0.003   3.490  0.1099  0.4527 -0.1712
24567SOL     OW75377   4.976   7.121   6.225  0.2476  0.0668 -0.3520
24567SOL    HW175378   4.993   7.206   6.185 -1.5129  0.2742 -0.6949
24567SOL    HW275379   4.970   7.061   6.151  2.1738 -0.4937 -0.0728
24568SOL     OW75380   8.442   2.333   6.191  0.0616 -0.6845 -0.0948
24568SOL    HW175381   8.537   2.337   6.192  0.1754 -2.8038 -0.6630
24568SOL    HW275382   8.416   2.391   6.119  0.9233 -0.3145 -0.1052
24569SOL     OW75383   2.806   7.543   4.942 -0.3884 -0.1128  0.5012
24569SOL    HW175384   2.863   7.477   4.982 -0.9253 -1.8322 -1.4804
24569SOL    HW275385   2.727   7.544   4.996  1.3189  2.0561  3.0762
24570SOL     OW75386   0.129   0.480   1.567 -0.4978  0.3139 -0.0999
24570SOL    HW175387   0.123   0.535   1.645 -0.7118  1.5783 -0.9823
24570SOL    HW275388   0.121   0.391   1.600  1.8176  0.6639  1.6039
24571SOL     OW75389   7.807   3.266   7.104  0.3748  0.2122 -0.1776
24571SOL    HW175390   7.718   3.289   7.130 -0.3103 -0.6116 -1.7809
24571SOL    HW275391   7.856   3.348   7.112 -0.8424  0.9961 -0.6236
24572SOL     OW75392   5.048   7.429   7.702 -0.1184 -0.6204 -0.5456
24572SOL    HW175393   5.072   7.516   7.670 -1.7391 -0.0039 -0.1007
24572SOL    HW275394   5.035   7.377   7.623  1.8649 -0.7633 -0.8121
24573SOL     OW75395   1.850   7.138   8.055 -0.3494 -0.1630 -0.2229
24573SOL    HW175396   1.818   7.162   7.968  0.2474  0.8462 -0.1715
24573SOL    HW275397   1.805   7.057   8.075 -1.6716  0.4125 -0.8124
24574SOL     OW75398   8.583   4.242   1.686 -0.5376 -0.2977 -0.5961
24574SOL    HW175399   8.658   4.210   1.635 -1.4195 -1.0456 -1.4555
24574SOL    HW275400   8.553   4.165   1.735 -1.5451 -0.3471 -1.2696
24575SOL     OW75401   2.325   0.270   1.453 -0.1013 -0.4429 -0.6835
24575SOL    HW175402   2.252   0.314   1.497  1.1492  2.6658 -1.5441
24575SOL    HW275403   2.283   0.207   1.394 -1.9447 -0.9638  1.1297
24576SOL     OW75404   9.174   6.774   0.433 -0.7775 -0.3922  0.0552
24576SOL    HW175405   9.175   6.686   0.394 -0.1467 -0.4431  0.1799
24576SOL    HW275406   9.208   6.761   0.521  0.4941  0.1625 -0.3381
24577SOL     OW75407   5.383   1.827   0.063 -0.2445  0.2278 -0.4490
24577SOL    HW175408   5.352   1.737   0.052 -0.3115  0.2906 -0.7688
24577SOL    HW275409   5.464   1.831   0.012  0.6017 -0.1024  0.8521
24578SOL     OW75410   0.468   2.510   5.453 -0.2477  0.5758  0.1622
24578SOL    HW175411   0.555   2.533   5.420 -0.6537  3.1234  0.7150
24578SOL    HW275412   0.466   2.415   5.454  2.1801  0.4930 -0.7911
24579SOL     OW75413   9.201   0.467   6.930  0.2219  0.2682  0.1106
24579SOL    HW175414   9.284   0.422   6.912 -0.1629 -1.2373  1.9856
24579SOL    HW275415   9.173   0.501   6.845  3.1100  1.4473 -0.4374
24580SOL     OW75416   6.854   6.712   5.605 -0.1353 -0.1402 -0.7132
24580SOL    HW175417   6.889   6.751   5.686 -0.3003 -0.0475 -0.6872
24580SOL    HW275418   6.862   6.618   5.619 -0.1486 -0.1245 -0.5949
24581SOL     OW75419   2.966   1.813   6.437  0.3506  0.5756 -0.7905
24581SOL    HW175420   3.053   1.781   6.464  0.4836  1.5392 -0.0211
24581SOL    HW275421   2.913   1.805   6.516 -0.7665 -1.6317 -1.7148
24582SOL     OW75422   4.685   8.137   2.620 -0.2244  0.5643 -0.5798
24582SOL    HW175423   4.603   8.181   2.598 -0.0451  0.9332 -0.5125
24582SOL    HW275424   4.659   8.063   2.675 -0.5185  0.6441 -0.6117
24583SOL     OW75425   4.218   8.451   6.128 -0.2282  0.1835 -0.6156
24583SOL    HW175426   4.223   8.363   6.092 -1.3701 -0.5474  0.9512
24583SOL    HW275427   4.273   8.448   6.207 -0.0973  0.9301 -0.6717
24584SOL     OW75428   7.347   4.837   8.775 -0.3232  0.7543  0.3082
24584SOL    HW175429   7.430   4.882   8.788  0.3618  0.2285 -1.9942
24584SOL    HW275430   7.286   4.906   8.749 -0.1467  0.8843  0.2353
24585SOL     OW75431   6.353   6.009   0.053 -0.2601  0.0043  0.1700
24585SOL    HW175432   6.419   6.059   0.101  1.9255 -1.8054 -0.8348
24585SOL    HW275433   6.323   5.943   0.115  2.0574 -1.8885 -0.6032
24586SOL     OW75434   4.669   5.536   5.468  0.2829  0.7369  0.1711
24586SOL    HW175435   4.673   5.575   5.380  1.4998  0.3924  0.0604
24586SOL    HW275436   4.676   5.611   5.527 -0.6993  0.9859 -0.0166
24587SOL     OW75437   8.591   5.758   5.270 -0.0123 -0.3946  0.0613
24587SOL    HW175438   8.680   5.769   5.238  0.4953 -1.8069  0.9105
24587SOL    HW275439   8.580   5.827   5.335  0.5837 -0.4372  0.2077
24588SOL     OW75440   6.701   4.093   5.862  0.3482 -0.0657  0.2003
24588SOL    HW175441   6.701   4.132   5.774  0.4281  0.6799  0.5295
24588SOL    HW275442   6.611   4.063   5.874 -0.0258  1.1318  0.4322
24589SOL     OW75443   5.854   5.783   5.048 -0.0250  0.4474  0.7970
24589SOL    HW175444   5.943   5.789   5.083  0.3864  0.9010 -0.2888
24589SOL    HW275445   5.840   5.689   5.037 -0.1432  0.3055  2.1166
24590SOL     OW75446   4.956   3.074   2.862 -0.0298  0.2590  0.0530
24590SOL    HW175447   4.964   3.151   2.919 -1.9864  0.7977 -0.3751
24590SOL    HW275448   5.027   3.084   2.798  0.8233  0.7840  1.0699
24591SOL     OW75449   4.628   6.758   6.649 -0.3359 -0.6771 -0.4576
24591SOL    HW175450   4.720   6.733   6.660  0.0624  1.4931  1.7092
24591SOL    HW275451   4.581   6.707   6.715 -0.7126 -1.8174 -1.5934
24592SOL     OW75452   6.593   3.006   8.971 -0.7860 -0.5543 -0.5432
24592SOL    HW175453   6.513   2.983   8.925 -0.3697 -2.3346 -0.4132
24592SOL    HW275454   6.649   3.046   8.904 -1.2489 -0.5546 -0.9288
24593SOL     OW75455   0.473   2.053   0.987 -0.1968  0.6047 -0.1476
24593SOL    HW175456   0.537   2.060   0.917 -0.1840 -0.9292 -0.2973
24593SOL    HW275457   0.405   1.995   0.953  0.2252 -0.8367  1.3996
24594SOL     OW75458   6.943   8.646   5.276 -0.1662 -0.4354  0.5935
24594SOL    HW175459   6.992   8.651   5.194  0.4911  1.9367  1.0829
24594SOL    HW275460   6.922   8.554   5.286 -0.1244 -0.7757 -2.1723
24595SOL     OW75461   7.830   5.571   1.042 -0.6960  0.4110 -0.5808
24595SOL    HW175462   7.752   5.521   1.019 -1.2886  1.2657 -0.4717
24595SOL    HW275463   7.804   5.662   1.033 -0.2624  0.7412  1.2097
24596SOL     OW75464   6.955   2.790   3.073 -0.5327  0.2833  0.3276
24596SOL    HW175465   6.926   2.699   3.065 -0.7637  0.0507  3.2734
24596SOL    HW275466   6.898   2.839   3.014 -1.5885 -1.2579  0.0561
24597SOL     OW75467   0.962   3.410   3.454 -0.0843  0.0273 -0.0113
24597SOL    HW175468   0.883   3.452   3.488 -0.6275 -0.5788 -0.4942
24597SOL    HW275469   0.930   3.327   3.418  0.8649 -0.4866  0.3190
24598SOL     OW75470   0.075   6.981   0.700 -0.0944 -0.2022 -0.8666
24598SOL    HW175471   0.008   6.914   0.690 -0.4945  0.2154 -1.0310
24598SOL    HW275472   0.093   6.985   0.794  1.3746 -1.9288 -1.0543
24599SOL     OW75473   4.755   9.274   8.757 -0.2872 -0.0230  0.0197
24599SOL    HW175474   4.786   9.365   8.751 -1.9191  0.5103 -0.7323
24599SOL    HW275475   4.726   9.253   8.669  1.7830 -1.9390 -0.2477
24600SOL     OW75476   0.214   7.820   2.090 -0.6735 -0.1950  0.5440
24600SOL    HW175477   0.302   7.806   2.125 -0.5717  0.9678  0.7528
24600SOL    HW275478   0.175   7.884   2.149 -0.3181  2.1929 -1.7476
24601SOL     OW75479   3.614   6.438   9.169  0.2839  0.0872  0.1575
24601SOL    HW175480   3.710   6.442   9.162  0.3488  0.5301  1.1664
24601SOL    HW275481   3.584   6.418   9.081  1.2160  1.8392 -0.5752
24602SOL     OW75482   7.290   1.965   1.694  0.0094 -0.2950 -0.1847
24602SOL    HW175483   7.253   2.018   1.765  1.3561 -0.1470  0.4256
24602SOL    HW275484   7.379   1.945   1.723 -0.0301 -1.7679 -1.0203
24603SOL     OW75485   8.461   5.447   6.863 -0.1441 -0.2888  0.7176
24603SOL    HW175486   8.431   5.535   6.887  0.7589  1.7170 -4.8199
24603SOL    HW275487   8.555   5.448   6.877  0.0419  0.0552 -0.5558
24604SOL     OW75488   4.493   3.913   9.255 -0.2041  0.6795 -0.3909
24604SOL    HW175489   4.472   3.987   9.312  0.9134  0.6908  0.0212
24604SOL    HW275490   4.410   3.865   9.247 -0.5482  1.0710  0.6684
24605SOL     OW75491   8.917   1.404   4.455 -0.3295 -0.1631 -0.4307
24605SOL    HW175492   8.854   1.372   4.521 -0.7914 -0.6545 -1.1066
24605SOL    HW275493   8.887   1.493   4.436  1.4020  1.0136  2.0099
24606SOL     OW75494   7.294   5.557   1.644  0.0258 -0.6040  0.4773
24606SOL    HW175495   7.368   5.514   1.601 -0.5396 -1.2033  0.0828
24606SOL    HW275496   7.334   5.613   1.710  0.9186  0.2393 -0.7428
24607SOL     OW75497   4.257   6.748   0.360 -0.3832 -0.0183  0.2225
24607SOL    HW175498   4.188   6.815   0.362  1.0441  1.5868 -2.1890
24607SOL    HW275499   4.296   6.756   0.273  0.5242 -3.3213  0.2547
24608SOL     OW75500   7.097   6.294   0.459  0.0731 -0.0512  0.2726
24608SOL    HW175501   7.004   6.315   0.460 -0.2738 -1.1893 -2.4752
24608SOL    HW275502   7.141   6.377   0.441 -0.6591 -0.0538 -1.6416
24609SOL     OW75503   3.800   4.251   4.141  0.5016  0.0318 -0.8141
24609SOL    HW175504   3.891   4.265   4.114 -0.0115 -0.3596 -2.8084
24609SOL    HW275505   3.806   4.196   4.219  1.9606 -0.3205 -1.1699
24610SOL     OW75506   7.660   8.970   9.046 -0.0692  0.2533  0.5056
24610SOL    HW175507   7.597   8.921   9.100  0.8521 -1.3540  0.1626
24610SOL    HW275508   7.745   8.934   9.071  0.3915 -0.4041 -1.8822
24611SOL     OW75509   8.319   4.627   2.523  0.6311  0.1394 -0.3517
24611SOL    HW175510   8.337   4.621   2.617  1.1025 -0.9290 -0.5078
24611SOL    HW275511   8.393   4.676   2.487  1.0434 -0.4683 -0.3370
24612SOL     OW75512   4.085   5.540   2.131  0.0584  0.6934  0.5390
24612SOL    HW175513   4.159   5.582   2.174  0.6555  1.9939 -1.7070
24612SOL    HW275514   4.119   5.456   2.101  0.8166  1.5153 -0.9695
24613SOL     OW75515   2.288   5.176   1.341  0.7573 -0.0005  0.2830
24613SOL    HW175516   2.349   5.242   1.373  0.5083 -0.0290  0.8311
24613SOL    HW275517   2.201   5.209   1.366  0.6327 -0.5376  0.5910
24614SOL     OW75518   4.517   6.931   3.886  0.1985 -0.0473  0.4154
24614SOL    HW175519   4.544   6.839   3.885  1.1164  0.1800  2.1845
24614SOL    HW275520   4.464   6.941   3.807  0.9229 -1.8371 -0.3240
24615SOL     OW75521   8.471   2.222   0.293 -0.1534 -0.7222  0.5988
24615SOL    HW175522   8.434   2.309   0.279 -1.4531 -1.2105  0.8849
24615SOL    HW275523   8.565   2.233   0.279 -0.4825  0.4028 -0.8528
24616SOL     OW75524   7.470   3.863   2.755 -0.2082 -0.4048 -0.4382
24616SOL    HW175525   7.376   3.843   2.763  0.3350 -3.2210 -0.6019
24616SOL    HW275526   7.486   3.864   2.661  0.0420 -0.5494 -0.3966
24617SOL     OW75527   6.184   2.727   3.284 -0.0396 -0.3426 -0.5236
24617SOL    HW175528   6.170   2.669   3.359  0.4071 -0.0586 -0.2216
24617SOL    HW275529   6.278   2.725   3.269 -0.2314 -1.2137 -1.7339
24618SOL     OW75530   3.901   4.745   7.087  0.5388 -0.5419  0.4233
24618SOL    HW175531   3.828   4.791   7.128  0.3609 -1.4797  1.1694
24618SOL    HW275532   3.877   4.741   6.994  0.6839  1.0954  0.2934
24619SOL     OW75533   9.201   0.080   7.486  0.1499  0.1921 -0.4575
24619SOL    HW175534   9.132   0.105   7.424  0.2687  1.3896 -0.1147
24619SOL    HW275535   9.253   0.015   7.439 -1.0813 -0.5583 -0.8010
24620SOL     OW75536   2.609   7.318   5.759 -0.0778 -0.1465  0.5445
24620SOL    HW175537   2.629   7.387   5.696  1.3520 -1.5703 -0.6048
24620SOL    HW275538   2.632   7.355   5.844 -0.0557  1.0655  0.0104
24621SOL     OW75539   8.978   2.260   2.253 -0.4503  0.3070  0.1502
24621SOL    HW175540   8.885   2.261   2.232 -0.4628 -0.1612  0.1596
24621SOL    HW275541   8.982   2.237   2.346 -0.3045 -0.4186 -0.0312
24622SOL     OW75542   7.370   3.887   0.706  0.4457 -0.2604 -0.5496
24622SOL    HW175543   7.383   3.794   0.686 -0.8560 -0.2350 -1.5538
24622SOL    HW275544   7.330   3.923   0.627 -0.6102  0.8058  0.4633
24623SOL     OW75545   1.772   5.391   5.455 -0.0007  0.4628 -0.5419
24623SOL    HW175546   1.789   5.467   5.400 -0.5967  1.0361  0.0528
24623SOL    HW275547   1.783   5.423   5.545  1.7729 -0.6630 -0.3344
24624SOL     OW75548   2.080   1.985   3.837 -0.1318 -0.2328  0.4109
24624SOL    HW175549   2.135   1.908   3.852  0.7108  0.4746  1.0686
24624SOL    HW275550   1.992   1.958   3.863  0.1318 -1.0175  0.4958
24625SOL     OW75551   6.294   2.175   4.359  0.0408 -0.3807 -0.1927
24625SOL    HW175552   6.205   2.142   4.348 -0.3299 -0.3590  2.3697
24625SOL    HW275553   6.282   2.266   4.387  0.8511 -0.5103  0.6004
24626SOL     OW75554   2.295   6.181   9.213 -0.2239  0.4761 -0.5561
24626SOL    HW175555   2.264   6.222   9.132 -0.5107 -1.2857 -1.3656
24626SOL    HW275556   2.388   6.205   9.218 -0.2699  0.8172 -1.2707
24627SOL     OW75557   7.798   0.904   0.288  0.4260 -0.5200 -0.5228
24627SOL    HW175558   7.768   0.991   0.314  0.6232 -0.4408 -0.5576
24627SOL    HW275559   7.747   0.844   0.342  0.7205 -0.3589 -0.0599
24628SOL     OW75560   4.808   1.548   6.393  0.2986  0.3881  0.0253
24628SOL    HW175561   4.781   1.467   6.436 -1.3806  1.3720  0.8818
24628SOL    HW275562   4.849   1.600   6.462 -0.1417  0.9521 -0.1326
24629SOL     OW75563   0.372   7.655   4.741  0.2104  0.3760  0.0275
24629SOL    HW175564   0.284   7.689   4.723  0.3768 -0.7011 -3.1406
24629SOL    HW275565   0.371   7.567   4.704  2.0996 -0.2896  1.5044
24630SOL     OW75566   0.656   5.935   4.114 -0.0106 -0.0818 -0.2725
24630SOL    HW175567   0.716   5.880   4.165  0.3206 -0.4361 -1.0349
24630SOL    HW275568   0.576   5.882   4.107  0.0536 -0.1604 -0.3958
24631SOL     OW75569   6.207   2.495   7.873 -0.1615 -0.3407  0.8477
24631SOL    HW175570   6.248   2.409   7.887 -0.9038 -0.8439  0.0336
24631SOL    HW275571   6.240   2.524   7.789  0.6006  0.4822  1.4294
24632SOL     OW75572   4.375   7.679   6.330 -0.2674  0.2996 -0.0139
24632SOL    HW175573   4.418   7.715   6.407 -0.5111  0.0257  0.2497
24632SOL    HW275574   4.401   7.738   6.259 -1.7853  1.8483  0.6692
24633SOL     OW75575   7.805   4.054   6.020 -0.0150 -0.4656 -0.3995
24633SOL    HW175576   7.843   4.140   6.035 -0.0729 -0.7671  1.7056
24633SOL    HW275577   7.721   4.057   6.066 -0.7211 -1.1177 -1.6404
24634SOL     OW75578   5.650   5.693   5.225  0.1299 -0.7560 -0.3451
24634SOL    HW175579   5.590   5.759   5.261 -0.8519 -0.9663 -1.5613
24634SOL    HW275580   5.717   5.744   5.181  1.5931 -0.4799  2.1109
24635SOL     OW75581   8.941   3.250   1.758  0.3015 -0.0998  0.4136
24635SOL    HW175582   8.912   3.176   1.811  0.4678 -1.3719 -1.2206
24635SOL    HW275583   8.871   3.315   1.767  0.1573 -0.4286  1.8681
24636SOL     OW75584   0.763   0.569   8.841 -0.0452  0.2978  0.6396
24636SOL    HW175585   0.840   0.626   8.844  0.2232 -0.1005  1.6841
24636SOL    HW275586   0.702   0.608   8.904 -1.0096  1.0325 -0.7225
24637SOL     OW75587   0.010   2.330   5.631 -0.1431  0.5038 -0.2417
24637SOL    HW175588  -0.084   2.325   5.648  0.2159  0.2692  1.7658
24637SOL    HW275589   0.023   2.416   5.591 -0.9239  1.4415  1.4745
24638SOL     OW75590   2.879   3.862   4.190  0.1998 -0.8317  0.2168
24638SOL    HW175591   2.871   3.856   4.285  0.3278  1.9747  0.4349
24638SOL    HW275592   2.815   3.927   4.164  0.8251 -0.8806 -1.5249
24639SOL     OW75593   8.661   7.525   3.111  0.5104 -0.1142 -0.0199
24639SOL    HW175594   8.589   7.463   3.100 -0.9378  1.4896  0.2076
24639SOL    HW275595   8.673   7.532   3.206  1.2388 -0.6674 -0.0649
24640SOL     OW75596   5.303   6.148   5.715  0.1107 -0.4923  0.1661
24640SOL    HW175597   5.209   6.154   5.733  0.4028 -1.2010  2.0353
24640SOL    HW275598   5.313   6.064   5.669 -0.1421 -0.5197  0.1608
24641SOL     OW75599   2.887   3.632   2.744  0.3298  1.0061  0.1263
24641SOL    HW175600   2.895   3.541   2.713 -1.7204  1.0951 -0.7696
24641SOL    HW275601   2.914   3.629   2.836 -4.6827 -1.5486  1.6563
24642SOL     OW75602   7.974   3.828   7.797  0.0765  0.5420  0.4481
24642SOL    HW175603   7.923   3.835   7.878  0.5327  1.4499  0.6694
24642SOL    HW275604   8.030   3.906   7.798  0.3511  0.3616 -0.5581
24643SOL     OW75605   6.256   3.718   2.439  0.2806  0.3061 -0.2966
24643SOL    HW175606   6.239   3.642   2.383  0.2611  1.7508 -2.2965
24643SOL    HW275607   6.190   3.712   2.508  0.4819 -1.6587 -0.2303
24644SOL     OW75608   0.914   3.593   8.223  0.7188  0.2918  0.4539
24644SOL    HW175609   0.926   3.655   8.295 -1.6446  0.4114  0.7984
24644SOL    HW275610   0.979   3.619   8.158  0.5928  2.3757  1.1108
24645SOL     OW75611   1.594   9.022   1.221  0.2836  0.5188  0.3168
24645SOL    HW175612   1.587   9.027   1.126  0.3853 -0.3093  0.2630
24645SOL    HW275613   1.637   8.939   1.238 -1.9906 -0.5169  1.1791
24646SOL     OW75614   7.146   7.983   2.655  0.4246  0.4057  0.1408
24646SOL    HW175615   7.139   7.958   2.563  0.7302  0.6357  0.0538
24646SOL    HW275616   7.229   8.030   2.661  0.6261  0.0015  0.6209
24647SOL     OW75617   7.044   5.595   7.713  0.4181  0.5552 -0.0820
24647SOL    HW175618   7.130   5.637   7.714  1.2036 -0.9479 -2.1984
24647SOL    HW275619   7.054   5.520   7.771  0.4607  0.5436 -0.1044
24648SOL     OW75620   0.974   3.407   5.630 -0.2994  0.1131  0.5608
24648SOL    HW175621   0.901   3.461   5.600  0.9121  0.0913 -2.6071
24648SOL    HW275622   0.945   3.317   5.617  0.4431  0.1071 -1.2111
24649SOL     OW75623   6.398   8.979   1.800 -0.6453  0.2172 -0.0161
24649SOL    HW175624   6.332   8.983   1.870 -2.1694  0.7229 -1.4590
24649SOL    HW275625   6.412   9.071   1.776  0.1543  0.0693 -0.1155
24650SOL     OW75626   0.943   3.754   7.670  0.1174  0.2799  0.5195
24650SOL    HW175627   0.866   3.728   7.620  1.6719 -1.0228 -1.2276
24650SOL    HW275628   0.950   3.849   7.655 -1.3821  0.5025  1.0780
24651SOL     OW75629   5.799   7.112   5.594  0.1648  0.2095 -0.5920
24651SOL    HW175630   5.859   7.046   5.560  0.3552 -0.5298  1.1043
24651SOL    HW275631   5.849   7.193   5.592  0.4828  0.0038 -1.1772
24652SOL     OW75632   9.257   2.923   3.727 -0.0210  0.5901  0.5172
24652SOL    HW175633   9.212   2.912   3.644  0.1352 -0.4160  0.5620
24652SOL    HW275634   9.345   2.952   3.704  0.6520 -1.6080  0.2302
24653SOL     OW75635   1.626   1.001   5.671  0.1721 -0.1619 -0.2526
24653SOL    HW175636   1.716   0.994   5.639  0.2937 -1.5262  0.3765
24653SOL    HW275637   1.590   0.912   5.664 -1.9113  0.7853 -2.7070
24654SOL     OW75638   6.889   5.476   4.151  0.3231 -0.1633 -0.2296
24654SOL    HW175639   6.857   5.409   4.211  0.4297  0.5308  0.6115
24654SOL    HW275640   6.832   5.552   4.167  1.4817  0.6192  0.2955
24655SOL     OW75641   4.054   1.101   8.376  0.0539  0.1495 -0.1186
24655SOL    HW175642   4.013   1.043   8.440  2.4764 -0.5170  0.8577
24655SOL    HW275643   4.148   1.091   8.391  0.5885  1.7320 -2.2437
24656SOL     OW75644   4.930   5.170   4.993 -0.3960 -0.8203  0.1612
24656SOL    HW175645   4.996   5.217   4.941 -2.4887  1.1558 -0.7983
24656SOL    HW275646   4.967   5.083   5.004  1.4862 -0.3788 -2.0627
24657SOL     OW75647   1.130   6.290   7.619 -0.6317 -0.2324  0.4138
24657SOL    HW175648   1.082   6.347   7.558 -1.5517 -0.7844  0.6101
24657SOL    HW275649   1.222   6.309   7.602 -0.9350  1.6186  0.7747
24658SOL     OW75650   6.344   3.534   0.465  0.4296  0.3054 -0.5239
24658SOL    HW175651   6.254   3.533   0.500  0.3367 -0.7404 -0.7681
24658SOL    HW275652   6.359   3.443   0.437  1.6883  0.4041 -0.1745
24659SOL     OW75653   5.301   4.687   8.767 -0.0122  0.4003 -0.3639
24659SOL    HW175654   5.366   4.726   8.825 -0.7663 -1.0687  1.5348
24659SOL    HW275655   5.273   4.607   8.812 -1.9197  0.1412 -1.9168
24660SOL     OW75656   4.501   3.593   1.638  0.0027 -0.2996 -0.0385
24660SOL    HW175657   4.568   3.525   1.642  0.7686  0.4765  0.2906
24660SOL    HW275658   4.549   3.674   1.621 -0.8552  0.2515  0.1375
24661SOL     OW75659   7.446   1.725   6.526 -0.0305 -0.5431 -0.2473
24661SOL    HW175660   7.517   1.732   6.462  0.3709 -1.1204  0.1298
24661SOL    HW275661   7.392   1.653   6.495 -0.9635  0.4746 -1.0220
24662SOL     OW75662   8.660   6.262   2.221 -0.4498  0.0055  0.2902
24662SOL    HW175663   8.716   6.235   2.148 -0.8330 -0.6302  0.2332
24662SOL    HW275664   8.646   6.356   2.207  0.2411  0.0838  0.0642
24663SOL     OW75665   5.181   7.815   7.836 -0.2737  0.3617 -0.1461
24663SOL    HW175666   5.198   7.846   7.747 -0.1813  0.2675 -0.1624
24663SOL    HW275667   5.124   7.739   7.825  1.5659 -1.0437 -0.2821
24664SOL     OW75668   5.168   8.616   5.422  0.1757  0.1202  0.0406
24664SOL    HW175669   5.081   8.653   5.436  0.6508  0.8118  1.2244
24664SOL    HW275670   5.228   8.683   5.456  1.1726 -0.3164 -0.8384
24665SOL     OW75671   3.438   1.791   1.674 -0.2184  0.2036  0.6604
24665SOL    HW175672   3.440   1.706   1.630 -0.1458  0.5800 -0.0795
24665SOL    HW275673   3.522   1.797   1.718  0.6914  0.8407 -1.1286
24666SOL     OW75674   3.243   5.811   2.575  0.0746  0.0216  0.2375
24666SOL    HW175675   3.183   5.751   2.619 -0.4047 -0.1446 -0.6295
24666SOL    HW275676   3.252   5.885   2.636 -0.3370 -0.3460  0.7481
24667SOL     OW75677   9.014   6.701   1.072  0.1296  0.2473 -0.0500
24667SOL    HW175678   8.923   6.673   1.059  0.5397 -0.2357 -1.9012
24667SOL    HW275679   9.022   6.710   1.167 -2.0673  1.0015  0.1114
24668SOL     OW75680   1.860   6.848   7.570 -0.0167  0.1198  0.3839
24668SOL    HW175681   1.797   6.852   7.498  0.1368  2.1848  0.3293
24668SOL    HW275682   1.890   6.938   7.580  0.2554 -0.2198  2.7884
24669SOL     OW75683   3.120   7.431   8.994 -0.1189 -0.6374 -0.5166
24669SOL    HW175684   3.213   7.438   8.976  0.0791 -0.5196  0.4814
24669SOL    HW275685   3.095   7.518   9.025 -0.2288 -1.0546  0.6196
24670SOL     OW75686   0.915   5.549   3.036  0.3370 -0.1073 -0.3867
24670SOL    HW175687   0.871   5.514   3.114  1.1828 -0.0119  0.1296
24670SOL    HW275688   0.887   5.490   2.965  0.8354 -1.1379  0.2731
24671SOL     OW75689   8.943   4.036   5.436  0.2609  0.4555  0.3425
24671SOL    HW175690   8.907   3.949   5.419 -1.0196  1.0699 -0.1125
24671SOL    HW275691   8.868   4.095   5.429  0.9539  1.4963  1.5438
24672SOL     OW75692   2.188   2.354   2.462 -0.5688 -0.1949  0.1043
24672SOL    HW175693   2.110   2.347   2.407 -0.9563  1.0627  0.4702
24672SOL    HW275694   2.241   2.422   2.420 -0.7200  0.5448  1.0756
24673SOL     OW75695   2.815   4.263   5.147  0.5679  0.1685 -0.3042
24673SOL    HW175696   2.778   4.186   5.190 -0.7993  0.6733 -0.5236
24673SOL    HW275697   2.763   4.336   5.180  2.1115  1.0501  0.1990
24674SOL     OW75698   2.475   6.344   8.609 -0.0440  0.5962 -0.2824
24674SOL    HW175699   2.568   6.326   8.626 -0.7908 -1.7428  1.7467
24674SOL    HW275700   2.450   6.406   8.677 -0.3834 -0.1910  0.3208
24675SOL     OW75701   6.492   4.768   4.138  0.1350 -0.5372  0.1424
24675SOL    HW175702   6.453   4.727   4.215 -0.8745 -0.1880 -0.1784
24675SOL    HW275703   6.475   4.861   4.148 -4.2386 -0.8607 -2.7875
24676SOL     OW75704   6.325   1.619   6.913 -0.2857 -0.2357  0.2072
24676SOL    HW175705   6.417   1.615   6.940  0.7556  3.2302 -2.4509
24676SOL    HW275706   6.284   1.675   6.978 -0.1596 -0.4506  0.4751
24677SOL     OW75707   8.875   3.840   4.312 -0.6343 -0.1129 -0.5867
24677SOL    HW175708   8.896   3.747   4.313 -1.1103 -0.2243  0.7395
24677SOL    HW275709   8.928   3.877   4.242  0.1275 -1.2496 -0.6092
24678SOL     OW75710   8.769   6.757   7.238  0.7852 -0.7312  0.2466
24678SOL    HW175711   8.854   6.735   7.201 -0.1711 -2.8117 -0.8097
24678SOL    HW275712   8.719   6.792   7.164  0.2830 -0.7665  0.5674
24679SOL     OW75713   5.900   6.773   9.085  0.1735  0.0755  0.1278
24679SOL    HW175714   5.893   6.860   9.046  1.0413  0.6433  1.2203
24679SOL    HW275715   5.887   6.787   9.179 -0.1422 -1.0423  0.2688
24680SOL     OW75716   6.776   4.733   4.080  0.0535 -0.2363  0.3000
24680SOL    HW175717   6.795   4.742   4.174 -0.9312  0.3581  0.4567
24680SOL    HW275718   6.681   4.737   4.075  0.1540  1.6814 -0.9086
24681SOL     OW75719   5.772   2.208   9.083  0.5160  0.1494 -0.7330
24681SOL    HW175720   5.678   2.212   9.096  0.3546 -1.1522 -1.4819
24681SOL    HW275721   5.787   2.256   9.001  0.5977  0.9577 -0.2582
24682SOL     OW75722   0.668   0.111   2.187 -0.0291 -0.2014  1.1390
24682SOL    HW175723   0.586   0.114   2.136  1.0929 -0.6043 -0.7532
24682SOL    HW275724   0.661   0.184   2.249 -0.0957  2.3158 -1.7175
24683SOL     OW75725   6.388   0.520   5.732 -0.1676  0.1879 -0.4836
24683SOL    HW175726   6.328   0.557   5.668 -2.8993 -0.8596  1.3464
24683SOL    HW275727   6.406   0.592   5.792 -0.8967  0.1265 -0.1725
24684SOL     OW75728   2.905   5.593   3.559  0.3265 -0.0407  0.2440
24684SOL    HW175729   2.912   5.649   3.481 -2.0770 -2.4300 -1.7853
24684SOL    HW275730   2.981   5.616   3.612  2.2205  1.4141 -2.9794
24685SOL     OW75731   5.777   5.285   0.258 -0.7043 -0.2190  0.3389
24685SOL    HW175732   5.711   5.221   0.234 -0.6337 -0.4598  0.7802
24685SOL    HW275733   5.753   5.312   0.347 -0.9936  0.6985 -0.0166
24686SOL     OW75734   5.209   2.208   7.620  0.5374  0.1272 -0.2166
24686SOL    HW175735   5.153   2.278   7.655  1.6142  0.4314  0.9108
24686SOL    HW275736   5.172   2.190   7.534 -1.8268 -0.2380  0.8166
24687SOL     OW75737   1.021   1.319   7.438  0.0060  0.2287  0.7677
24687SOL    HW175738   0.931   1.286   7.437 -0.1510  0.6454  1.3151
24687SOL    HW275739   1.074   1.244   7.463 -0.2136  0.0402  0.6672
24688SOL     OW75740   9.249   2.381   8.254  0.0648 -0.6861  0.1673
24688SOL    HW175741   9.285   2.318   8.316 -1.5758 -1.4717  0.3665
24688SOL    HW275742   9.242   2.333   8.172 -0.3212 -0.4897  0.0831
24689SOL     OW75743   6.921   2.024   4.945  0.3846  0.1011  0.1758
24689SOL    HW175744   6.886   2.077   4.873  1.9073  0.3423 -0.3930
24689SOL    HW275745   6.897   1.934   4.922 -0.4948  0.3270  0.1681
24690SOL     OW75746   3.079   0.764   6.337  0.1398  0.0433  0.2275
24690SOL    HW175747   3.105   0.693   6.279  2.1760 -0.4487  1.6554
24690SOL    HW275748   2.984   0.759   6.340  0.1764 -1.8044 -0.7252
24691SOL     OW75749   4.486   8.679   1.515 -0.0210  0.3364 -0.0947
24691SOL    HW175750   4.507   8.765   1.478 -1.2317  0.5501 -0.2940
24691SOL    HW275751   4.545   8.619   1.470  1.4612  1.1784  0.6820
24692SOL     OW75752   8.857   2.043   4.588 -0.0130  0.8033 -0.3231
24692SOL    HW175753   8.820   1.958   4.564  2.7969  0.0611 -2.3037
24692SOL    HW275754   8.793   2.107   4.559 -0.8383 -0.5179 -1.4447
24693SOL     OW75755   0.285   1.267   4.828  0.4251 -0.0503 -0.4950
24693SOL    HW175756   0.214   1.203   4.836  0.8577 -0.5242 -0.4116
24693SOL    HW275757   0.363   1.214   4.813  0.5939  0.5127 -1.6790
24694SOL     OW75758   4.282   8.134   1.402 -0.1648 -0.0430  1.3761
24694SOL    HW175759   4.374   8.126   1.426 -0.2401 -0.2409  1.6065
24694SOL    HW275760   4.274   8.223   1.367  0.2581 -0.2784  0.6735
24695SOL     OW75761   3.038   1.571   9.081 -0.2520  0.5349 -0.1219
24695SOL    HW175762   3.005   1.491   9.122 -2.0268  0.9634 -0.6736
24695SOL    HW275763   2.980   1.586   9.007  0.6165  1.8510 -0.5579
24696SOL     OW75764   9.288   5.576   5.777  0.2212  0.1686 -0.7176
24696SOL    HW175765   9.337   5.543   5.852 -0.6717 -0.5298 -0.4381
24696SOL    HW275766   9.247   5.657   5.809 -2.0449 -1.3431  0.2671
24697SOL     OW75767   1.210   5.971   1.772  0.0438 -0.1694  0.2043
24697SOL    HW175768   1.201   5.919   1.852 -2.1735 -0.2506 -0.0546
24697SOL    HW275769   1.160   6.051   1.790  1.9334  1.1030 -0.0647
24698SOL     OW75770   8.053   1.314   2.135 -0.5273  0.0987 -0.2402
24698SOL    HW175771   8.062   1.230   2.179 -1.3883 -0.3515 -0.8923
24698SOL    HW275772   8.141   1.350   2.131 -0.0082 -1.2417 -0.8735
24699SOL     OW75773   2.734   3.172   7.835  0.9545 -0.5239 -0.6590
24699SOL    HW175774   2.710   3.229   7.908 -1.5752  0.8026 -2.4639
24699SOL    HW275775   2.820   3.137   7.860  0.6020  0.6614  2.4702
24700SOL     OW75776   5.200   4.516   5.475 -0.1740  0.1361 -0.6144
24700SOL    HW175777   5.270   4.531   5.539  0.6565  0.9410 -1.6887
24700SOL    HW275778   5.202   4.422   5.459  0.2652  0.0718 -0.1933
24701SOL     OW75779   4.365   1.176   6.047 -0.1666 -0.3805 -0.9892
24701SOL    HW175780   4.385   1.146   6.135 -0.1676  1.4518 -0.3324
24701SOL    HW275781   4.270   1.190   6.047 -0.3240 -1.4060 -1.6217
24702SOL     OW75782   1.224   4.884   5.209  0.4664 -0.0668  0.3163
24702SOL    HW175783   1.188   4.897   5.297  0.2367 -0.1604  0.2362
24702SOL    HW275784   1.176   4.945   5.154 -0.4231 -1.0487 -0.0087
24703SOL     OW75785   7.299   7.005   2.324  0.1389 -0.3874 -0.1532
24703SOL    HW175786   7.329   6.973   2.409 -0.5954 -1.7517 -0.3921
24703SOL    HW275787   7.319   7.099   2.325  0.7298 -0.5157  1.2583
24704SOL     OW75788   2.936   2.803   5.959  0.3815  0.2501  0.3974
24704SOL    HW175789   2.979   2.871   6.011 -1.2116  1.3280  0.3661
24704SOL    HW275790   2.886   2.753   6.023  1.6388 -0.9731  0.4329
24705SOL     OW75791   1.619   1.719   4.268 -0.5107 -0.1186 -0.0371
24705SOL    HW175792   1.695   1.662   4.277 -1.6667 -2.1828 -2.8612
24705SOL    HW275793   1.547   1.672   4.310 -0.7934  0.7732  0.5178
24706SOL     OW75794   0.732   7.529   3.601  0.4732 -0.0868 -0.0456
24706SOL    HW175795   0.696   7.486   3.678 -1.1048  0.4458 -0.4644
24706SOL    HW275796   0.727   7.623   3.621  0.6357  0.0290 -0.5311
24707SOL     OW75797   5.762   3.653   1.882 -0.3277 -0.1767  0.1297
24707SOL    HW175798   5.717   3.727   1.841  0.2334 -0.8197 -1.6885
24707SOL    HW275799   5.854   3.677   1.882 -0.0233 -1.2524 -1.3499
24708SOL     OW75800   7.163   8.475   1.230  0.1468  0.0741 -0.3508
24708SOL    HW175801   7.111   8.397   1.210  0.6535 -0.1903 -0.6361
24708SOL    HW275802   7.098   8.544   1.243 -0.2162  0.3751 -3.4424
24709SOL     OW75803   4.928   4.559   4.680 -0.8119  0.2101 -0.4149
24709SOL    HW175804   4.982   4.529   4.606 -1.8871 -1.1360 -0.6841
24709SOL    HW275805   4.875   4.482   4.702  0.6355  0.0905  2.8118
24710SOL     OW75806   6.615   2.462   4.087  0.2538  0.5697  0.0863
24710SOL    HW175807   6.525   2.445   4.059  0.1973  0.7942  0.1326
24710SOL    HW275808   6.644   2.536   4.033  0.5889  0.1690 -0.2947
24711SOL     OW75809   5.205   7.641   6.786 -0.3346  0.4148 -0.4614
24711SOL    HW175810   5.204   7.580   6.859 -0.7995  0.8880 -0.0648
24711SOL    HW275811   5.210   7.727   6.827 -1.8716  0.7557 -0.9327
24712SOL     OW75812   1.980   6.138   1.457 -0.6224 -0.6063 -0.2592
24712SOL    HW175813   1.938   6.111   1.376 -0.7661 -1.1526 -0.0057
24712SOL    HW275814   2.067   6.099   1.454 -1.0213 -1.5671  0.3547
24713SOL     OW75815   7.480   1.496   1.010 -0.1972 -0.1017  0.2188
24713SOL    HW175816   7.483   1.589   1.031 -1.3619  0.1328 -0.6137
24713SOL    HW275817   7.542   1.456   1.071  3.2370  1.6651 -2.0064
24714SOL     OW75818   8.333   4.951   6.287  1.0867  0.1584 -0.1415
24714SOL    HW175819   8.325   4.945   6.382  0.2001  0.6403 -0.1779
24714SOL    HW275820   8.368   4.866   6.260  0.4826 -0.3079  0.5227
24715SOL     OW75821   5.005   8.550   1.206 -0.0612 -0.0545  0.6222
24715SOL    HW175822   5.077   8.522   1.149 -1.3227 -1.1397 -0.4735
24715SOL    HW275823   4.976   8.470   1.250 -1.8853 -0.0210 -0.4543
24716SOL     OW75824   4.350   3.479   1.236  0.8452  0.0531  0.5188
24716SOL    HW175825   4.255   3.483   1.241  0.6970 -1.6958 -0.4929
24716SOL    HW275826   4.373   3.397   1.280  1.8263  0.0322 -0.0238
24717SOL     OW75827   2.023   1.316   4.167 -0.5808 -0.3903 -0.0728
24717SOL    HW175828   2.027   1.221   4.176 -1.8567 -0.4005  0.5570
24717SOL    HW275829   2.110   1.342   4.135 -0.0464 -1.6964  0.3187
24718SOL     OW75830   4.287   6.080   4.112 -0.3455 -0.0636 -0.5168
24718SOL    HW175831   4.324   6.168   4.123  0.3139 -0.5960  1.9059
24718SOL    HW275832   4.303   6.058   4.020  0.4505  1.9141 -0.8740
24719SOL     OW75833   3.255   5.444   4.462 -0.0158  0.5298  0.6036
24719SOL    HW175834   3.329   5.477   4.411 -0.7739  1.8957  0.3592
24719SOL    HW275835   3.178   5.489   4.426 -0.8400 -0.1171  1.5064
24720SOL     OW75836   0.850   6.784   4.583  0.4409  0.1141  0.2820
24720SOL    HW175837   0.765   6.823   4.563  0.5703 -0.1777 -0.8540
24720SOL    HW275838   0.915   6.846   4.550  0.6587 -0.2379  0.0379
24721SOL     OW75839   0.369   8.727   7.836  0.1104 -0.5422 -0.3088
24721SOL    HW175840   0.361   8.633   7.848  1.7028 -0.7857 -1.0478
24721SOL    HW275841   0.458   8.740   7.804 -0.1252  1.2031 -0.3141
24722SOL     OW75842   8.246   3.452   0.592  0.4699 -0.4358 -0.2340
24722SOL    HW175843   8.328   3.403   0.586 -0.4465 -2.2571  1.6737
24722SOL    HW275844   8.265   3.522   0.655 -0.1064 -2.2620  1.9938
24723SOL     OW75845   3.251   3.551   7.908  0.5963  0.1106  0.6773
24723SOL    HW175846   3.210   3.637   7.915  0.5017 -0.0009  1.5707
24723SOL    HW275847   3.273   3.528   7.998  2.3475  0.0336  0.2507
24724SOL     OW75848   2.508   0.082   8.596 -0.3439  0.5306  0.0534
24724SOL    HW175849   2.429   0.119   8.637 -0.6768 -0.3317  0.1990
24724SOL    HW275850   2.478   0.053   8.510 -0.4125 -0.6460  0.4626
24725SOL     OW75851   8.488   8.454   5.832 -0.6075 -0.1955 -0.4511
24725SOL    HW175852   8.421   8.433   5.767 -0.0115  1.3767 -1.5849
24725SOL    HW275853   8.537   8.526   5.794  0.3137  0.1630  1.3686
24726SOL     OW75854   3.904   2.311   1.614 -0.4090 -0.5752 -0.4900
24726SOL    HW175855   3.838   2.374   1.642 -0.8196 -1.2623  0.1205
24726SOL    HW275856   3.970   2.313   1.683 -0.7874 -1.3396 -0.1006
24727SOL     OW75857   7.062   3.144   8.165  0.2263  0.4586 -0.1238
24727SOL    HW175858   7.105   3.108   8.242  0.5528 -0.7780 -0.8683
24727SOL    HW275859   7.032   3.067   8.116  0.6806  1.1949 -1.6017
24728SOL     OW75860   8.871   0.330   6.799  0.0003  0.0867  0.3411
24728SOL    HW175861   8.950   0.383   6.790 -0.9206  1.5451  0.6014
24728SOL    HW275862   8.804   0.379   6.752 -0.9516 -0.6834  0.8743
24729SOL     OW75863   3.781   1.282   4.230 -0.3795 -0.3138  0.3812
24729SOL    HW175864   3.759   1.373   4.210 -0.2246 -0.5917 -1.1367
24729SOL    HW275865   3.720   1.231   4.176  0.2177 -1.0981  0.4433
24730SOL     OW75866   0.236   1.252   4.381  0.3833  0.5524 -0.2595
24730SOL    HW175867   0.181   1.174   4.376 -0.1214  0.9103 -0.4612
24730SOL    HW275868   0.191   1.309   4.443  1.6054  0.0356  1.1315
24731SOL     OW75869   8.173   0.864   6.857  0.1490 -0.3125 -0.0241
24731SOL    HW175870   8.216   0.793   6.812  1.0720  0.4513 -0.3573
24731SOL    HW275871   8.185   0.845   6.950 -0.2831 -0.9890 -0.1045
24732SOL     OW75872   6.415   1.980   7.403  0.5831  0.1131  0.6987
24732SOL    HW175873   6.330   1.956   7.441  1.6147 -1.5383  1.9908
24732SOL    HW275874   6.406   1.956   7.310 -0.9927  1.6991  0.3922
24733SOL     OW75875   4.086   1.136   6.008 -0.5480  0.2854  0.0510
24733SOL    HW175876   4.072   1.051   5.966 -0.7427 -0.6777  2.0524
24733SOL    HW275877   4.013   1.189   5.978 -1.0543 -0.5959 -0.2968
24734SOL     OW75878   2.290   0.599   8.549  0.0164  0.4212  0.0411
24734SOL    HW175879   2.351   0.555   8.489 -0.1708  0.1278  0.0624
24734SOL    HW275880   2.273   0.534   8.617 -1.5036 -0.0686 -0.7706
24735SOL     OW75881   4.027   3.556   9.155 -0.4551  0.2765  0.8546
24735SOL    HW175882   4.013   3.650   9.163 -0.2106  0.2519  1.6647
24735SOL    HW275883   3.955   3.525   9.100 -1.6715  0.6426  2.2055
24736SOL     OW75884   6.086   5.147   1.296  0.5076  0.0409  0.4634
24736SOL    HW175885   6.027   5.187   1.360  0.9295  1.0932  0.2069
24736SOL    HW275886   6.174   5.171   1.325  0.7649 -0.6943  0.2963
24737SOL     OW75887   4.969   0.128   2.049  0.3100 -0.0111  0.2200
24737SOL    HW175888   4.892   0.072   2.061 -1.0576  1.5786 -0.8142
24737SOL    HW275889   4.941   0.192   1.983  2.9881 -0.2284 -1.1920
24738SOL     OW75890   7.092   4.936   0.270 -0.3191  0.9325 -0.1644
24738SOL    HW175891   7.076   4.891   0.353  1.6618 -0.6548 -0.6165
24738SOL    HW275892   7.122   5.023   0.296  0.7880  0.2747  0.8174
24739SOL     OW75893   7.457   6.771   7.501  0.1238 -0.3681 -0.5875
24739SOL    HW175894   7.409   6.743   7.578 -1.4400 -0.8847 -1.7174
24739SOL    HW275895   7.548   6.778   7.530 -0.4106 -0.7401  1.2318
24740SOL     OW75896   4.822   6.336   8.198 -0.2966  0.1707 -0.2764
24740SOL    HW175897   4.752   6.395   8.227 -1.3262 -0.7920 -0.7924
24740SOL    HW275898   4.820   6.341   8.103  1.5259  1.5012 -0.2873
24741SOL     OW75899   1.523   3.192   8.398 -0.2325  0.0425 -0.4782
24741SOL    HW175900   1.479   3.142   8.329 -1.0719 -0.9899  0.7891
24741SOL    HW275901   1.464   3.188   8.473 -0.4072  3.0986 -0.3799
24742SOL     OW75902   9.101   4.262   4.211  0.0876 -0.6269 -0.2214
24742SOL    HW175903   9.119   4.191   4.273 -0.2044  0.2699  0.9027
24742SOL    HW275904   9.056   4.328   4.263  0.1607  0.2946 -1.3188
24743SOL     OW75905   8.262   6.296   3.880  0.3668 -0.0682  0.1319
24743SOL    HW175906   8.230   6.303   3.791  1.2023 -0.1525 -0.1794
24743SOL    HW275907   8.218   6.366   3.928  1.6510  1.4683 -0.8635
24744SOL     OW75908   5.536   6.735   9.163  0.3704  0.4168 -0.0526
24744SOL    HW175909   5.440   6.742   9.165  0.4029  0.6047  1.4106
24744SOL    HW275910   5.565   6.821   9.131  0.0918  0.7049  0.4639
24745SOL     OW75911   6.517   1.313   5.649  0.4911 -1.0020 -0.3494
24745SOL    HW175912   6.575   1.349   5.716 -2.3987  1.3953  0.9623
24745SOL    HW275913   6.456   1.257   5.698 -0.3352 -0.8968 -1.2483
24746SOL     OW75914   4.306   9.033   4.201  0.7144 -0.4457 -0.0597
24746SOL    HW175915   4.323   8.958   4.259  2.5828 -0.8790 -1.1309
24746SOL    HW275916   4.392   9.059   4.170  0.2790  3.2494  1.5991
24747SOL     OW75917   0.758   7.750   0.196 -0.2590 -0.2692 -0.0862
24747SOL    HW175918   0.825   7.811   0.225  0.2280  0.2174 -2.1397
24747SOL    HW275919   0.712   7.724   0.276 -0.8430  3.2270  0.7636
24748SOL     OW75920   6.702   5.513   8.695 -0.5870 -0.6921  0.3661
24748SOL    HW175921   6.752   5.587   8.662 -0.6022 -0.1535  1.5083
24748SOL    HW275922   6.619   5.552   8.725 -0.3108 -1.0363  1.6255
24749SOL     OW75923   2.177   5.569   5.326  0.0476  0.0781 -0.1190
24749SOL    HW175924   2.182   5.662   5.302  0.3559  0.1250  0.1268
24749SOL    HW275925   2.268   5.542   5.337 -0.1101  0.3131  1.9644
24750SOL     OW75926   5.145   1.325   8.693 -0.7664  0.3675 -0.4284
24750SOL    HW175927   5.065   1.372   8.670 -0.9250  0.2044 -0.2208
24750SOL    HW275928   5.114   1.245   8.737 -0.5380 -0.8053 -2.3707
24751SOL     OW75929   9.135   3.881   2.450  0.4617  0.2399 -0.5133
24751SOL    HW175930   9.054   3.929   2.436 -0.1719 -0.5273  0.4580
24751SOL    HW275931   9.191   3.941   2.498 -0.3560 -0.0196  0.7675
24752SOL     OW75932   8.665   1.376   5.959 -0.3861 -0.2040 -0.5021
24752SOL    HW175933   8.604   1.447   5.974 -0.8456 -0.7175  0.0705
24752SOL    HW275934   8.743   1.418   5.922 -1.2295  0.3983 -1.5967
24753SOL     OW75935   8.231   3.363   1.920  0.3376 -0.4301 -0.1472
24753SOL    HW175936   8.235   3.440   1.976 -1.8288 -0.1365 -0.3576
24753SOL    HW275937   8.229   3.289   1.980 -0.5218 -0.1772  0.1429
24754SOL     OW75938   0.460   4.390   2.589 -0.6270  0.6409 -0.0002
24754SOL    HW175939   0.416   4.467   2.625 -1.3830 -0.1494  0.7939
24754SOL    HW275940   0.465   4.406   2.495 -0.2695  1.9090  0.2210
24755SOL     OW75941   1.810   3.960   3.028 -0.2153 -0.2518  0.6921
24755SOL    HW175942   1.755   3.891   2.992  0.3788 -0.0816 -0.5832
24755SOL    HW275943   1.765   4.041   3.005 -1.0312 -0.2031  2.3898
24756SOL     OW75944   7.606   2.992   5.849  0.2800 -0.3742 -0.1325
24756SOL    HW175945   7.596   3.037   5.765 -0.1525 -1.2807 -0.5692
24756SOL    HW275946   7.693   2.953   5.845  0.1965 -0.5530 -0.2316
24757SOL     OW75947   0.633   9.266   4.409 -0.2895  0.7280 -0.0425
24757SOL    HW175948   0.606   9.174   4.415 -1.0302  0.9276 -0.3461
24757SOL    HW275949   0.698   9.267   4.340 -1.4500  0.7030 -1.1506
24758SOL     OW75950   7.243   9.163   4.232  0.5822 -0.1178  0.2965
24758SOL    HW175951   7.176   9.177   4.165  0.2804 -0.7937  0.4481
24758SOL    HW275952   7.326   9.170   4.185  0.3822 -0.1653 -0.0702
24759SOL     OW75953   4.301   9.159   2.616 -0.3709 -0.2599  0.8956
24759SOL    HW175954   4.246   9.235   2.637 -0.4092 -0.2927  0.9155
24759SOL    HW275955   4.314   9.115   2.700  0.8566  0.5296  1.1315
24760SOL     OW75956   7.616   2.297   5.698  0.4876  0.6412 -0.3562
24760SOL    HW175957   7.544   2.276   5.757  0.0041  0.9179 -0.8512
24760SOL    HW275958   7.687   2.239   5.726 -0.2107 -0.2771 -0.4598
24761SOL     OW75959   5.012   7.527   0.920  0.6636  0.6202 -0.4436
24761SOL    HW175960   5.104   7.554   0.932  1.1043 -0.1602 -1.9718
24761SOL    HW275961   4.976   7.592   0.859 -0.6289  2.6117  2.3464
24762SOL     OW75962   0.858   8.989   5.068 -0.7208  0.1520 -0.0439
24762SOL    HW175963   0.881   8.960   5.156  1.8419 -3.3084 -1.7633
24762SOL    HW275964   0.914   9.065   5.052 -0.4712  0.1802  0.9310
24763SOL     OW75965   2.136   5.293   5.624  0.7116  0.4708 -0.0821
24763SOL    HW175966   2.174   5.260   5.706  2.0161 -0.4773 -1.0540
24763SOL    HW275967   2.064   5.232   5.606  0.6887  0.4313  0.1365
24764SOL     OW75968   7.009   1.099   2.718  0.0051  0.3784  0.4355
24764SOL    HW175969   7.036   1.019   2.762  0.9426  0.2047 -0.4427
24764SOL    HW275970   6.921   1.081   2.687 -0.0504 -0.0637  0.8415
24765SOL     OW75971   0.620   5.028   6.966 -0.9431 -0.1073 -0.7074
24765SOL    HW175972   0.629   4.944   6.922 -1.7590 -0.7601  0.3717
24765SOL    HW275973   0.702   5.039   7.015 -1.0278 -0.4855 -0.4828
24766SOL     OW75974   0.439   6.373   9.017 -0.0078  0.2919 -0.1258
24766SOL    HW175975   0.414   6.296   9.067 -1.3446 -0.3480 -1.7236
24766SOL    HW275976   0.522   6.401   9.056  0.2248 -1.6257  0.8240
24767SOL     OW75977   7.045   5.987   5.012  0.3735  0.3981 -0.1968
24767SOL    HW175978   7.082   5.909   4.972 -1.2884 -0.3555 -0.3120
24767SOL    HW275979   6.995   6.029   4.942 -0.5323  0.3887  0.4283
24768SOL     OW75980   4.249   4.046   0.155  0.7599 -0.0657  0.8125
24768SOL    HW175981   4.242   4.048   0.251  0.2793 -2.3732  0.8505
24768SOL    HW275982   4.265   3.954   0.134  1.2535  0.4795 -1.3156
24769SOL     OW75983   5.317   0.199   0.146 -0.3475 -0.5864  0.1227
24769SOL    HW175984   5.236   0.149   0.147  1.2151 -3.3069 -1.7371
24769SOL    HW275985   5.295   0.280   0.099 -1.3055 -2.6509 -3.1507
24770SOL     OW75986   3.564   9.202   4.007  0.1526 -0.3944  0.4403
24770SOL    HW175987   3.562   9.214   4.102  0.4196 -0.8887  0.5104
24770SOL    HW275988   3.655   9.217   3.983  0.2148 -0.8992  0.3490
24771SOL     OW75989   5.400   7.242   4.103 -0.5471  0.3674  0.3864
24771SOL    HW175990   5.334   7.308   4.080 -0.0370  1.4561  2.0124
24771SOL    HW275991   5.448   7.280   4.176 -0.7524 -2.1320  1.8842
24772SOL     OW75992   4.649   3.705   2.492  0.8459  0.0750  0.3420
24772SOL    HW175993   4.726   3.745   2.453 -0.1402 -0.2121 -1.9989
24772SOL    HW275994   4.603   3.777   2.535  1.8993  0.4276  0.8788
24773SOL     OW75995   2.367   7.826   7.451 -0.3207 -0.6475  0.0812
24773SOL    HW175996   2.448   7.785   7.479  0.8194  1.8986  0.6509
24773SOL    HW275997   2.394   7.901   7.398 -2.3702 -1.9978 -3.0748
24774SOL     OW75998   6.621   8.044   5.524 -0.2237  0.5532  0.3971
24774SOL    HW175999   6.596   7.953   5.508  1.1056 -0.0690  1.7501
24774SOL    HW276000   6.542   8.094   5.504 -1.5027 -1.0605  1.2569
24775SOL     OW76001   4.467   9.033   8.472 -0.1649 -0.0001 -0.1298
24775SOL    HW176002   4.501   8.946   8.451 -1.4603 -0.5320 -0.0031
24775SOL    HW276003   4.383   9.038   8.427 -0.3324  0.9915  0.2836
24776SOL     OW76004   0.363   0.528   3.353  0.0692 -0.6196  0.4159
24776SOL    HW176005   0.326   0.544   3.266  0.2157  1.8343  0.7646
24776SOL    HW276006   0.290   0.490   3.403 -0.8194  0.4818 -0.0225
24777SOL     OW76007   7.813   7.580   5.852 -0.4317 -0.3113  0.2976
24777SOL    HW176008   7.753   7.653   5.870  0.5162  0.5205  0.1222
24777SOL    HW276009   7.897   7.609   5.886 -0.0813 -1.4058  0.3761
24778SOL     OW76010   6.153   2.872   5.024 -0.7874  0.6497  0.0653
24778SOL    HW176011   6.149   2.954   4.974 -0.4048  1.2826  1.0357
24778SOL    HW276012   6.214   2.892   5.095  0.8686 -1.1163 -0.8185
24779SOL     OW76013   4.432   1.937   4.259  0.2752  0.1500  0.0406
24779SOL    HW176014   4.377   1.997   4.208 -0.5352  1.1513  2.0089
24779SOL    HW276015   4.474   1.994   4.324  1.2991 -1.0737  0.4542
24780SOL     OW76016   0.161   8.096   8.139 -0.0506 -0.3621  0.3348
24780SOL    HW176017   0.109   8.104   8.059  0.3242  0.2799  0.1597
24780SOL    HW276018   0.114   8.149   8.203  1.3639  1.7013 -0.3070
24781SOL     OW76019   3.241   4.445   4.610  0.1174 -0.3794  0.1715
24781SOL    HW176020   3.316   4.468   4.664  0.4660  0.1909 -0.5419
24781SOL    HW276021   3.270   4.463   4.520 -1.2030  0.8238 -0.0377
24782SOL     OW76022   9.117   8.521   3.402  0.1251  0.4272  0.0614
24782SOL    HW176023   9.188   8.480   3.450  0.4704  0.3508 -0.5067
24782SOL    HW276024   9.052   8.544   3.469  1.2724  1.7126  0.7372
24783SOL     OW76025   0.520   3.298   3.312  0.2973 -0.3455  0.0838
24783SOL    HW176026   0.462   3.287   3.387 -0.5577 -0.2052 -0.5439
24783SOL    HW276027   0.508   3.219   3.260  3.2740 -1.8958  1.6709
24784SOL     OW76028   1.963   7.381   5.560 -0.2561  0.0184 -0.5604
24784SOL    HW176029   1.891   7.329   5.525 -0.7565 -0.6528  1.4205
24784SOL    HW276030   1.924   7.465   5.582 -0.5843 -0.5332  1.0340
24785SOL     OW76031   6.552   6.266   0.508  0.4502 -0.6728 -0.1412
24785SOL    HW176032   6.513   6.185   0.539 -1.2146  0.6171  1.2560
24785SOL    HW276033   6.488   6.334   0.531  2.2249  1.1493 -0.4192
24786SOL     OW76034   3.212   3.348   7.667 -0.3878  0.2593  0.5688
24786SOL    HW176035   3.198   3.391   7.583  1.7293 -0.5046 -0.2126
24786SOL    HW276036   3.246   3.418   7.724 -3.2410  1.1410  1.2945
24787SOL     OW76037   5.606   8.381   2.971  0.0026  0.4274 -0.4104
24787SOL    HW176038   5.642   8.303   3.013 -0.8386 -0.2348 -0.9179
24787SOL    HW276039   5.549   8.420   3.037  0.3042  0.5346 -0.2114
24788SOL     OW76040   9.080   2.326   1.938 -0.2294  0.0146 -0.0529
24788SOL    HW176041   9.045   2.396   1.993 -2.0879 -1.5646  0.8577
24788SOL    HW276042   9.055   2.246   1.984  2.7252 -1.2444 -0.5604
24789SOL     OW76043   1.123   5.343   2.894  0.5350 -0.3556  0.1385
24789SOL    HW176044   1.066   5.278   2.935 -0.4283 -0.6343 -1.5772
24789SOL    HW276045   1.193   5.357   2.957 -1.4747  0.0630  2.3526
24790SOL     OW76046   0.303   2.483   7.757 -0.1246  0.0028 -0.0175
24790SOL    HW176047   0.308   2.393   7.788  1.6611 -0.3708 -1.3610
24790SOL    HW276048   0.394   2.510   7.744 -0.6038  2.1020  0.6403
24791SOL     OW76049   5.201   8.849   0.607 -0.3357  0.6917  0.6029
24791SOL    HW176050   5.113   8.885   0.609 -0.8354 -0.4982  0.1766
24791SOL    HW276051   5.233   8.867   0.519  0.0378  1.5432  0.9018
24792SOL     OW76052   8.747   8.337   2.573  0.1388  0.1674 -0.4297
24792SOL    HW176053   8.716   8.425   2.551 -0.5736 -0.5169 -2.2537
24792SOL    HW276054   8.743   8.333   2.668 -2.4993  1.1464 -0.4807
24793SOL     OW76055   9.174   7.854   2.589  0.3053 -0.2793  0.1182
24793SOL    HW176056   9.126   7.897   2.518  0.1887 -0.1511  0.2744
24793SOL    HW276057   9.197   7.768   2.553 -1.2188 -0.8678  0.5096
24794SOL     OW76058   5.373   6.961   1.842 -0.3417 -0.1211 -0.5570
24794SOL    HW176059   5.350   6.998   1.756 -2.3200 -1.5451 -0.6769
24794SOL    HW276060   5.393   6.869   1.823  1.9831  0.2094  0.1231
24795SOL     OW76061   4.101   1.742   3.434 -0.0179 -0.5085 -0.0976
24795SOL    HW176062   4.172   1.790   3.392 -1.5848 -0.9119 -3.3492
24795SOL    HW276063   4.048   1.810   3.476  0.4232  0.1055 -0.5283
24796SOL     OW76064   7.472   4.575   4.698  0.3142 -0.6448  0.9885
24796SOL    HW176065   7.566   4.573   4.720  0.3341 -0.2522  0.9523
24796SOL    HW276066   7.459   4.500   4.641  0.8939  0.0773 -0.1342
24797SOL     OW76067   8.570   7.320   0.567  0.2801  0.7810  0.2237
24797SOL    HW176068   8.487   7.278   0.546  0.5529 -0.1066  0.8930
24797SOL    HW276069   8.553   7.365   0.650  1.3487 -2.1078  2.1001
24798SOL     OW76070   2.299   7.496   6.791  0.5458  0.1267  0.0776
24798SOL    HW176071   2.269   7.432   6.727  0.4929  0.5229 -0.2958
24798SOL    HW276072   2.292   7.580   6.746 -2.1730  0.7405  1.5116
24799SOL     OW76073   2.080   5.230   4.804  0.1633 -0.3164  0.4460
24799SOL    HW176074   2.170   5.262   4.810  0.0120  0.0443  0.8293
24799SOL    HW276075   2.065   5.218   4.710  0.1353  1.0124  0.2692
24800SOL     OW76076   6.128   7.838   4.590 -0.2277  0.7233 -0.6508
24800SOL    HW176077   6.183   7.915   4.602 -1.2900  1.2330  1.1582
24800SOL    HW276078   6.139   7.814   4.498  1.6652  1.8282 -0.7208
24801SOL     OW76079   2.840   4.168   2.482 -0.4463  0.5139  0.1007
24801SOL    HW176080   2.805   4.180   2.394  1.7550  2.0365 -0.5959
24801SOL    HW276081   2.826   4.075   2.501 -1.7871  0.3691 -1.4498
24802SOL     OW76082   3.333   5.909   4.873 -0.0963 -0.3759 -0.4219
24802SOL    HW176083   3.322   5.999   4.842  2.1160 -0.2329 -0.9160
24802SOL    HW276084   3.266   5.898   4.940 -0.3625  1.6744 -0.3168
24803SOL     OW76085   3.745   4.069   1.960  0.4832 -0.2943 -0.2395
24803SOL    HW176086   3.779   4.079   1.872  0.6506 -0.9002 -0.2497
24803SOL    HW276087   3.736   3.974   1.972 -2.8724 -0.1208 -0.8735
24804SOL     OW76088   2.552   3.090   2.833  0.0103 -0.5365  0.1199
24804SOL    HW176089   2.479   3.064   2.889 -1.0901  1.7744 -0.1750
24804SOL    HW276090   2.630   3.074   2.887 -0.9572  0.5175  1.8982
24805SOL     OW76091   1.772   8.252   1.529  0.3166 -0.4778  0.4328
24805SOL    HW176092   1.785   8.160   1.505  2.4163  0.0078 -0.3323
24805SOL    HW276093   1.690   8.276   1.485 -0.2083 -1.9562  0.5695
24806SOL     OW76094   2.069   4.298   4.703 -0.7001  0.2087 -0.3204
24806SOL    HW176095   2.088   4.391   4.701 -0.1258  0.0934 -0.3685
24806SOL    HW276096   1.974   4.292   4.691 -0.7211  0.7774 -0.4408
24807SOL     OW76097   4.018   3.110   3.406  0.3451  0.4637 -0.1187
24807SOL    HW176098   3.982   3.188   3.364 -1.1313  0.2530  0.7191
24807SOL    HW276099   3.945   3.073   3.455  0.9403 -1.6208 -0.7344
24808SOL     OW76100   6.538   6.096   2.580  0.2202 -0.1626 -0.1759
24808SOL    HW176101   6.547   6.001   2.579  0.4590 -0.1599  0.9107
24808SOL    HW276102   6.502   6.116   2.667 -1.6164  0.5810 -1.0619
24809SOL     OW76103   2.065   8.696   4.991  0.8165 -0.4835  0.3345
24809SOL    HW176104   2.023   8.614   5.016  0.2383 -1.2087 -2.7368
24809SOL    HW276105   1.999   8.763   5.008 -0.2710 -1.1846 -1.0095
24810SOL     OW76106   6.048   4.762   0.275 -0.0604 -0.0972 -0.2639
24810SOL    HW176107   6.068   4.687   0.330 -0.1789  0.3150  0.3385
24810SOL    HW276108   5.952   4.766   0.273 -0.0506  0.6441  0.5297
24811SOL     OW76109   5.314   5.086   0.780  0.1775  0.3944  0.2288
24811SOL    HW176110   5.301   4.991   0.779  0.3279  0.3563  1.3381
24811SOL    HW276111   5.226   5.122   0.767  0.0534  0.1040  0.2530
24812SOL     OW76112   8.250   4.279   7.011 -0.2337 -0.8368  0.1367
24812SOL    HW176113   8.242   4.356   6.954  2.7017 -1.1303 -0.7434
24812SOL    HW276114   8.206   4.209   6.963 -0.0221 -0.4821 -0.5840
24813SOL     OW76115   0.019   2.710   1.418 -0.6975  0.6185  0.0724
24813SOL    HW176116   0.034   2.619   1.443 -0.7478  0.5719 -0.0702
24813SOL    HW276117   0.037   2.759   1.498  0.9878  0.6288 -0.2840
24814SOL     OW76118   1.486   4.270   2.085  0.7324  0.5444 -0.1376
24814SOL    HW176119   1.438   4.189   2.067  3.2847 -0.6813 -1.7361
24814SOL    HW276120   1.448   4.303   2.166 -1.8847 -1.0469 -0.6389
24815SOL     OW76121   6.168   1.524   0.251  0.2919  0.7691  0.0796
24815SOL    HW176122   6.209   1.603   0.217  1.3698 -0.4385 -1.4582
24815SOL    HW276123   6.075   1.546   0.258  0.8684  2.8743  1.7499
24816SOL     OW76124   2.302   1.074   0.389 -0.5655 -0.5171  0.0284
24816SOL    HW176125   2.300   1.155   0.440 -1.5372 -0.4464 -0.1119
24816SOL    HW276126   2.222   1.028   0.413  0.4097 -1.8454  0.7444
24817SOL     OW76127   2.167   4.877   4.183 -0.3364  0.3785 -0.2904
24817SOL    HW176128   2.145   4.815   4.114  0.2470  1.4096 -1.4061
24817SOL    HW276129   2.117   4.956   4.162 -0.5004  0.5573  0.7173
24818SOL     OW76130   7.213   1.797   2.219 -0.3310  0.3747  0.6437
24818SOL    HW176131   7.300   1.823   2.248 -1.1267  0.6198  2.9299
24818SOL    HW276132   7.166   1.775   2.300 -2.2281 -0.2441 -0.5844
24819SOL     OW76133   6.571   5.732   1.868  0.3743 -0.6472  0.4954
24819SOL    HW176134   6.610   5.716   1.782 -2.1579  0.8761 -1.0284
24819SOL    HW276135   6.558   5.645   1.905  0.8110 -1.3748 -1.0143
24820SOL     OW76136   8.378   0.592   2.345  0.4767  0.0531 -0.2468
24820SOL    HW176137   8.376   0.592   2.249 -3.7034  1.6254 -0.2480
24820SOL    HW276138   8.417   0.676   2.368  0.9724 -0.0916 -0.5288
24821SOL     OW76139   0.291   3.146   7.721 -0.4507  0.2759 -0.1201
24821SOL    HW176140   0.299   3.055   7.749  1.6896  0.1288 -1.0488
24821SOL    HW276141   0.330   3.196   7.792  0.6978  0.2470 -0.7064
24822SOL     OW76142   0.524   1.855   8.519  0.5854 -0.0726  0.3432
24822SOL    HW176143   0.437   1.828   8.488 -0.0481  0.4048  1.6627
24822SOL    HW276144   0.575   1.774   8.516 -0.3881 -0.7379  1.1696
24823SOL     OW76145   1.608   3.813   7.117 -0.3324 -0.0951 -0.0718
24823SOL    HW176146   1.581   3.722   7.123  0.8633 -0.6040 -1.9827
24823SOL    HW276147   1.696   3.815   7.156 -0.2667  0.1853 -0.2282
24824SOL     OW76148   2.915   4.076   1.314  0.0509  0.1957  0.2652
24824SOL    HW176149   2.883   4.166   1.308  0.6542  0.3925  0.0037
24824SOL    HW276150   2.973   4.066   1.238 -0.6256 -0.6546 -0.1475
24825SOL     OW76151   5.129   0.310   2.623 -0.4766 -0.1711 -0.0990
24825SOL    HW176152   5.199   0.335   2.683 -0.0615  0.3711 -0.8039
24825SOL    HW276153   5.119   0.215   2.636  0.0458 -0.1661  0.3482
24826SOL     OW76154   5.974   9.041   5.214  0.3829 -0.0081  0.7716
24826SOL    HW176155   6.067   9.058   5.226  0.3785  0.6906 -0.0869
24826SOL    HW276156   5.945   9.108   5.152 -0.7116 -0.1622  1.0935
24827SOL     OW76157   2.083   4.672   8.434  0.0451 -0.1210 -0.2079
24827SOL    HW176158   2.069   4.693   8.526  0.4229 -0.4634 -0.0740
24827SOL    HW276159   2.007   4.618   8.410 -0.3336  0.4215 -0.2469
24828SOL     OW76160   4.984   1.039   1.587  0.2909  0.4141  0.6976
24828SOL    HW176161   4.909   1.089   1.619 -0.0137  0.4174  0.0085
24828SOL    HW276162   5.006   1.081   1.503  1.1069  0.4608  0.9302
24829SOL     OW76163   8.248   2.992   8.607 -0.2181 -0.3350  0.1406
24829SOL    HW176164   8.210   2.988   8.520 -1.7377 -0.5100  0.7928
24829SOL    HW276165   8.311   2.920   8.610 -0.7914 -0.8604 -0.5135
24830SOL     OW76166   0.363   2.741   1.717 -0.0130  0.0620 -0.4107
24830SOL    HW176167   0.359   2.646   1.706  3.3247 -0.1703  0.0720
24830SOL    HW276168   0.352   2.755   1.811  0.3455  0.0953 -0.3735
24831SOL     OW76169   5.641   4.155   1.726  0.1347 -0.3070  0.0777
24831SOL    HW176170   5.566   4.190   1.678  1.0647  2.8690  0.8112
24831SOL    HW276171   5.694   4.112   1.659 -1.2814 -0.7009 -0.8023
24832SOL     OW76172   3.278   4.755   6.534  0.0980 -0.2235  0.1253
24832SOL    HW176173   3.229   4.803   6.467  2.1499  0.9760 -0.5854
24832SOL    HW276174   3.317   4.682   6.487 -0.1869 -0.5977  0.4707
24833SOL     OW76175   4.102   2.279   1.826  0.5252  0.6808 -0.8784
24833SOL    HW176176   4.062   2.259   1.911  3.1509  0.1156  0.2673
24833SOL    HW276177   4.163   2.350   1.844 -0.5346  2.1109 -2.7659
24834SOL     OW76178   8.787   6.190   1.050 -0.2634 -0.3063 -0.2918
24834SOL    HW176179   8.710   6.133   1.057 -0.4349  0.1536  1.7944
24834SOL    HW276180   8.853   6.148   1.105  0.8793 -0.4800 -1.7523
24835SOL     OW76181   2.767   0.547   1.424  0.5854  0.0950 -0.4293
24835SOL    HW176182   2.671   0.546   1.428  0.5500  0.1964 -1.1183
24835SOL    HW276183   2.794   0.586   1.506  0.0174  0.4252 -0.3957
24836SOL     OW76184   3.383   6.003   6.120 -0.3773 -0.2894 -0.4937
24836SOL    HW176185   3.297   5.961   6.117  1.0042 -3.1265 -1.5738
24836SOL    HW276186   3.370   6.078   6.179 -3.7613 -0.1868 -1.2161
24837SOL     OW76187   4.324   7.822   8.289  0.0074  0.4689 -0.2674
24837SOL    HW176188   4.342   7.909   8.253  0.0887  0.3996 -0.3950
24837SOL    HW276189   4.243   7.833   8.339  0.2610  0.7195  0.0846
24838SOL     OW76190   8.731   7.170   1.011 -0.1993 -0.1030 -0.0935
24838SOL    HW176191   8.648   7.196   0.972  0.8576  0.3751 -2.0553
24838SOL    HW276192   8.720   7.077   1.031 -1.6786  0.2768  0.9766
24839SOL     OW76193   8.300   8.605   3.950  0.4099 -0.4391 -0.3914
24839SOL    HW176194   8.372   8.564   3.999 -1.0897 -2.1096  0.4655
24839SOL    HW276195   8.240   8.533   3.931 -1.7788  1.1655  0.2388
24840SOL     OW76196   5.785   3.830   7.128  0.0300 -0.2468  0.6298
24840SOL    HW176197   5.797   3.766   7.198 -2.4625 -0.4096  0.9564
24840SOL    HW276198   5.832   3.908   7.159  0.0519 -0.7457  1.9017
24841SOL     OW76199   1.473   6.621   9.189  0.5268  0.0318 -0.1362
24841SOL    HW176200   1.427   6.540   9.167  0.5608 -0.1348  0.4182
24841SOL    HW276201   1.525   6.599   9.266 -0.1739  0.8381  0.5808
24842SOL     OW76202   2.473   7.404   3.523  0.1438  0.2941 -0.8059
24842SOL    HW176203   2.548   7.430   3.576  0.2638 -1.5670 -0.0264
24842SOL    HW276204   2.414   7.360   3.584 -1.4172  1.3740 -1.4850
24843SOL     OW76205   3.823   2.999   3.578  0.5201 -0.0945 -0.5008
24843SOL    HW176206   3.745   2.972   3.627  0.0004  1.2887 -0.5430
24843SOL    HW276207   3.880   3.039   3.644  0.3131  0.7198 -0.7976
24844SOL     OW76208   7.073   7.714   6.597 -0.3491  0.5724 -0.1483
24844SOL    HW176209   7.065   7.798   6.553 -1.1820 -1.1234 -3.4090
24844SOL    HW276210   6.987   7.701   6.638 -0.3911  1.0833 -0.0724
24845SOL     OW76211   7.508   5.047   7.351  0.1738  0.4289 -0.1325
24845SOL    HW176212   7.579   5.001   7.307  0.5013  1.7956 -1.0624
24845SOL    HW276213   7.451   5.078   7.281 -0.2912  1.0229  0.4966
24846SOL     OW76214   2.716   7.570   4.329 -0.3219  0.0745 -0.2021
24846SOL    HW176215   2.641   7.619   4.296 -0.9318 -0.5308  0.2850
24846SOL    HW276216   2.682   7.484   4.350  0.6245 -0.3837 -0.4905
24847SOL     OW76217   1.040   0.101   2.774  0.3829 -0.3744 -0.1543
24847SOL    HW176218   1.003   0.189   2.780 -0.7401 -0.8913  0.6995
24847SOL    HW276219   1.073   0.083   2.862 -0.2734 -1.1819 -0.0691
24848SOL     OW76220   5.182   2.956   5.312  0.1177 -0.4868 -1.1611
24848SOL    HW176221   5.202   2.947   5.405 -0.1352 -0.4174 -1.0999
24848SOL    HW276222   5.145   2.872   5.287  1.0309 -0.8250 -1.4156
24849SOL     OW76223   0.461   9.114   4.100 -0.1568  0.1750 -0.5945
24849SOL    HW176224   0.372   9.145   4.119 -0.2556 -0.3059 -0.2578
24849SOL    HW276225   0.461   9.022   4.127  0.3612  0.0950 -0.8605
24850SOL     OW76226   1.744   6.431   1.742 -0.2416  0.1166  0.4733
24850SOL    HW176227   1.665   6.446   1.793 -0.4983  1.3753 -0.2899
24850SOL    HW276228   1.785   6.517   1.736  0.1739 -0.1743 -0.8035
24851SOL     OW76229   6.505   2.424   1.138  0.1887  0.4723  0.1195
24851SOL    HW176230   6.517   2.503   1.191  1.1959  0.4037 -0.0090
24851SOL    HW276231   6.414   2.429   1.109 -0.4194  0.4514  1.9652
24852SOL     OW76232   8.592   3.978   6.555 -0.1356 -0.1635  0.1575
24852SOL    HW176233   8.662   3.950   6.496  1.6564  1.6539  1.3657
24852SOL    HW276234   8.547   4.048   6.508  1.1005  1.0794  0.8085
24853SOL     OW76235   8.065   6.815   8.945  0.2636  0.5238 -0.2513
24853SOL    HW176236   8.151   6.827   8.987  0.2097  2.0504 -0.5188
24853SOL    HW276237   8.086   6.790   8.855  0.3958 -1.2617  0.2612
24854SOL     OW76238   4.905   9.001   8.599  0.6278 -0.4039 -0.3738
24854SOL    HW176239   4.912   8.971   8.690  2.0425  2.1705  0.4240
24854SOL    HW276240   4.820   9.046   8.596  0.0066 -1.5775 -0.6887
24855SOL     OW76241   6.818   8.960   3.042 -0.5032 -0.4779  0.2640
24855SOL    HW176242   6.793   8.871   3.017 -0.0920  0.2119 -2.8203
24855SOL    HW276243   6.909   8.967   3.015 -0.3742  0.7080  1.0095
24856SOL     OW76244   0.502   1.633   8.760  0.4485  0.4100  0.3363
24856SOL    HW176245   0.465   1.578   8.691  2.7539  0.1530 -0.7394
24856SOL    HW276246   0.492   1.582   8.840 -1.0670  0.1505 -0.0006
24857SOL     OW76247   0.688   6.316   6.568  0.7918 -0.2057 -0.0766
24857SOL    HW176248   0.649   6.401   6.587 -0.1263 -0.5042 -0.6472
24857SOL    HW276249   0.617   6.253   6.578  0.8157 -0.6170 -2.2947
24858SOL     OW76250   2.037   1.911   5.991 -0.1454 -0.2447 -0.8198
24858SOL    HW176251   1.987   1.839   5.952 -0.9865 -0.2745  0.2594
24858SOL    HW276252   2.127   1.877   5.997 -0.4831 -1.1173 -0.5543
24859SOL     OW76253   4.319   3.922   1.667  0.3417 -0.3796 -0.2041
24859SOL    HW176254   4.339   3.961   1.583 -0.0439 -0.5254 -0.3650
24859SOL    HW276255   4.404   3.913   1.711  0.8238 -2.4170 -1.4909
24860SOL     OW76256   7.042   4.099   4.817  0.7367 -0.0054 -0.0720
24860SOL    HW176257   6.960   4.115   4.863  1.7704  1.0804  1.4780
24860SOL    HW276258   7.022   4.114   4.725 -0.2737  2.5098  0.5234
24861SOL     OW76259   3.358   2.221   9.191 -0.5080 -0.0641 -0.3025
24861SOL    HW176260   3.302   2.240   9.267 -2.1989  0.6180 -1.6858
24861SOL    HW276261   3.337   2.130   9.169 -0.4178 -0.0877 -0.2908
24862SOL     OW76262   6.217   5.681   4.040 -0.1362  0.1679  0.0565
24862SOL    HW176263   6.168   5.676   4.122 -1.6127  0.5012 -0.7778
24862SOL    HW276264   6.252   5.770   4.039  0.2095  0.0398  0.5028
24863SOL     OW76265   5.185   7.786   3.282  0.5940 -0.0467 -0.0245
24863SOL    HW176266   5.116   7.723   3.305  0.9060  0.0912  1.3121
24863SOL    HW276267   5.183   7.789   3.186 -1.0216 -0.3096 -0.0162
24864SOL     OW76268   7.488   7.566   5.297  0.0136 -0.2823  0.0558
24864SOL    HW176269   7.455   7.562   5.207 -1.6637  1.3068  0.5755
24864SOL    HW276270   7.514   7.658   5.309 -0.8374 -0.2302  1.5690
24865SOL     OW76271   0.341   1.521   8.564  0.4475 -0.2732  0.4728
24865SOL    HW176272   0.323   1.484   8.478  2.0774  2.5913 -1.1735
24865SOL    HW276273   0.258   1.558   8.593  0.3960  0.6330 -0.8272
24866SOL     OW76274   8.904   2.284   7.600 -0.0293  0.6584  0.2728
24866SOL    HW176275   8.971   2.248   7.541  0.2729 -0.4674  1.2838
24866SOL    HW276276   8.830   2.304   7.543  0.6036  0.4686 -0.6307
24867SOL     OW76277   3.209   3.682   3.602  0.5930  0.2929 -0.4349
24867SOL    HW176278   3.255   3.599   3.609  1.0199  0.4767 -1.0601
24867SOL    HW276279   3.232   3.729   3.682  0.7941  0.0429 -0.3445
24868SOL     OW76280   0.215   7.845   7.742 -0.0287 -0.4466  0.1776
24868SOL    HW176281   0.166   7.866   7.662  0.0201 -2.1596 -0.3254
24868SOL    HW276282   0.161   7.779   7.785  0.8597 -0.8830  0.6267
24869SOL     OW76283   5.470   0.585   5.741  0.0634 -0.3476 -0.1057
24869SOL    HW176284   5.551   0.634   5.753 -1.4706  1.6074  2.8152
24869SOL    HW276285   5.411   0.646   5.697 -0.8219 -0.6664  0.6068
24870SOL     OW76286   0.977   4.835   7.234 -0.6704  0.4669 -0.0121
24870SOL    HW176287   0.988   4.877   7.148 -1.0805  0.0312 -0.2796
24870SOL    HW276288   0.912   4.890   7.279 -1.5968 -0.1633 -0.5592
24871SOL     OW76289   0.868   8.905   8.000 -0.0508 -0.0220 -0.3561
24871SOL    HW176290   0.962   8.896   8.013 -0.0034  1.9199  0.9052
24871SOL    HW276291   0.829   8.880   8.084 -0.6613 -0.6910 -0.8277
24872SOL     OW76292   3.548   4.125   5.579  0.1285  0.1692 -0.0147
24872SOL    HW176293   3.564   4.219   5.586 -0.1188  0.2049  0.0738
24872SOL    HW276294   3.584   4.101   5.493 -0.3716  0.4618 -0.3077
24873SOL     OW76295   3.591   7.495   3.728  0.6970  0.0145 -0.1640
24873SOL    HW176296   3.662   7.548   3.693 -0.3916  1.1339 -0.7214
24873SOL    HW276297   3.530   7.559   3.765 -0.5513 -0.8601 -0.6908
24874SOL     OW76298   6.046   3.305   9.072 -0.6060  0.3530 -0.2019
24874SOL    HW176299   6.121   3.357   9.045 -0.4765  0.6326  0.6853
24874SOL    HW276300   6.007   3.273   8.990  1.4987 -1.2371 -0.6231
24875SOL     OW76301   4.497   7.636   3.595 -0.0156 -0.6058 -0.0203
24875SOL    HW176302   4.529   7.601   3.678 -1.6591 -1.7209  0.1654
24875SOL    HW276303   4.575   7.672   3.552  0.7526  0.5334  2.2499
24876SOL     OW76304   0.904   8.255   3.391  0.0800  0.8354  0.1230
24876SOL    HW176305   0.976   8.235   3.330 -0.4103  1.0137 -0.5139
24876SOL    HW276306   0.836   8.294   3.337 -0.6429  0.3573  0.6663
24877SOL     OW76307   3.514   2.285   5.026  0.1168  0.3580 -0.4061
24877SOL    HW176308   3.568   2.356   5.060  0.2159 -0.4087  1.1188
24877SOL    HW276309   3.561   2.254   4.949  0.8491  0.9763 -0.2195
24878SOL     OW76310   3.683   5.827   0.309  0.4142 -0.0659 -0.2302
24878SOL    HW176311   3.657   5.887   0.240  0.1901  0.3244  0.1897
24878SOL    HW276312   3.676   5.879   0.390  0.1032 -0.6820  0.1456
24879SOL     OW76313   8.404   7.522   2.120 -0.2306 -0.6189  0.3808
24879SOL    HW176314   8.414   7.428   2.105  0.0474 -0.8000  1.6432
24879SOL    HW276315   8.355   7.554   2.044 -0.4689 -1.8093  0.0304
24880SOL     OW76316   0.004   9.271   8.672  0.1443 -0.2783 -0.4521
24880SOL    HW176317  -0.007   9.363   8.651 -0.0232 -0.3721 -0.7771
24880SOL    HW276318  -0.082   9.243   8.705 -0.5389 -0.9320 -2.6927
24881SOL     OW76319   6.923   4.862   4.579 -0.2447 -0.0213 -0.5032
24881SOL    HW176320   6.932   4.770   4.553 -2.3400 -1.9511  4.9637
24881SOL    HW276321   6.993   4.876   4.642 -0.1338  2.1245 -1.0602
24882SOL     OW76322   6.261   7.146   6.727  0.2630  0.4721 -0.3763
24882SOL    HW176323   6.166   7.134   6.725  0.0620  1.8330  0.2199
24882SOL    HW276324   6.283   7.175   6.638  0.0946  0.3193 -0.4681
24883SOL     OW76325   5.862   8.146   0.867  0.1689  0.0450 -0.0726
24883SOL    HW176326   5.889   8.054   0.864  0.2213  0.0414  0.5531
24883SOL    HW276327   5.850   8.165   0.960  1.2040  0.9748 -0.1215
24884SOL     OW76328   2.832   6.100   3.020  0.3462 -0.5559 -0.5719
24884SOL    HW176329   2.927   6.107   3.012  0.5095 -2.1215 -0.1483
24884SOL    HW276330   2.817   6.072   3.111 -0.5922  0.9041 -0.2535
24885SOL     OW76331   7.282   6.585   3.156 -0.3214  0.1301  0.2317
24885SOL    HW176332   7.202   6.563   3.203  0.0967 -1.3592  0.2794
24885SOL    HW276333   7.276   6.679   3.140 -2.0717  0.0208  0.2251
24886SOL     OW76334   1.199   5.314   5.731 -0.1531 -0.1214  0.0606
24886SOL    HW176335   1.246   5.321   5.648  0.5269 -0.2943  0.4215
24886SOL    HW276336   1.108   5.333   5.709  0.1655  0.7479 -0.5643
24887SOL     OW76337   7.677   0.191   3.571 -0.3141 -0.8482  0.4814
24887SOL    HW176338   7.587   0.162   3.585 -0.6755 -1.0463 -2.1127
24887SOL    HW276339   7.730   0.125   3.617 -1.4866 -0.1052  2.9834
24888SOL     OW76340   2.489   1.543   2.173 -0.2709  0.3482  0.2940
24888SOL    HW176341   2.512   1.459   2.134 -1.9556  1.1971 -2.6848
24888SOL    HW276342   2.550   1.605   2.132  0.6014  0.6894  2.0668
24889SOL     OW76343   5.318   6.890   5.686  0.4832 -0.0522  0.6008
24889SOL    HW176344   5.240   6.917   5.637  0.9486 -1.0890 -0.7239
24889SOL    HW276345   5.284   6.834   5.756  0.0984 -1.1801 -0.4728
24890SOL     OW76346   8.339   3.384   4.805 -0.0920 -0.3277  0.1734
24890SOL    HW176347   8.315   3.474   4.783  0.2158 -0.2841 -0.0003
24890SOL    HW276348   8.310   3.333   4.730 -1.3926 -0.5539  0.8202
24891SOL     OW76349   6.980   1.663   6.534 -0.1216  0.1520  0.2687
24891SOL    HW176350   6.918   1.688   6.466  0.2974  0.8317  0.1303
24891SOL    HW276351   7.066   1.681   6.495  0.0947  1.9371  1.4981
24892SOL     OW76352   4.251   8.616   4.091 -0.7194  0.0465  0.0819
24892SOL    HW176353   4.197   8.590   4.166 -0.0522  1.4940  1.0769
24892SOL    HW276354   4.340   8.587   4.113 -0.6616 -0.2659 -0.5262
24893SOL     OW76355   9.211   7.408   7.444 -0.1755 -0.5115 -0.2282
24893SOL    HW176356   9.262   7.462   7.383 -0.0555  1.1410  1.2962
24893SOL    HW276357   9.128   7.454   7.454 -1.4074 -2.4136 -1.5340
24894SOL     OW76358   6.624   8.697   0.352  0.1748 -0.0904  0.1279
24894SOL    HW176359   6.553   8.762   0.345 -0.7348 -0.9938  0.8669
24894SOL    HW276360   6.618   8.665   0.442  0.9906 -0.7898 -0.0696
24895SOL     OW76361   8.056   5.239   0.675 -0.7502  0.4243  0.2650
24895SOL    HW176362   8.083   5.278   0.759  1.2398 -1.5597  0.6048
24895SOL    HW276363   8.138   5.227   0.627 -1.7321  0.2196 -1.3795
24896SOL     OW76364   0.304   8.715   3.211 -0.4131 -0.0365 -0.1496
24896SOL    HW176365   0.281   8.787   3.270 -1.3791  1.3782 -2.2141
24896SOL    HW276366   0.394   8.734   3.186  0.3279 -1.1577  1.5706
24897SOL     OW76367   5.875   5.521   5.018 -0.0113  0.3549 -0.0834
24897SOL    HW176368   5.966   5.492   5.016  0.6739  2.3895 -0.0257
24897SOL    HW276369   5.841   5.489   5.101  1.6244  2.2888  1.3776
24898SOL     OW76370   6.116   8.554   0.159  0.3605  0.1762 -0.3853
24898SOL    HW176371   6.210   8.566   0.174  0.1915 -1.0965  1.7884
24898SOL    HW276372   6.108   8.465   0.124 -0.3175 -0.9400  2.5027
24899SOL     OW76373   5.110   9.285   2.943 -0.0965 -0.2726  0.3302
24899SOL    HW176374   5.096   9.340   2.866 -0.5741  0.2005  0.7485
24899SOL    HW276375   5.184   9.326   2.989  0.8647 -1.1581 -0.4210
24900SOL     OW76376   0.492   8.459   5.122 -0.0607  0.1661  0.0319
24900SOL    HW176377   0.504   8.365   5.132  0.6735  0.4071  1.6235
24900SOL    HW276378   0.436   8.484   5.196  2.6014  1.4894  1.6772
24901SOL     OW76379   3.510   4.264   0.425 -0.0583 -0.1156 -0.4339
24901SOL    HW176380   3.576   4.224   0.482  0.6283  1.6809  0.0763
24901SOL    HW276381   3.432   4.210   0.437  0.8149 -1.2589  0.2580
24902SOL     OW76382   4.588   6.944   2.467  0.3205 -0.0681  0.1466
24902SOL    HW176383   4.529   7.001   2.417 -0.8167 -0.5170  0.9579
24902SOL    HW276384   4.670   6.946   2.418 -0.4130  0.4390 -1.0928
24903SOL     OW76385   1.050   1.446   3.905 -0.0415 -0.1840  0.0750
24903SOL    HW176386   1.055   1.355   3.877  0.2259 -0.1119 -0.1073
24903SOL    HW276387   1.112   1.493   3.849 -0.1709  0.1095  0.1729
24904SOL     OW76388   4.455   5.686   7.561  0.6652 -0.2667  0.4271
24904SOL    HW176389   4.446   5.720   7.650 -0.2781 -3.1116  1.4675
24904SOL    HW276390   4.366   5.679   7.528  0.9512 -0.1130 -0.3959
24905SOL     OW76391   5.019   4.103   6.345  0.1528 -0.2546 -0.3680
24905SOL    HW176392   5.104   4.142   6.366  0.0173 -0.9228  1.5261
24905SOL    HW276393   4.958   4.178   6.341  0.1901 -0.0770  1.6963
24906SOL     OW76394   3.480   8.309   4.280 -0.0715  0.0389 -0.3889
24906SOL    HW176395   3.416   8.260   4.331 -1.4116  0.9613 -1.1517
24906SOL    HW276396   3.472   8.399   4.311  1.4452  0.0339  0.0815
24907SOL     OW76397   7.821   1.798   2.063 -0.6229 -0.1236  0.4223
24907SOL    HW176398   7.888   1.863   2.042  0.4372 -0.7489  1.7620
24907SOL    HW276399   7.740   1.849   2.071 -0.3091  0.6472 -1.1593
24908SOL     OW76400   7.295   8.146   5.394 -0.0847  0.4447  0.2399
24908SOL    HW176401   7.248   8.208   5.449  1.7414  1.2118  0.9856
24908SOL    HW276402   7.314   8.195   5.314  0.2398  0.4436  0.3149
24909SOL     OW76403   5.385   6.213   3.901 -0.3581 -0.0875 -0.1519
24909SOL    HW176404   5.443   6.285   3.924  0.6645 -0.3970 -1.7166
24909SOL    HW276405   5.403   6.146   3.968 -0.3356  0.5630  0.4999
24910SOL     OW76406   7.655   0.838   0.925 -0.6898  0.1644  0.0130
24910SOL    HW176407   7.693   0.786   0.995 -0.2793  1.8386  1.0380
24910SOL    HW276408   7.564   0.853   0.952 -1.9127 -3.0196 -1.9833
24911SOL     OW76409   0.187   6.237   1.723 -0.1462  0.8167 -0.0321
24911SOL    HW176410   0.185   6.267   1.632  3.9812 -2.1746 -1.2615
24911SOL    HW276411   0.258   6.286   1.763  0.5778 -0.6240  0.4748
24912SOL     OW76412   7.389   4.177   2.391 -0.2155  0.6460  0.5772
24912SOL    HW176413   7.375   4.236   2.316 -0.0577 -1.1955 -0.9435
24912SOL    HW276414   7.420   4.096   2.352  0.9268 -0.0091  2.7682
24913SOL     OW76415   1.154   0.912   2.988  0.3977 -0.6046  0.2886
24913SOL    HW176416   1.135   0.999   2.954  0.6011 -0.6848 -0.0287
24913SOL    HW276417   1.075   0.888   3.037  0.7523  0.1868  1.2623
24914SOL     OW76418   1.005   5.169   0.088  0.5217 -0.1678 -0.2363
24914SOL    HW176419   0.921   5.124   0.093  0.2974  0.3428  0.6346
24914SOL    HW276420   0.983   5.262   0.090  1.0740 -0.0266 -0.5796
24915SOL     OW76421   8.594   1.445   4.173 -0.1730  0.3156 -0.0579
24915SOL    HW176422   8.560   1.445   4.263  0.9814  2.9207  0.4206
24915SOL    HW276423   8.649   1.367   4.169  0.0664  0.3651  1.6142
24916SOL     OW76424   8.524   6.189   0.386  0.0193 -0.2587  0.0012
24916SOL    HW176425   8.446   6.230   0.349  0.9193  0.5578 -1.0462
24916SOL    HW276426   8.510   6.192   0.481 -1.5625 -0.8449 -0.2004
24917SOL     OW76427   9.098   8.294   5.261 -0.2413 -0.0367 -1.0219
24917SOL    HW176428   9.018   8.244   5.244 -2.0147  1.8196  1.3692
24917SOL    HW276429   9.090   8.371   5.206 -0.2294  0.2635 -0.6084
24918SOL     OW76430   7.547   8.624   2.224  0.3762  0.4861  0.1951
24918SOL    HW176431   7.514   8.708   2.194 -0.7953 -0.7043 -1.9596
24918SOL    HW276432   7.470   8.578   2.256  1.0853  0.3805  1.8252
24919SOL     OW76433   6.556   0.946   3.206 -0.0179  0.2059 -0.2042
24919SOL    HW176434   6.497   0.892   3.259  0.4766 -1.1648 -1.0148
24919SOL    HW276435   6.541   0.916   3.116  2.4214 -0.6947 -0.3560
24920SOL     OW76436   4.470   8.162   2.923 -0.2234  0.5899  0.4680
24920SOL    HW176437   4.492   8.256   2.918 -0.5484  0.8045  2.4736
24920SOL    HW276438   4.554   8.120   2.941 -0.2010  0.5837  0.3454
24921SOL     OW76439   5.795   7.559   4.433 -0.3546  0.3497  0.5480
24921SOL    HW176440   5.711   7.544   4.475 -0.1758 -1.4242  0.2896
24921SOL    HW276441   5.851   7.591   4.503 -0.9767  0.6188  0.9266
24922SOL     OW76442   6.843   6.686   2.286 -0.5683  0.1738 -0.6557
24922SOL    HW176443   6.918   6.626   2.284 -0.8727 -0.2467  0.2212
24922SOL    HW276444   6.774   6.638   2.240 -1.0787 -0.5435  0.8024
24923SOL     OW76445   2.836   4.803   6.908 -0.3348 -0.3168 -0.0925
24923SOL    HW176446   2.916   4.760   6.940  0.7127  0.2250 -1.8620
24923SOL    HW276447   2.798   4.740   6.847  0.7688  0.8794 -2.0751
24924SOL     OW76448   4.374   2.050   1.996 -0.1663 -0.1305 -0.0543
24924SOL    HW176449   4.373   2.140   2.027 -0.0519 -0.7302  1.7618
24924SOL    HW276450   4.434   2.005   2.055  1.1912 -1.0316 -2.0550
24925SOL     OW76451   4.767   0.498   0.093 -0.1772  0.4981  0.0167
24925SOL    HW176452   4.849   0.465   0.131 -1.3196 -2.2153  0.2298
24925SOL    HW276453   4.776   0.593   0.097  2.2648  0.2641  1.5498
24926SOL     OW76454   6.743   5.361   4.702 -0.2828 -0.0636  0.5379
24926SOL    HW176455   6.808   5.430   4.692  0.0670 -0.3903  0.5625
24926SOL    HW276456   6.782   5.299   4.764  0.3926 -1.4738 -1.2504
24927SOL     OW76457   7.991   2.604   0.274 -0.3858  0.0858  0.1378
24927SOL    HW176458   7.965   2.613   0.183  0.0115  0.3775  0.0491
24927SOL    HW276459   7.988   2.510   0.292  0.5838 -0.0730 -0.4885
24928SOL     OW76460   4.346   8.827   8.654  0.0646  0.3464 -0.4268
24928SOL    HW176461   4.305   8.912   8.638 -0.5306  0.2042  0.3218
24928SOL    HW276462   4.283   8.780   8.708 -0.1523 -1.0294 -1.8536
24929SOL     OW76463   1.817   8.764   0.863  0.2092 -0.3028  0.1034
24929SOL    HW176464   1.853   8.681   0.832 -0.2475  0.5574 -2.8898
24929SOL    HW276465   1.737   8.739   0.910  1.2587 -1.6996  1.1985
24930SOL     OW76466   5.405   1.110   8.559  0.2778  0.1197 -0.1994
24930SOL    HW176467   5.407   1.019   8.588 -0.5545 -0.5419 -2.1722
24930SOL    HW276468   5.433   1.160   8.636 -1.2306 -1.6301  1.5268
24931SOL     OW76469   9.025   1.582   6.234  0.1332  0.0063 -0.4231
24931SOL    HW176470   8.946   1.625   6.200  0.0407  0.5693  0.4787
24931SOL    HW276471   9.044   1.629   6.316 -0.0256 -1.7449  0.6408
24932SOL     OW76472   7.222   3.329   2.222 -0.2982  0.0089 -0.3635
24932SOL    HW176473   7.245   3.329   2.130 -0.8481 -0.5343 -0.5017
24932SOL    HW276474   7.133   3.365   2.225  0.1437  1.0979  0.0662
24933SOL     OW76475   6.146   9.180   8.206  0.0246 -0.0713  0.1627
24933SOL    HW176476   6.212   9.156   8.141 -1.4031 -0.5887 -1.1061
24933SOL    HW276477   6.075   9.118   8.193 -2.1391  2.4899 -0.6504
24934SOL     OW76478   7.001   5.841   6.236 -0.0772  0.2255 -0.4212
24934SOL    HW176479   7.031   5.932   6.241  1.7497 -0.3911  0.2541
24934SOL    HW276480   7.053   5.795   6.302 -2.9548 -0.7888  1.2237
24935SOL     OW76481   7.529   2.209   2.402  0.0451 -0.4110  0.1585
24935SOL    HW176482   7.517   2.211   2.307  0.5000  1.3595  0.1132
24935SOL    HW276483   7.441   2.197   2.437 -0.0931 -1.3294 -0.4838
24936SOL     OW76484   4.563   2.058   8.984  0.0717 -0.8388  0.0289
24936SOL    HW176485   4.509   1.993   9.028 -3.2267  1.8547  0.2093
24936SOL    HW276486   4.612   2.101   9.054 -0.3649 -0.8000  0.3075
24937SOL     OW76487   4.460   5.830   0.867 -0.3019 -0.0296 -0.1020
24937SOL    HW176488   4.505   5.806   0.786 -0.4553  3.6715 -1.3762
24937SOL    HW276489   4.367   5.828   0.845 -0.3556  0.7819  0.0379
24938SOL     OW76490   6.094   0.176   2.158  0.0896  0.5293  0.4675
24938SOL    HW176491   6.050   0.234   2.221 -0.0362 -1.6627  2.4346
24938SOL    HW276492   6.176   0.221   2.139 -1.9992  3.6651 -1.6643
24939SOL     OW76493   5.629   1.006   0.375  0.2174  0.4425  0.4813
24939SOL    HW176494   5.562   0.940   0.395  1.4055 -1.1041 -0.5317
24939SOL    HW276495   5.707   0.974   0.421  1.1496  0.4451 -1.0739
24940SOL     OW76496   0.272   0.218   8.698  0.5302 -0.3641  0.8569
24940SOL    HW176497   0.275   0.225   8.794 -1.0703  1.5731  0.7963
24940SOL    HW276498   0.190   0.260   8.673  1.0648 -0.5813 -1.3941
24941SOL     OW76499   3.265   7.589   4.781  0.7133  0.2378 -0.3082
24941SOL    HW176500   3.340   7.642   4.807  0.6244  0.6362 -0.8725
24941SOL    HW276501   3.265   7.591   4.685  2.6163 -3.4084 -0.4747
24942SOL     OW76502   3.186   7.955   3.700 -0.4938  0.3318  0.0623
24942SOL    HW176503   3.103   7.908   3.711 -1.6201  2.0953 -0.6517
24942SOL    HW276504   3.212   7.935   3.610  0.6616 -1.4624  0.7826
24943SOL     OW76505   4.977   0.199   5.626 -0.1987  0.0849 -0.2523
24943SOL    HW176506   5.007   0.265   5.563 -0.0469 -0.8658 -1.1906
24943SOL    HW276507   5.049   0.135   5.629 -1.4096 -1.3519 -1.2736
24944SOL     OW76508   7.280   6.463   1.437 -0.0955  0.4513 -0.1079
24944SOL    HW176509   7.294   6.553   1.409  0.1941  0.9274  1.4937
24944SOL    HW276510   7.237   6.471   1.522 -2.9092 -0.9700 -1.3635
24945SOL     OW76511   0.665   1.487   2.369  0.1372 -0.0420 -0.0483
24945SOL    HW176512   0.684   1.396   2.345 -1.9656 -1.0479  1.9746
24945SOL    HW276513   0.752   1.527   2.377  1.1412 -2.1042 -0.0478
24946SOL     OW76514   6.482   7.793   5.491 -0.1592  0.1303 -0.4854
24946SOL    HW176515   6.409   7.732   5.500  0.7167 -1.0570 -1.2887
24946SOL    HW276516   6.546   7.747   5.438  0.0713  2.1891 -2.0674
24947SOL     OW76517   2.829   1.599   3.033 -0.5907 -0.1356  0.4466
24947SOL    HW176518   2.815   1.518   3.083 -1.6238  0.0909  0.5257
24947SOL    HW276519   2.762   1.598   2.965 -0.8881  0.8687  0.7196
24948SOL     OW76520   8.570   1.291   0.929 -0.1906  0.0597 -0.1115
24948SOL    HW176521   8.622   1.355   0.976 -1.1885 -0.2797  1.4895
24948SOL    HW276522   8.513   1.343   0.872 -1.0843  0.6169  1.2784
24949SOL     OW76523   7.457   6.869   2.946 -0.9115  0.5424 -0.0456
24949SOL    HW176524   7.532   6.891   3.002 -0.4719 -1.8570  0.3668
24949SOL    HW276525   7.496   6.847   2.861 -1.1744 -0.3336  0.0562
24950SOL     OW76526   4.287   0.216   0.106  0.0500 -0.4846 -0.6675
24950SOL    HW176527   4.302   0.309   0.090  1.6291 -1.0800 -2.8746
24950SOL    HW276528   4.324   0.200   0.193 -0.9061  1.0782  0.0478
24951SOL     OW76529   3.169   5.237   0.240  0.4665 -0.3890  0.9266
24951SOL    HW176530   3.253   5.275   0.266  1.2540 -1.2519 -0.3098
24951SOL    HW276531   3.123   5.224   0.323  0.6285  2.1716  1.4531
24952SOL     OW76532   6.923   1.435   4.284 -0.0695  0.3645  0.1065
24952SOL    HW176533   6.850   1.466   4.338  0.6109  1.7106  0.2787
24952SOL    HW276534   6.919   1.340   4.291 -0.5613  0.4864  1.7973
24953SOL     OW76535   0.241   1.112   7.219 -0.0245 -0.0039  0.9906
24953SOL    HW176536   0.281   1.173   7.156  0.4392 -0.0394  1.2436
24953SOL    HW276537   0.315   1.058   7.249 -0.7270 -1.9327 -0.6281
24954SOL     OW76538   2.604   8.923   8.570 -0.6932 -0.1688 -0.0090
24954SOL    HW176539   2.645   8.992   8.623 -1.7491 -0.1943  0.8490
24954SOL    HW276540   2.530   8.966   8.527 -0.5544 -0.4416 -0.5262
24955SOL     OW76541   4.296   2.642   3.948 -0.2029 -0.8233  0.3468
24955SOL    HW176542   4.212   2.598   3.957 -0.0371 -1.3055 -0.4000
24955SOL    HW276543   4.360   2.571   3.940  0.1242 -0.4591 -0.3803
24956SOL     OW76544   4.207   1.475   3.816 -0.3067 -0.2706 -0.2025
24956SOL    HW176545   4.138   1.409   3.823  0.2003 -0.8971 -1.0929
24956SOL    HW276546   4.288   1.426   3.831  0.0109  0.3250  0.0567
24957SOL     OW76547   0.984   7.924   5.632 -0.4490  0.5574 -0.1578
24957SOL    HW176548   1.038   7.862   5.681 -0.4111 -1.0655 -2.1638
24957SOL    HW276549   1.046   7.990   5.600 -0.1196  0.3456  0.0462
24958SOL     OW76550   8.750   0.225   7.018  0.5659  0.2272 -0.2658
24958SOL    HW176551   8.799   0.256   6.942 -1.3496 -1.8968 -2.4562
24958SOL    HW276552   8.660   0.252   7.001 -0.0039 -0.8525  0.9456
24959SOL     OW76553   1.463   5.877   2.129  0.5387 -0.0508 -0.0385
24959SOL    HW176554   1.529   5.836   2.073 -0.9162 -0.7588 -1.2691
24959SOL    HW276555   1.416   5.804   2.169  0.0510  0.4341  0.2867
24960SOL     OW76556   0.702   7.033   3.995  0.1863 -0.0096 -0.1735
24960SOL    HW176557   0.706   6.962   4.059 -0.7030 -1.9243 -2.1543
24960SOL    HW276558   0.638   7.094   4.031 -0.5276 -1.2023  0.6244
24961SOL     OW76559   6.762   6.535   4.059 -0.7293 -0.4361  0.1619
24961SOL    HW176560   6.777   6.625   4.088  1.4192 -0.7178  0.0038
24961SOL    HW276561   6.704   6.498   4.125 -0.3826  0.6164  1.0729
24962SOL     OW76562   1.673   5.530   5.042  0.2391 -0.2472 -0.4675
24962SOL    HW176563   1.744   5.488   4.993 -0.1895 -1.7446  0.1390
24962SOL    HW276564   1.594   5.488   5.009 -0.0779 -1.1000  1.2886
24963SOL     OW76565   3.590   1.686   2.207 -0.6432  0.0895 -0.6463
24963SOL    HW176566   3.600   1.651   2.119 -1.2051  0.7063 -0.9607
24963SOL    HW276567   3.515   1.639   2.244  0.3729 -1.0834 -0.0261
24964SOL     OW76568   1.643   7.276   1.735  0.4741  0.0043  0.1944
24964SOL    HW176569   1.695   7.281   1.655  3.2879  0.5278  1.9740
24964SOL    HW276570   1.659   7.360   1.779 -0.4450 -0.5513  1.6122
24965SOL     OW76571   3.348   8.508   8.750 -0.4739 -0.5854  0.0854
24965SOL    HW176572   3.404   8.443   8.709  0.3570 -1.0713  1.9426
24965SOL    HW276573   3.269   8.459   8.776  0.1322 -0.8642  1.4420
24966SOL     OW76574   0.533   6.856   1.717 -0.4911  0.6990  0.4685
24966SOL    HW176575   0.566   6.864   1.806 -1.1273 -1.2313  0.8980
24966SOL    HW276576   0.610   6.865   1.662  0.1629  0.1231  1.2915
24967SOL     OW76577   4.868   0.538   6.419 -0.0432 -0.2037 -0.1663
24967SOL    HW176578   4.860   0.575   6.507 -0.3026 -0.0969 -0.2351
24967SOL    HW276579   4.939   0.588   6.379 -1.3564  1.2084 -0.7623
24968SOL     OW76580   4.126   4.267   7.254 -0.3565 -0.2684  0.6928
24968SOL    HW176581   4.094   4.357   7.262 -1.0285 -0.1640 -2.5420
24968SOL    HW276582   4.221   4.275   7.260 -0.3954  0.7106  0.0692
24969SOL     OW76583   0.910   3.178   1.214 -0.1518 -0.0286 -0.2825
24969SOL    HW176584   0.881   3.243   1.149  0.7473  1.1437  0.4541
24969SOL    HW276585   0.845   3.109   1.210 -1.0232  0.8300 -1.2508
24970SOL     OW76586   1.539   7.975   3.242  0.1050 -0.9959  0.5759
24970SOL    HW176587   1.602   7.968   3.315  0.3540  0.3958  0.5160
24970SOL    HW276588   1.523   8.069   3.234 -0.1212 -1.1617 -1.0106
24971SOL     OW76589   8.858   9.075   2.826  0.0848  0.7355  0.6069
24971SOL    HW176590   8.892   9.157   2.863  2.1357 -0.1192  0.6391
24971SOL    HW276591   8.932   9.015   2.826 -1.3785 -1.1394  0.5366
24972SOL     OW76592   5.400   2.935   0.954  0.0069  0.3534 -0.0796
24972SOL    HW176593   5.373   2.846   0.935  1.3193  0.1164 -0.8855
24972SOL    HW276594   5.336   2.967   1.018 -1.6862 -0.4474 -1.3468
24973SOL     OW76595   2.280   4.585   6.764  0.6494 -0.3602  0.2807
24973SOL    HW176596   2.365   4.581   6.808 -0.1672 -2.0603  1.7731
24973SOL    HW276597   2.301   4.601   6.672  2.5844 -0.5744  0.6658
24974SOL     OW76598   3.209   6.394   2.807  0.0885 -0.4269 -0.0271
24974SOL    HW176599   3.240   6.400   2.897 -1.8884  0.7648  0.6027
24974SOL    HW276600   3.281   6.430   2.755 -0.0457  2.0097  1.3830
24975SOL     OW76601   3.286   1.202   6.772  0.1697  0.5771  0.0837
24975SOL    HW176602   3.249   1.121   6.806  3.2546 -1.7598 -1.8151
24975SOL    HW276603   3.244   1.214   6.687 -0.9878  1.5208  0.7787
24976SOL     OW76604   4.291   4.445   6.905  0.1458  0.4504 -0.3894
24976SOL    HW176605   4.328   4.483   6.825 -1.1134  0.5550 -0.9391
24976SOL    HW276606   4.212   4.497   6.922  0.2994  0.2994  0.8053
24977SOL     OW76607   1.195   5.736   5.646 -0.5614  0.2091 -0.2293
24977SOL    HW176608   1.166   5.646   5.632 -0.1138 -0.0567  0.4876
24977SOL    HW276609   1.114   5.787   5.650 -0.9908 -0.5630  1.9904
24978SOL     OW76610   5.840   8.113   0.149  0.1490  0.2009  0.1599
24978SOL    HW176611   5.886   8.034   0.121 -1.2467 -1.1410  1.5284
24978SOL    HW276612   5.897   8.185   0.121  2.1153 -1.3214  0.0880
24979SOL     OW76613   8.103   1.009   4.527  0.0935 -0.3073  0.6595
24979SOL    HW176614   8.016   0.970   4.516  1.1952 -2.3751 -1.0899
24979SOL    HW276615   8.159   0.960   4.467  2.7592  0.0688  2.7629
24980SOL     OW76616   6.233   1.373   6.255  0.3472 -0.1259  0.5405
24980SOL    HW176617   6.150   1.326   6.250 -0.9781  2.1461  0.4071
24980SOL    HW276618   6.247   1.385   6.349  0.0475  0.3166  0.5277
24981SOL     OW76619   4.964   1.716   7.041 -0.0713 -0.0922  0.5202
24981SOL    HW176620   4.883   1.758   7.012 -0.1606 -0.1807  0.6384
24981SOL    HW276621   4.956   1.711   7.136  0.0916 -0.0646  0.5366
24982SOL     OW76622   3.735   7.142   0.613  0.0275  0.1010  0.1107
24982SOL    HW176623   3.720   7.109   0.524 -1.3615  0.4368  0.2074
24982SOL    HW276624   3.830   7.147   0.621  0.2007 -1.5308 -0.7680
24983SOL     OW76625   0.910   5.397   7.181 -0.3140 -0.1439 -0.4601
24983SOL    HW176626   0.841   5.462   7.168 -1.3060 -0.8516  1.0988
24983SOL    HW276627   0.867   5.324   7.225  1.5609 -0.3281  1.1482
24984SOL     OW76628   4.133   8.276   7.419 -0.6842  0.9510 -0.1009
24984SOL    HW176629   4.132   8.181   7.403  0.4539  0.8948  0.1161
24984SOL    HW276630   4.166   8.314   7.338 -1.7724  1.2168 -0.4205
24985SOL     OW76631   2.163   7.335   6.018  0.4640  0.7731 -0.7234
24985SOL    HW176632   2.242   7.304   5.975  0.3325 -0.7552  0.1071
24985SOL    HW276633   2.185   7.338   6.111 -0.0118  1.7110 -0.6322
24986SOL     OW76634   5.065   2.522   3.587  0.0147 -0.3389 -0.8136
24986SOL    HW176635   5.137   2.496   3.644  0.2793 -1.6636 -1.7251
24986SOL    HW276636   5.107   2.573   3.518 -0.1632  0.3920 -0.3813
24987SOL     OW76637   2.609   3.615   6.684 -0.0438 -0.9127  0.3327
24987SOL    HW176638   2.578   3.620   6.593  0.7192  0.6769  0.1431
24987SOL    HW276639   2.529   3.615   6.737 -0.5121 -2.5761 -0.3587
24988SOL     OW76640   5.762   5.589   1.013 -0.1035  0.1917  0.2016
24988SOL    HW176641   5.771   5.495   1.029  0.7731  0.0330 -1.0793
24988SOL    HW276642   5.729   5.595   0.923 -2.3447  1.0765  1.0603
24989SOL     OW76643   6.176   1.229   7.469  0.5279 -0.6665  0.2449
24989SOL    HW176644   6.094   1.187   7.443 -0.4803  1.1979  0.3066
24989SOL    HW276645   6.243   1.184   7.418 -0.7766 -0.8150 -1.4014
24990SOL     OW76646   8.542   2.406   2.774 -0.5419 -0.2780 -0.1875
24990SOL    HW176647   8.447   2.406   2.783 -0.4416  0.7854  0.9202
24990SOL    HW276648   8.559   2.461   2.697 -0.8173 -0.4274 -0.3549
24991SOL     OW76649   8.857   5.834   5.812  0.1555 -0.3957 -0.3461
24991SOL    HW176650   8.795   5.779   5.765 -0.2789  0.0343 -0.2917
24991SOL    HW276651   8.942   5.815   5.773 -0.4126  1.1468 -2.4476
24992SOL     OW76652   2.692   3.948   2.709  0.1054 -0.0876  0.2455
24992SOL    HW176653   2.776   3.951   2.755  0.6343 -0.6696 -0.6625
24992SOL    HW276654   2.652   4.033   2.727  1.0979  0.3749  0.3063
24993SOL     OW76655   0.780   0.657   8.329  0.1641  0.5365 -0.6377
24993SOL    HW176656   0.817   0.587   8.275  0.1516  0.0783 -0.0483
24993SOL    HW276657   0.689   0.631   8.343 -0.2145  1.3391 -1.5389
24994SOL     OW76658   8.391   6.657   6.458 -0.1101 -0.2123 -0.4239
24994SOL    HW176659   8.309   6.639   6.503  0.2458  1.4949  1.0032
24994SOL    HW276660   8.365   6.700   6.377 -0.6104  2.9738  1.3314
24995SOL     OW76661   3.688   4.967   7.806  0.2427  0.4060  0.0665
24995SOL    HW176662   3.672   4.915   7.884 -1.5638  0.2730 -0.3551
24995SOL    HW276663   3.770   4.933   7.770  1.0641  0.4359  1.8536
24996SOL     OW76664   7.846   0.044   0.005 -0.2001 -0.1023 -0.3099
24996SOL    HW176665   7.913   0.016   0.068  0.5980 -0.3768 -1.2716
24996SOL    HW276666   7.799   0.114   0.050  1.1109  0.4936  0.1648
24997SOL     OW76667   0.660   7.397   0.550 -0.0036 -0.1655 -0.0057
24997SOL    HW176668   0.677   7.465   0.614 -0.4207  0.8384 -0.9432
24997SOL    HW276669   0.708   7.321   0.582  2.1666  1.1534  0.0056
24998SOL     OW76670   5.234   2.677   2.808 -0.0058  0.3610  0.5799
24998SOL    HW176671   5.206   2.711   2.893 -3.6982 -0.6060 -0.1667
24998SOL    HW276672   5.196   2.589   2.804  0.3321  0.3100 -1.9600
24999SOL     OW76673   3.963   4.891   2.523  0.2996 -0.6524  0.1710
24999SOL    HW176674   3.949   4.940   2.604 -1.1241 -0.3674 -0.2268
24999SOL    HW276675   3.988   4.957   2.459  1.9338 -0.9492  0.4936
25000SOL     OW76676   4.141   5.585   3.417 -0.0123  0.0610 -0.0992
25000SOL    HW176677   4.192   5.514   3.378  2.3212  1.3857  0.4259
25000SOL    HW276678   4.065   5.541   3.455  1.2128 -2.1310 -0.0580
25001SOL     OW76679   8.287   9.116   8.820 -0.0772 -0.0569 -0.2580
25001SOL    HW176680   8.350   9.127   8.892 -0.8720  0.6278  0.3415
25001SOL    HW276681   8.234   9.195   8.823 -1.3543 -0.9022 -0.3785
25002SOL     OW76682   8.624   6.182   5.063 -0.0432 -0.8992  0.0074
25002SOL    HW176683   8.533   6.183   5.034 -0.1974  0.0556  0.4867
25002SOL    HW276684   8.670   6.239   5.002  0.0764 -0.7646  0.2197
25003SOL     OW76685   5.979   6.686   4.170  0.1661  0.6123 -0.2252
25003SOL    HW176686   6.069   6.653   4.174  0.8216  2.4923  2.1021
25003SOL    HW276687   5.981   6.753   4.101  0.5353  0.5680 -0.2616
25004SOL     OW76688   5.053   6.607   3.229  0.1133  0.3283  0.3464
25004SOL    HW176689   5.115   6.593   3.301 -0.8541 -0.5436  1.0281
25004SOL    HW276690   4.973   6.638   3.272  0.4349  2.6013 -0.6336
25005SOL     OW76691   2.263   0.607   5.654  0.4834 -0.2780 -0.3955
25005SOL    HW176692   2.304   0.637   5.736 -0.8710 -3.2213  1.4375
25005SOL    HW276693   2.171   0.633   5.663  0.5599  0.3828 -1.4956
25006SOL     OW76694   3.881   4.576   6.822 -0.0977 -0.6504  0.2751
25006SOL    HW176695   3.814   4.640   6.796  0.3496 -0.6036 -0.8048
25006SOL    HW276696   3.840   4.525   6.892 -0.3267  1.0548  1.4130
25007SOL     OW76697   7.231   3.347   8.759 -0.1601  0.1209  0.0321
25007SOL    HW176698   7.178   3.314   8.686 -0.2335 -0.5907  0.4016
25007SOL    HW276699   7.254   3.269   8.809  1.9773  0.3358 -0.5902
25008SOL     OW76700   3.623   5.902   0.028 -0.2712 -0.1370  0.1050
25008SOL    HW176701   3.538   5.873  -0.006  0.1201 -0.7093 -0.3918
25008SOL    HW276702   3.682   5.898  -0.047  0.2676 -0.0260  0.5175
25009SOL     OW76703   0.411   4.294   6.396 -0.1195 -0.0250  0.6946
25009SOL    HW176704   0.324   4.332   6.387  0.5333  1.7491  1.6852
25009SOL    HW276705   0.411   4.253   6.482 -0.1418 -0.4511  0.4908
25010SOL     OW76706   5.883   5.533   6.102  0.2746 -0.0239 -0.3429
25010SOL    HW176707   5.917   5.620   6.125 -1.0333  0.7623 -1.2952
25010SOL    HW276708   5.848   5.544   6.013 -0.5113 -1.3455 -0.2044
25011SOL     OW76709   1.480   6.248   5.298 -0.1283 -0.1570  0.1614
25011SOL    HW176710   1.475   6.220   5.389 -1.1832 -1.0498 -0.1690
25011SOL    HW276711   1.567   6.221   5.269  0.7857  1.4306  1.3164
25012SOL     OW76712   6.726   3.789   9.252 -0.0914  0.1315 -0.3442
25012SOL    HW176713   6.691   3.704   9.280  2.2667 -0.3407  1.4061
25012SOL    HW276714   6.654   3.850   9.263 -0.7614 -1.0128  1.8501
25013SOL     OW76715   2.543   6.847   3.053  0.1468 -0.2789 -0.4046
25013SOL    HW176716   2.447   6.840   3.059  0.2027 -0.6910 -0.0373
25013SOL    HW276717   2.575   6.762   3.083  0.6262 -0.1809 -0.6406
25014SOL     OW76718   9.183   6.088   1.464 -0.2532 -0.2130 -0.4275
25014SOL    HW176719   9.222   6.007   1.430  1.1366 -0.3507  1.4085
25014SOL    HW276720   9.258   6.147   1.477 -0.8634  0.2281  1.2664
25015SOL     OW76721   4.956   3.380   5.279 -0.0574 -0.3632  0.2819
25015SOL    HW176722   4.992   3.311   5.224 -1.4957 -1.0948  0.2215
25015SOL    HW276723   5.032   3.428   5.311  0.9340 -1.6339 -0.1319
25016SOL     OW76724   5.943   6.692   0.381  0.3809  0.4705 -0.3278
25016SOL    HW176725   5.967   6.638   0.306 -0.8337 -0.0546 -0.3431
25016SOL    HW276726   5.890   6.635   0.436  0.7972  1.0310  0.6593
25017SOL     OW76727   8.859   4.027   7.350  0.7558 -0.0994  0.3225
25017SOL    HW176728   8.895   3.977   7.276  0.7588  0.2343  0.0991
25017SOL    HW276729   8.777   3.981   7.371  0.6033 -0.0167 -0.0817
25018SOL     OW76730   6.175   8.820   0.287 -0.0201  0.2946  0.4266
25018SOL    HW176731   6.232   8.747   0.310 -0.7618 -0.4990 -0.2300
25018SOL    HW276732   6.231   8.880   0.239  0.9072  0.7615  2.0430
25019SOL     OW76733   4.035   1.020   0.919  0.5325  0.8215 -0.3152
25019SOL    HW176734   3.994   0.936   0.900  1.7524  0.1520 -0.0475
25019SOL    HW276735   4.084   1.005   1.000  0.7658  1.7858 -0.2687
25020SOL     OW76736   5.511   2.516   7.970 -0.2878  0.0214 -0.5034
25020SOL    HW176737   5.460   2.469   7.904  0.0883 -0.8068 -0.2223
25020SOL    HW276738   5.449   2.533   8.041 -0.0788 -1.4816  0.0825
25021SOL     OW76739   6.116   2.528   8.195 -0.1231 -0.6509 -0.1780
25021SOL    HW176740   6.108   2.476   8.275  0.5913  1.1651  1.1068
25021SOL    HW276741   6.175   2.478   8.139  0.0998 -1.4950  0.8026
25022SOL     OW76742   3.128   6.261   2.587  0.0088  0.2544  0.6095
25022SOL    HW176743   3.082   6.326   2.534  0.2528  0.3446  0.5049
25022SOL    HW276744   3.165   6.312   2.659  0.8584  0.3628  0.1035
25023SOL     OW76745   4.773   5.344   9.158 -0.0511  0.2608 -0.0408
25023SOL    HW176746   4.782   5.372   9.067 -1.6120 -3.6193 -1.5217
25023SOL    HW276747   4.863   5.343   9.192  0.4608  2.5901 -1.2406
25024SOL     OW76748   4.944   6.960   4.775 -0.1541 -0.2950  0.1156
25024SOL    HW176749   4.899   6.998   4.699 -1.5806  0.2098  1.1812
25024SOL    HW276750   4.970   7.036   4.827 -1.8724 -0.6938  1.6189
25025SOL     OW76751   7.617   2.829   5.239  0.3337  0.4872  0.3013
25025SOL    HW176752   7.672   2.755   5.265 -0.2793  0.2277  0.8879
25025SOL    HW276753   7.527   2.798   5.252  0.0609  1.1154 -0.0531
25026SOL     OW76754   5.979   4.072   2.213 -0.1458 -0.6868 -0.2683
25026SOL    HW176755   5.896   4.113   2.192  0.7252  0.9644 -0.5772
25026SOL    HW276756   6.010   4.036   2.130  0.0010 -0.2773 -0.3902
25027SOL     OW76757   6.356   7.947   3.831 -0.0276  0.5212  0.2690
25027SOL    HW176758   6.275   7.929   3.783  0.5746  1.2704 -1.0641
25027SOL    HW276759   6.340   8.032   3.872  0.0889  0.6722  0.0006
25028SOL     OW76760   8.420   7.166   2.093 -0.0539 -0.2864  0.2445
25028SOL    HW176761   8.395   7.085   2.138 -1.3200  0.6553  1.3034
25028SOL    HW276762   8.507   7.186   2.126 -1.4438  1.0463  3.3270
25029SOL     OW76763   3.769   1.175   6.505 -0.3988 -0.5222  0.0749
25029SOL    HW176764   3.814   1.209   6.582 -0.1842  0.2912 -0.3978
25029SOL    HW276765   3.835   1.176   6.436 -0.9985  0.2302 -0.5074
25030SOL     OW76766   3.487   5.395   5.089  0.7084 -0.4428  0.2611
25030SOL    HW176767   3.460   5.438   5.008  1.0564  2.9138  1.8603
25030SOL    HW276768   3.563   5.342   5.063  1.4800  1.4300 -1.4183
25031SOL     OW76769   9.033   3.203   8.519 -0.4492  0.0462  0.7395
25031SOL    HW176770   9.011   3.212   8.612 -0.6703 -0.5199  0.7433
25031SOL    HW276771   9.107   3.143   8.517 -0.4579  0.0395  0.5472
25032SOL     OW76772   0.411   1.295   1.708  0.1087 -0.3387  0.3459
25032SOL    HW176773   0.349   1.228   1.681  0.2154 -0.0563 -0.6035
25032SOL    HW276774   0.412   1.359   1.636 -1.1077  1.4548  1.8791
25033SOL     OW76775   3.041   8.369   1.763 -0.2124 -0.7516 -0.0482
25033SOL    HW176776   2.991   8.422   1.701  0.5006  1.7442  1.4580
25033SOL    HW276777   3.054   8.285   1.718 -0.2337  0.7879 -3.0337
25034SOL     OW76778   2.270   6.791   0.339  0.2855  0.4382  0.6320
25034SOL    HW176779   2.276   6.781   0.434  1.7582  1.4859  0.6607
25034SOL    HW276780   2.356   6.764   0.306 -0.0199  0.6422 -0.3488
25035SOL     OW76781   4.664   2.271   0.906  0.2129 -0.2414  0.2176
25035SOL    HW176782   4.685   2.182   0.934  1.1716  0.3152  1.2999
25035SOL    HW276783   4.748   2.311   0.885 -0.2017  0.4473 -0.1942
25036SOL     OW76784   4.855   2.517   8.777  0.9412  0.2805 -0.2546
25036SOL    HW176785   4.849   2.478   8.865  0.3804  2.2799  0.6231
25036SOL    HW276786   4.949   2.523   8.760  1.0485 -0.5347  0.0004
25037SOL     OW76787   7.145   5.186   0.341 -0.0289 -0.4996 -0.2485
25037SOL    HW176788   7.238   5.161   0.347 -0.0851 -0.3360  1.4857
25037SOL    HW276789   7.146   5.273   0.302  0.4379 -1.1370 -1.7269
25038SOL     OW76790   7.408   4.384   2.991  0.2766  0.3254  0.0550
25038SOL    HW176791   7.420   4.365   3.084  1.6622  0.0336 -0.1721
25038SOL    HW276792   7.395   4.479   2.987 -3.7073 -0.1050  0.9002
25039SOL     OW76793   1.015   3.164   9.214 -0.4715 -0.1411 -0.0556
25039SOL    HW176794   1.038   3.217   9.290 -1.9977  0.2951  0.1177
25039SOL    HW276795   1.093   3.113   9.196  0.2826  0.5711  1.1217
25040SOL     OW76796   2.056   5.320   0.401 -0.5414  0.3951 -0.0971
25040SOL    HW176797   1.985   5.369   0.442 -0.0267  0.6389  0.5089
25040SOL    HW276798   2.109   5.388   0.359 -0.5919  0.2244 -0.4359
25041SOL     OW76799   8.795   2.978   0.344  0.8192  0.4034 -0.2935
25041SOL    HW176800   8.850   2.903   0.367 -2.2438 -1.5188  1.0987
25041SOL    HW276801   8.744   2.996   0.423 -0.6823  1.9871 -1.5652
25042SOL     OW76802   0.387   2.830   9.131  0.1590  0.1808  0.4430
25042SOL    HW176803   0.482   2.816   9.128  0.4222  1.8444  0.5865
25042SOL    HW276804   0.355   2.798   9.047  0.7101 -1.3611  0.8112
25043SOL     OW76805   4.696   7.662   8.961  0.0777  0.6237 -0.0094
25043SOL    HW176806   4.790   7.642   8.960  0.5750  2.6490  1.7761
25043SOL    HW276807   4.683   7.710   9.043 -2.5171  0.4245 -0.2714
25044SOL     OW76808   2.177   0.567   6.051 -0.2194 -0.3173 -0.0294
25044SOL    HW176809   2.161   0.472   6.048 -2.2651  0.0169 -0.7429
25044SOL    HW276810   2.205   0.589   5.962  0.0707 -0.2256  0.0860
25045SOL     OW76811   4.042   5.585   6.008 -0.1081  0.6037 -0.1546
25045SOL    HW176812   4.062   5.629   6.090 -0.8282 -0.1000  0.4057
25045SOL    HW276813   4.057   5.652   5.940  0.3418  1.2254  0.5567
25046SOL     OW76814   1.586   3.828   3.880 -0.0832  0.4112  0.1805
25046SOL    HW176815   1.560   3.801   3.792  1.6252 -1.4774  0.2044
25046SOL    HW276816   1.679   3.807   3.885 -0.0907  0.7543  2.3366
25047SOL     OW76817   3.827   0.164   6.559  0.0075  0.5123  0.3357
25047SOL    HW176818   3.733   0.164   6.543 -0.2443  1.0440  1.7769
25047SOL    HW276819   3.838   0.212   6.641  1.5142  0.2621  0.3006
25048SOL     OW76820   0.547   7.704   8.766  0.3787  0.2700  0.2602
25048SOL    HW176821   0.491   7.627   8.771 -1.5562  1.3975 -2.4476
25048SOL    HW276822   0.499   7.772   8.814  1.5705  0.0968  1.7280
25049SOL     OW76823   6.890   8.729   1.375 -0.3352 -0.3148  0.1283
25049SOL    HW176824   6.836   8.673   1.318 -1.1200  1.4111 -0.8538
25049SOL    HW276825   6.961   8.758   1.319 -0.5654  0.5902  0.3004
25050SOL     OW76826   6.485   6.815   1.272  0.1280 -0.0752 -0.3394
25050SOL    HW176827   6.547   6.744   1.255  0.3463 -0.1197  0.6229
25050SOL    HW276828   6.540   6.889   1.298 -0.0720  0.5576 -1.6581
25051SOL     OW76829   2.236   4.051   2.442 -0.3490 -0.2078 -0.2261
25051SOL    HW176830   2.238   4.140   2.477  1.0327  0.2118 -1.2932
25051SOL    HW276831   2.300   4.004   2.495 -0.2968 -0.2836 -0.3571
25052SOL     OW76832   6.092   7.297   1.923 -0.1537  0.4014 -0.1298
25052SOL    HW176833   6.141   7.271   2.000  0.6211 -0.1381 -0.8001
25052SOL    HW276834   6.127   7.243   1.852 -2.2699 -0.5846 -0.4570
25053SOL     OW76835   8.833   6.119   7.559 -0.2792 -0.5591  0.0936
25053SOL    HW176836   8.843   6.149   7.650 -3.0289 -2.8412  1.2088
25053SOL    HW276837   8.757   6.167   7.526 -2.0403 -3.0245  0.4878
25054SOL     OW76838   2.998   4.193   3.989  0.1101  0.5086  0.0307
25054SOL    HW176839   2.906   4.220   3.981  0.1386  0.2921 -1.0860
25054SOL    HW276840   2.994   4.101   4.013  0.0327  0.5130  0.0373
25055SOL     OW76841   2.652   3.358   8.940  0.2959  0.3023 -0.0673
25055SOL    HW176842   2.639   3.327   8.851  1.3125  1.3403 -0.5887
25055SOL    HW276843   2.671   3.280   8.991 -2.2983 -0.5651 -0.3502
25056SOL     OW76844   4.280   3.033   2.827 -0.0294  0.2280 -0.1955
25056SOL    HW176845   4.359   3.082   2.805 -0.3441  0.2476 -1.2779
25056SOL    HW276846   4.212   3.099   2.840 -0.2653  0.1183 -0.8833
25057SOL     OW76847   3.332   2.441   0.710  0.2821 -0.1384 -0.2386
25057SOL    HW176848   3.271   2.372   0.736  0.3415 -0.1694 -0.1791
25057SOL    HW276849   3.346   2.426   0.617 -0.5128  0.4353 -0.4500
25058SOL     OW76850   9.086   7.012   6.513  0.4135  0.1249 -0.3592
25058SOL    HW176851   9.053   7.072   6.581 -2.1990 -2.4667  0.7549
25058SOL    HW276852   9.180   7.026   6.514  0.2801  1.3558  2.6695
25059SOL     OW76853   2.067   4.366   0.267  0.1861  0.1507 -0.1154
25059SOL    HW176854   2.015   4.348   0.189 -0.3310  0.8721  0.0565
25059SOL    HW276855   2.091   4.459   0.259  4.2857 -0.9621 -1.8824
25060SOL     OW76856   8.936   8.348   4.528 -0.4995 -0.4624  0.2902
25060SOL    HW176857   8.905   8.421   4.581 -0.9213 -1.5918  1.6159
25060SOL    HW276858   9.007   8.385   4.475  1.2761  0.2483  3.0468
25061SOL     OW76859   2.606   8.437   6.409 -0.1701 -0.1235 -0.5685
25061SOL    HW176860   2.514   8.426   6.432 -0.1914  1.0951 -0.0560
25061SOL    HW276861   2.621   8.374   6.339 -0.4866 -2.9047  1.7606
25062SOL     OW76862   0.804   2.033   2.517 -1.0824 -0.1268 -0.0359
25062SOL    HW176863   0.853   2.086   2.580 -1.8802 -0.6500  1.0392
25062SOL    HW276864   0.871   1.980   2.473 -0.3818  1.1220 -0.5088
25063SOL     OW76865   8.386   2.304   7.604  0.5802  0.3164  0.2421
25063SOL    HW176866   8.341   2.312   7.520  0.3432  0.7859  0.4154
25063SOL    HW276867   8.366   2.385   7.650 -1.9700 -1.2761  2.0700
25064SOL     OW76868   4.721   6.334   1.985  0.1280 -0.0022  0.3735
25064SOL    HW176869   4.648   6.377   2.030  1.2216  1.9920  0.2861
25064SOL    HW276870   4.777   6.301   2.055  0.5070  0.8329  0.4698
25065SOL     OW76871   2.503   3.028   1.063 -0.0612 -0.0960  0.1835
25065SOL    HW176872   2.407   3.022   1.057 -0.1683 -0.0148  1.5769
25065SOL    HW276873   2.519   3.114   1.102  0.6220  0.3065 -0.9819
25066SOL     OW76874   4.979   2.041   7.169  0.0602 -0.3953  0.1590
25066SOL    HW176875   4.886   2.062   7.176  0.0626 -0.1422 -0.5308
25066SOL    HW276876   5.015   2.059   7.256 -0.5253 -0.4620  0.4157
25067SOL     OW76877   4.314   4.151   6.265 -0.2603  0.1843  0.2802
25067SOL    HW176878   4.386   4.212   6.282  0.2183 -0.2749 -0.0420
25067SOL    HW276879   4.290   4.117   6.351  1.5739 -1.4920  0.1728
25068SOL     OW76880   5.634   1.326   0.506  0.0109 -0.0552 -0.3800
25068SOL    HW176881   5.550   1.287   0.530 -0.9208  2.5680  0.8478
25068SOL    HW276882   5.695   1.252   0.502 -2.0123 -1.8081  0.2160
25069SOL     OW76883   3.309   1.503   7.606 -0.0520 -0.1101 -0.2923
25069SOL    HW176884   3.277   1.576   7.659 -1.5112 -0.3748 -0.7852
25069SOL    HW276885   3.359   1.449   7.667  3.5022  2.7441 -0.5176
25070SOL     OW76886   3.093   5.737   1.424 -0.4495 -0.6092  0.1512
25070SOL    HW176887   3.167   5.732   1.363 -1.0123 -0.3249 -0.5640
25070SOL    HW276888   3.096   5.654   1.472  0.9561 -0.1633  0.8592
25071SOL     OW76889   3.688   2.745   0.831  0.0667 -0.3190 -0.3854
25071SOL    HW176890   3.659   2.670   0.780  0.0871 -1.3508  1.0824
25071SOL    HW276891   3.652   2.731   0.919 -1.1804  2.1378 -0.4539
25072SOL     OW76892   1.038   6.635   3.740 -0.3590  0.0303 -0.3253
25072SOL    HW176893   0.961   6.616   3.686  0.1839 -0.3235 -0.9744
25072SOL    HW276894   1.105   6.574   3.710  0.8253  1.7084 -1.1936
25073SOL     OW76895   7.709   1.558   5.642  0.1662 -0.5261 -0.3262
25073SOL    HW176896   7.645   1.630   5.639  1.2422  0.5326  1.2524
25073SOL    HW276897   7.768   1.576   5.569 -0.8027 -1.0181 -1.2526
25074SOL     OW76898   8.499   5.018   2.937 -0.3733  0.8506 -0.0801
25074SOL    HW176899   8.524   5.088   2.877  0.0437  0.9392  0.2035
25074SOL    HW276900   8.453   5.062   3.008  0.2794  0.8860  0.3225
25075SOL     OW76901   2.780   7.891   4.724 -0.5721  0.0715  0.1253
25075SOL    HW176902   2.811   7.872   4.636  0.9310 -0.7473  0.7945
25075SOL    HW276903   2.738   7.977   4.717 -2.1151 -0.8054 -1.7342
25076SOL     OW76904   0.383   7.451   4.549 -0.0522  0.0689 -0.2277
25076SOL    HW176905   0.321   7.503   4.497  0.5388  1.0172  0.0169
25076SOL    HW276906   0.341   7.365   4.557 -1.3084  0.6958 -0.1042
25077SOL     OW76907   6.977   8.915   0.386  0.4293  0.3487 -0.2005
25077SOL    HW176908   6.918   8.924   0.461 -0.1651 -0.6418 -0.5453
25077SOL    HW276909   6.934   8.964   0.316  0.4560  0.3715 -0.2010
25078SOL     OW76910   6.687   1.040   4.444  0.7047 -0.0979  0.0906
25078SOL    HW176911   6.732   0.956   4.456 -1.5072 -1.3191  0.0452
25078SOL    HW276912   6.663   1.066   4.533 -0.2717 -0.4511 -0.0702
25079SOL     OW76913   2.049   9.085   6.532 -0.2664  0.2180  0.1781
25079SOL    HW176914   2.099   9.017   6.575 -0.0222 -0.7349 -1.5593
25079SOL    HW276915   1.969   9.041   6.501 -0.5435  0.9179 -0.1214
25080SOL     OW76916   8.825   3.680   4.759  0.0688 -0.1844 -0.0574
25080SOL    HW176917   8.899   3.641   4.805  1.2356  0.5997 -1.2490
25080SOL    HW276918   8.798   3.613   4.696  0.9676  0.2520 -0.9129
25081SOL     OW76919   8.392   5.815   8.873 -0.4630 -0.2615 -0.4598
25081SOL    HW176920   8.349   5.901   8.874  0.7006  0.3572 -1.2776
25081SOL    HW276921   8.449   5.816   8.949 -1.7901 -1.0428  0.5664
25082SOL     OW76922   2.376   9.030   7.281 -0.5767  0.1901  0.2221
25082SOL    HW176923   2.445   8.970   7.251 -1.3570 -1.5473  1.8587
25082SOL    HW276924   2.419   9.083   7.348 -0.7651 -0.7837  1.1278
25083SOL     OW76925   4.832   6.061   4.489 -0.0793  0.1864 -0.4662
25083SOL    HW176926   4.797   6.140   4.529  2.5931  0.9496  0.4967
25083SOL    HW276927   4.837   6.082   4.395 -0.4523  0.7401 -0.3622
25084SOL     OW76928   2.113   2.014   1.891 -0.3803  0.1843  0.1896
25084SOL    HW176929   2.157   2.096   1.915 -0.9421  0.6818 -0.5067
25084SOL    HW276930   2.040   2.040   1.836  1.1453 -0.9876 -2.4715
25085SOL     OW76931   4.560   0.225   1.868 -0.1492 -0.3410  0.0539
25085SOL    HW176932   4.518   0.271   1.795 -1.6542  1.1498  1.8054
25085SOL    HW276933   4.502   0.152   1.887  0.1933 -0.6726 -0.1704
25086SOL     OW76934   4.920   7.938   4.319 -0.2164  0.2921 -0.1153
25086SOL    HW176935   4.863   7.869   4.354  1.3004 -0.0337  1.8236
25086SOL    HW276936   4.889   8.018   4.362  1.7923 -0.1427  2.2515
25087SOL     OW76937   7.450   5.991   1.477 -0.1710 -0.4631  0.0729
25087SOL    HW176938   7.435   6.086   1.476  1.3054 -0.2327 -1.7055
25087SOL    HW276939   7.525   5.980   1.536  0.4161 -0.3863 -0.6457
25088SOL     OW76940   3.296   7.132   6.165 -0.1830  0.3178  0.2122
25088SOL    HW176941   3.267   7.112   6.254  0.1123  0.5663  0.3644
25088SOL    HW276942   3.244   7.208   6.140  1.5050  1.8029  1.1067
25089SOL     OW76943   4.257   9.294   6.143  0.6218 -0.2712 -0.4859
25089SOL    HW176944   4.170   9.308   6.178  0.6836  0.3880 -0.5906
25089SOL    HW276945   4.285   9.210   6.180  1.0415  0.8127  1.7479
25090SOL     OW76946   4.219   1.483   6.742 -0.4947 -0.3163 -0.2242
25090SOL    HW176947   4.314   1.489   6.755 -0.6567 -0.4781  1.0643
25090SOL    HW276948   4.186   1.443   6.822 -1.5289 -1.3506 -1.1543
25091SOL     OW76949   8.902   0.861   0.822  0.0848  0.7975  0.5004
25091SOL    HW176950   8.914   0.952   0.794 -2.1549  0.8112 -0.5191
25091SOL    HW276951   8.845   0.823   0.756  1.8195 -1.6856  0.3426
25092SOL     OW76952   1.411   5.175   3.693  0.2588  0.6010  0.1565
25092SOL    HW176953   1.462   5.105   3.735  0.4986  0.7779  0.1646
25092SOL    HW276954   1.477   5.239   3.667  0.0458  0.7873  0.0786
25093SOL     OW76955   1.199   5.369   5.146 -0.4824  0.0855 -0.0359
25093SOL    HW176956   1.242   5.453   5.128 -2.7648  1.9691  2.7369
25093SOL    HW276957   1.243   5.336   5.224 -2.2104  0.7765  1.2931
25094SOL     OW76958   7.325   4.490   0.793 -0.5525 -0.4907 -0.1682
25094SOL    HW176959   7.259   4.542   0.747 -0.7571 -1.0906 -0.5500
25094SOL    HW276960   7.387   4.555   0.828 -1.0310  0.0336 -0.2954
25095SOL     OW76961   4.098   0.675   1.947 -0.3878 -0.6588  0.3557
25095SOL    HW176962   4.133   0.755   1.986 -2.7390  1.0217 -0.8300
25095SOL    HW276963   4.070   0.622   2.022 -1.2534  0.8020  1.0786
25096SOL     OW76964   0.847   8.504   4.590 -0.0268  0.1461 -0.2003
25096SOL    HW176965   0.808   8.573   4.644 -0.2576  0.2794 -0.5353
25096SOL    HW276966   0.941   8.522   4.593 -0.1899  1.3806 -1.4878
25097SOL     OW76967   8.556   1.869   2.322 -0.0940 -0.4582 -0.2131
25097SOL    HW176968   8.531   1.897   2.410  0.3777 -0.8819  0.0661
25097SOL    HW276969   8.609   1.790   2.337  1.2985  0.3622 -0.7907
25098SOL     OW76970   7.665   4.086   0.667 -0.1935 -0.3186  0.6910
25098SOL    HW176971   7.571   4.105   0.667 -0.1112  0.1060  1.3306
25098SOL    HW276972   7.670   3.991   0.672 -0.5935 -0.3661  0.2009
25099SOL     OW76973   3.009   6.683   7.563  0.2660 -0.0943 -0.2518
25099SOL    HW176974   3.057   6.741   7.622 -0.6354  0.8823 -0.4555
25099SOL    HW276975   3.077   6.636   7.515  1.0572  2.0594 -1.3185
25100SOL     OW76976   9.076   1.438   2.390  0.4083  0.0191 -0.0858
25100SOL    HW176977   9.133   1.514   2.404  2.7147 -1.6092 -0.2796
25100SOL    HW276978   9.117   1.391   2.317 -1.8917 -0.5750 -1.0392
25101SOL     OW76979   5.791   4.007   7.367 -0.0409 -0.0128  0.2152
25101SOL    HW176980   5.749   3.930   7.405 -0.3520 -0.3862 -0.8489
25101SOL    HW276981   5.876   4.012   7.409 -0.7177  0.0896  1.5798
25102SOL     OW76982   2.727   7.949   0.563 -0.7042  0.2309  0.6195
25102SOL    HW176983   2.773   7.868   0.544 -1.5257 -0.4358  1.4192
25102SOL    HW276984   2.743   8.005   0.487  1.2447 -0.0573  0.8125
25103SOL     OW76985   2.605   0.350   4.945  0.4017 -0.2249  0.1438
25103SOL    HW176986   2.516   0.357   4.979  0.2346 -0.2758 -0.2763
25103SOL    HW276987   2.644   0.435   4.963  0.2214 -0.1511  0.1917
25104SOL     OW76988   4.324   5.271   8.527  0.1422  0.0070 -0.0895
25104SOL    HW176989   4.298   5.302   8.440  1.2636 -0.7522 -0.6939
25104SOL    HW276990   4.262   5.314   8.587  0.3286  1.7201 -1.1147
25105SOL     OW76991   8.910   7.140   1.928 -0.3208 -0.0536  0.6736
25105SOL    HW176992   8.958   7.078   1.983  3.0309 -0.0677 -2.0881
25105SOL    HW276993   8.960   7.222   1.936 -1.0152  0.5056 -0.6772
25106SOL     OW76994   4.816   3.280   1.373  0.0895  0.0178 -0.2356
25106SOL    HW176995   4.727   3.287   1.407  1.2414 -0.3713  3.0340
25106SOL    HW276996   4.854   3.366   1.387  0.4930 -0.0673 -0.7983
25107SOL     OW76997   6.368   3.255   1.393 -0.2622  0.2631 -0.1270
25107SOL    HW176998   6.322   3.233   1.474 -0.9827  0.0610 -0.5798
25107SOL    HW276999   6.363   3.351   1.388  0.2524  0.3124  0.3377
25108SOL     OW77000   6.578   7.789   2.808  0.0480 -0.0258  0.4511
25108SOL    HW177001   6.595   7.758   2.897 -0.4463 -1.6123 -0.0038
25108SOL    HW277002   6.491   7.756   2.786 -0.4960  1.6921 -0.0503
25109SOL     OW77003   6.485   0.723   5.910  0.0162 -0.0433 -0.3853
25109SOL    HW177004   6.540   0.784   5.959  1.3334  1.0395 -3.1218
25109SOL    HW277005   6.419   0.779   5.868  0.4097 -0.6538 -1.8362
25110SOL     OW77006   2.998   6.013   8.315  0.5762 -0.3063  0.2430
25110SOL    HW177007   2.906   5.994   8.298  0.3332  0.3751  0.7814
25110SOL    HW277008   3.008   6.105   8.292  0.9169 -0.1474  1.0234
25111SOL     OW77009   1.683   0.237   6.065  0.3813 -0.0127  0.4375
25111SOL    HW177010   1.753   0.179   6.036  0.3492 -0.0006  0.3370
25111SOL    HW277011   1.698   0.247   6.159  0.3250 -0.2653  0.4720
25112SOL     OW77012   4.240   6.820   4.575  0.2939 -0.0710 -0.3827
25112SOL    HW177013   4.236   6.913   4.597  1.5736 -0.3464  1.0855
25112SOL    HW277014   4.149   6.791   4.578 -0.0209  0.9349  0.0690
25113SOL     OW77015   4.709   4.179   8.543  0.2073 -0.1676 -0.0677
25113SOL    HW177016   4.755   4.148   8.621  1.4964 -0.4248 -0.9246
25113SOL    HW277017   4.725   4.273   8.542 -0.4840 -0.0363  0.4037
25114SOL     OW77018   2.418   6.507   8.280  0.1388 -0.2354  0.1876
25114SOL    HW177019   2.405   6.555   8.198 -0.7224  2.0647  1.6314
25114SOL    HW277020   2.488   6.555   8.325  0.7844 -1.6334  0.7250
25115SOL     OW77021   9.258   3.059   3.979  0.0237  0.3159 -0.2806
25115SOL    HW177022   9.272   3.145   3.939  1.7126  0.5550  0.7547
25115SOL    HW277023   9.282   2.996   3.911 -2.2805  0.6167 -1.4182
25116SOL     OW77024   7.433   4.239   7.561 -0.7039 -0.0743 -0.1468
25116SOL    HW177025   7.389   4.208   7.482  0.1483  0.0532 -0.6896
25116SOL    HW277026   7.513   4.186   7.565 -0.9276 -0.3443  0.8472
25117SOL     OW77027   2.271   8.071   6.032 -0.6422  0.1917  0.2097
25117SOL    HW177028   2.278   7.979   6.007  0.6001  0.3945 -0.2019
25117SOL    HW277029   2.187   8.099   5.995 -0.1115 -0.2498 -1.3940
25118SOL     OW77030   0.947   2.055   7.313  0.4325  0.5580  0.2572
25118SOL    HW177031   1.011   2.003   7.361 -1.3915 -1.3416  0.6482
25118SOL    HW277032   0.935   2.134   7.367  1.0231  0.0589  1.1296
25119SOL     OW77033   6.434   6.551   0.282  0.1203  0.1589 -0.1312
25119SOL    HW177034   6.446   6.531   0.189  1.7555 -1.1809  0.3452
25119SOL    HW277035   6.427   6.646   0.285 -3.1845  0.0241 -1.9522
25120SOL     OW77036   8.973   5.405   6.954 -0.2414  0.1736  0.1419
25120SOL    HW177037   8.967   5.331   6.894  1.0317  0.6947 -0.6348
25120SOL    HW277038   8.896   5.459   6.934 -1.0094 -0.7611  0.5054
25121SOL     OW77039   2.035   5.068   8.694 -0.2492 -0.5223  0.3414
25121SOL    HW177040   2.124   5.034   8.689 -0.3813 -0.7816 -0.2613
25121SOL    HW277041   2.044   5.150   8.743  0.1375 -1.1624  1.3523
25122SOL     OW77042   3.673   8.696   6.008 -0.0600  0.0217 -0.4165
25122SOL    HW177043   3.756   8.665   5.972 -0.0874 -0.4861 -0.0495
25122SOL    HW277044   3.698   8.755   6.078  0.0083 -1.2814  0.6864
25123SOL     OW77045   2.909   1.920   2.246  0.9515  0.0923  0.0262
25123SOL    HW177046   3.000   1.916   2.275  0.7799  0.1542  0.5773
25123SOL    HW277047   2.866   1.976   2.310  0.5127  0.0117 -0.1966
25124SOL     OW77048   4.588   7.773   6.102  0.1393 -0.7382  0.4695
25124SOL    HW177049   4.630   7.727   6.030  0.2147 -1.4241  0.9455
25124SOL    HW277050   4.608   7.721   6.179 -0.0717 -0.0941  0.9690
25125SOL     OW77051   5.900   3.432   1.508 -0.2900  0.1971 -0.2937
25125SOL    HW177052   5.869   3.513   1.466 -0.0992  0.2763 -0.2806
25125SOL    HW277053   5.916   3.457   1.599 -0.6452  0.0403 -0.1872
25126SOL     OW77054   2.221   6.957   6.651 -0.6601  0.2685 -0.6276
25126SOL    HW177055   2.228   6.864   6.630 -0.1106  0.0288  0.5245
25126SOL    HW277056   2.298   6.996   6.612  1.2053 -0.4328  2.1578
25127SOL     OW77057   1.822   4.332   8.028 -0.6808  0.1079 -0.2951
25127SOL    HW177058   1.739   4.375   8.008 -0.8955  0.3931  1.1795
25127SOL    HW277059   1.812   4.300   8.117  0.3567 -0.9257 -0.5394
25128SOL     OW77060   7.282   8.874   5.334  0.4382 -0.3284  0.2862
25128SOL    HW177061   7.366   8.899   5.373 -0.0721  0.4126  0.9332
25128SOL    HW277062   7.278   8.923   5.252 -0.0640  0.9000  1.0247
25129SOL     OW77063   4.210   7.428   6.619 -0.4323  0.3893  0.0741
25129SOL    HW177064   4.174   7.380   6.694 -0.1652 -1.1182 -0.7334
25129SOL    HW277065   4.186   7.519   6.635 -0.1924  0.1239  2.0939
25130SOL     OW77066   0.950   1.567   8.879  0.0590 -0.1830 -0.0373
25130SOL    HW177067   0.946   1.632   8.809 -0.9396 -0.1942  0.0107
25130SOL    HW277068   0.970   1.485   8.834  1.5937  0.1874 -0.0680
25131SOL     OW77069   3.417   1.385   3.318  0.2644  0.2020  0.0372
25131SOL    HW177070   3.324   1.387   3.338  0.0417  0.0571 -0.9720
25131SOL    HW277071   3.460   1.382   3.404 -0.6189  1.3315  0.5243
25132SOL     OW77072   1.299   8.151   2.891 -0.3619 -0.1908  0.7797
25132SOL    HW177073   1.300   8.243   2.915 -0.4837 -0.1504  0.6295
25132SOL    HW277074   1.220   8.141   2.837  0.7277  0.0349 -0.8954
25133SOL     OW77075   6.060   1.020   2.076  0.5797 -0.3917 -0.4488
25133SOL    HW177076   6.007   1.042   2.153  2.0002  0.1468  0.3768
25133SOL    HW277077   6.086   1.105   2.040  0.5955 -0.6577 -1.0681
25134SOL     OW77078   2.897   1.981   7.115  0.1488 -0.0928 -0.1095
25134SOL    HW177079   2.888   1.901   7.166 -1.5966  0.2960  0.2083
25134SOL    HW277080   2.921   1.952   7.028 -1.6304 -1.0424 -0.2951
25135SOL     OW77081   8.012   2.086   6.723 -0.4065 -0.4940 -0.2470
25135SOL    HW177082   8.090   2.142   6.721 -0.6922  0.0308  1.8316
25135SOL    HW277083   8.043   2.004   6.763 -0.5990 -0.8209 -0.7666
25136SOL     OW77084   5.579   3.144   0.413 -0.3625 -0.1596 -0.0195
25136SOL    HW177085   5.560   3.206   0.342  0.9708  0.0890 -0.1767
25136SOL    HW277086   5.536   3.063   0.386 -1.9526  0.6429  0.0907
25137SOL     OW77087   7.329   0.472   3.052  1.5416  0.3602 -0.2734
25137SOL    HW177088   7.300   0.381   3.059  0.3132  0.8368  0.8912
25137SOL    HW277089   7.400   0.469   2.987  1.9403 -1.5142  0.2159
25138SOL     OW77090   6.363   5.455   1.584 -0.0520 -0.3943  0.1995
25138SOL    HW177091   6.363   5.388   1.516  0.8469 -1.7230  1.4750
25138SOL    HW277092   6.365   5.538   1.536  2.1797 -1.3177 -1.3914
25139SOL     OW77093   8.361   6.434   2.504 -0.1307 -0.3637 -0.1502
25139SOL    HW177094   8.283   6.407   2.455 -0.4780 -2.2240  1.3477
25139SOL    HW277095   8.418   6.357   2.502  0.3293 -0.0793  1.3393
25140SOL     OW77096   6.255   5.695   7.490  0.1223  0.2656 -0.2255
25140SOL    HW177097   6.171   5.737   7.507  0.2615  1.1623 -1.6837
25140SOL    HW277098   6.233   5.612   7.448 -0.0151  0.8642 -1.3481
25141SOL     OW77099   0.088   7.392   3.003  0.2080 -0.1276 -0.0705
25141SOL    HW177100   0.081   7.297   3.013 -0.1746 -0.0084  0.8720
25141SOL    HW277101   0.165   7.415   3.056 -1.8527  0.5262  2.7368
25142SOL     OW77102   2.566   5.973   5.193 -0.3086 -0.2149  0.5267
25142SOL    HW177103   2.601   6.056   5.163  1.4315 -0.4802  1.7799
25142SOL    HW277104   2.580   5.973   5.288  0.4382 -2.2573  0.4588
25143SOL     OW77105   2.287   0.209   3.348  0.1943 -0.6438  0.5154
25143SOL    HW177106   2.378   0.226   3.324  0.0340 -1.1877 -0.5047
25143SOL    HW277107   2.270   0.120   3.318 -0.6657 -0.5677  0.7466
25144SOL     OW77108   2.689   3.490   0.452 -0.0172  0.2755  0.4174
25144SOL    HW177109   2.652   3.525   0.532 -1.2593  0.5397 -0.2627
25144SOL    HW277110   2.749   3.421   0.481 -0.9797 -0.1017  1.5419
25145SOL     OW77111   1.253   5.298   4.427  0.0027 -0.0565  0.1300
25145SOL    HW177112   1.345   5.297   4.398  0.3771  2.4757  1.1514
25145SOL    HW277113   1.220   5.383   4.399 -1.1007  0.3429  2.6082
25146SOL     OW77114   4.953   1.662   1.853 -0.0746 -0.5393  0.3142
25146SOL    HW177115   4.945   1.572   1.886  2.1508 -0.9296 -0.1516
25146SOL    HW277116   4.926   1.717   1.927  0.7142 -1.5395  1.3672
25147SOL     OW77117   3.033   2.659   6.730  0.3450 -0.2030  0.5025
25147SOL    HW177118   3.052   2.695   6.817 -2.9309 -2.2423  2.1775
25147SOL    HW277119   2.962   2.714   6.697  1.5352  0.5164 -0.9045
25148SOL     OW77120   8.805   0.997   1.284  0.1407 -0.4032 -0.3429
25148SOL    HW177121   8.737   1.058   1.256 -0.1096  0.0089  1.1318
25148SOL    HW277122   8.767   0.951   1.359  1.2177 -0.6747  0.0489
25149SOL     OW77123   5.284   7.240   0.679  0.1991  0.1097 -0.2256
25149SOL    HW177124   5.195   7.270   0.659  0.0995 -0.1433 -0.1637
25149SOL    HW277125   5.273   7.148   0.703  0.3924  0.2728  0.4753
25150SOL     OW77126   3.580   3.354   8.538 -0.3090  0.0941 -0.4535
25150SOL    HW177127   3.562   3.267   8.504  1.2668  0.3017 -1.9374
25150SOL    HW277128   3.566   3.412   8.463 -3.1987  1.3584  1.0168
25151SOL     OW77129   1.027   7.829   0.834  0.7272  0.3779 -0.1529
25151SOL    HW177130   1.122   7.822   0.844  0.7119  0.4942  0.0685
25151SOL    HW277131   0.993   7.813   0.922  0.5450  0.3996 -0.2205
25152SOL     OW77132   0.056   7.111   5.247 -0.8222 -0.0915  0.1488
25152SOL    HW177133  -0.027   7.064   5.247  0.8933 -3.2588 -1.1459
25152SOL    HW277134   0.092   7.098   5.335 -0.6873 -0.5579  0.0226
25153SOL     OW77135   2.470   7.947   5.197  0.7097 -0.0843 -0.4658
25153SOL    HW177136   2.466   7.854   5.220  0.6013  0.2500  0.9327
25153SOL    HW277137   2.563   7.969   5.203  0.4128  0.6226  2.3268
25154SOL     OW77138   1.947   7.187   4.989  0.3150 -0.0368  0.2150
25154SOL    HW177139   1.971   7.199   4.897  0.3627  0.8242  0.3386
25154SOL    HW277140   1.860   7.226   4.997  0.0087 -0.7444  0.3781
25155SOL     OW77141   0.899   1.651   2.410 -0.0214 -0.5010 -0.3715
25155SOL    HW177142   0.899   1.744   2.387 -0.4189 -0.4123 -0.0161
25155SOL    HW277143   0.988   1.622   2.390  0.1746  0.0105 -0.2651
25156SOL     OW77144   5.651   0.800   2.596  0.0282 -0.0557  0.8029
25156SOL    HW177145   5.611   0.791   2.683  1.1182  0.3404  1.3528
25156SOL    HW277146   5.702   0.881   2.601  2.1149 -1.3391  0.5874
25157SOL     OW77147   4.815   7.547   7.594 -0.1235  0.5369 -0.1457
25157SOL    HW177148   4.735   7.495   7.601  2.1124 -2.9133  0.7759
25157SOL    HW277149   4.820   7.569   7.501 -2.9651  2.2672  0.0381
25158SOL     OW77150   7.364   4.377   0.174 -0.4456  0.7951 -0.6567
25158SOL    HW177151   7.382   4.444   0.241 -0.7764  0.5906 -0.3605
25158SOL    HW277152   7.271   4.357   0.185 -0.0963 -0.5249  0.0180
25159SOL     OW77153   4.358   4.004   0.848  0.2270  0.3539  0.1239
25159SOL    HW177154   4.304   3.927   0.863  1.3667 -0.3881  0.4404
25159SOL    HW277155   4.295   4.076   0.842 -0.9498 -0.7834 -1.5890
25160SOL     OW77156   0.322   2.651   7.282  0.5232 -0.1606  0.0444
25160SOL    HW177157   0.349   2.743   7.282  0.5603 -0.1703  0.5246
25160SOL    HW277158   0.240   2.650   7.333 -0.9649  0.0351 -2.2540
25161SOL     OW77159   5.774   2.426   2.147 -0.3538 -0.2855  0.5244
25161SOL    HW177160   5.754   2.341   2.108  0.9327 -0.5705  0.4577
25161SOL    HW277161   5.766   2.488   2.075  0.2126 -0.5683  0.2099
25162SOL     OW77162   6.933   2.185   6.266 -0.6427  0.7777 -0.3109
25162SOL    HW177163   6.960   2.277   6.266 -0.0938  0.6178 -0.2453
25162SOL    HW277164   6.975   2.147   6.343 -1.3968  0.6219  0.0230
25163SOL     OW77165   2.263   1.725   2.754  0.9017 -0.3487 -0.0665
25163SOL    HW177166   2.277   1.632   2.735 -0.0734 -0.7890  1.2900
25163SOL    HW277167   2.341   1.768   2.720  3.2949 -2.1496  2.8469
25164SOL     OW77168   0.179   4.450   6.338  0.4437  0.4009 -0.2727
25164SOL    HW177169   0.099   4.409   6.303  0.9087 -1.0052  0.2720
25164SOL    HW277170   0.168   4.543   6.320 -2.2663  0.5113  1.5288
25165SOL     OW77171   4.192   1.673   0.836  0.5630  0.1320  0.3744
25165SOL    HW177172   4.101   1.665   0.864  0.2143  1.1030 -0.4502
25165SOL    HW277173   4.188   1.664   0.741  1.4138 -0.5279  0.3999
25166SOL     OW77174   0.407   7.377   1.230  0.3809  0.0879 -0.4000
25166SOL    HW177175   0.346   7.333   1.170  1.0387 -0.6862 -0.5092
25166SOL    HW277176   0.379   7.469   1.229 -2.0291 -0.5739  1.0774
25167SOL     OW77177   2.134   3.048   0.179  0.5930  0.0420  0.1029
25167SOL    HW177178   2.139   3.135   0.219  1.9164  0.5653 -1.1455
25167SOL    HW277179   2.197   2.996   0.228  1.4463  0.4014 -0.5997
25168SOL     OW77180   0.150   5.714   3.414 -0.5245 -0.8002 -0.5911
25168SOL    HW177181   0.214   5.746   3.350  0.8552  0.9629  1.5678
25168SOL    HW277182   0.065   5.740   3.379  0.2838  1.1397 -1.1860
25169SOL     OW77183   8.054   2.723   5.393 -0.3560 -0.1224 -0.2995
25169SOL    HW177184   7.968   2.688   5.368 -0.6034 -0.3512  0.8602
25169SOL    HW277185   8.106   2.716   5.313 -0.9371 -1.5034 -0.5769
25170SOL     OW77186   7.744   0.655   1.111  0.4713 -1.0520  0.2090
25170SOL    HW177187   7.839   0.662   1.096  0.1494 -1.5570 -2.2965
25170SOL    HW277188   7.736   0.641   1.205  2.9209 -1.5875  0.3771
25171SOL     OW77189   5.254   7.671   8.565  0.2421  0.0848  0.4115
25171SOL    HW177190   5.341   7.681   8.603  0.2426  1.2755  0.1214
25171SOL    HW277191   5.225   7.760   8.547 -0.2461 -0.3864 -1.2786
25172SOL     OW77192   8.005   1.680   5.765  0.5221  0.0988  0.2738
25172SOL    HW177193   7.959   1.611   5.717  0.2484  0.9539 -0.7017
25172SOL    HW277194   7.946   1.702   5.837  0.0611  0.1614 -0.1200
25173SOL     OW77195   2.143   6.929   8.651 -0.2867  0.1134  0.4483
25173SOL    HW177196   2.088   6.855   8.679  0.4259 -0.3081  0.7399
25173SOL    HW277197   2.080   6.995   8.622 -1.0244  0.2655  2.3149
25174SOL     OW77198   0.555   6.585   4.349  0.3948 -0.2000 -0.1808
25174SOL    HW177199   0.493   6.636   4.400  0.1226  1.4413 -2.1005
25174SOL    HW277200   0.623   6.560   4.412  0.2440  2.0539  0.9331
25175SOL     OW77201   4.061   4.597   2.705 -0.6401 -0.2862 -0.3635
25175SOL    HW177202   4.102   4.680   2.729  0.1475 -0.9454  0.6167
25175SOL    HW277203   4.088   4.582   2.615  1.1228 -0.6053  0.2055
25176SOL     OW77204   0.692   6.494   1.213  0.0426 -0.1686 -0.1325
25176SOL    HW177205   0.714   6.565   1.153 -0.3079 -0.2324 -0.3363
25176SOL    HW277206   0.752   6.506   1.287  1.2584 -0.7766 -1.0011
25177SOL     OW77207   7.205   7.165   6.607  0.5060  0.3101 -0.6028
25177SOL    HW177208   7.121   7.133   6.637 -0.0271  1.0542 -1.2675
25177SOL    HW277209   7.194   7.260   6.600  1.2805  0.3761 -1.0526
25178SOL     OW77210   3.012   0.386   7.711 -0.3582  0.2936  0.2686
25178SOL    HW177211   3.107   0.385   7.701 -0.4610  1.1613 -0.8758
25178SOL    HW277212   2.980   0.326   7.644 -0.5995 -0.3595  0.9625
25179SOL     OW77213   8.605   0.826   8.288 -0.5764 -0.3218 -0.2073
25179SOL    HW177214   8.622   0.789   8.375  0.4546 -0.9451 -0.6616
25179SOL    HW277215   8.576   0.916   8.306  0.0307 -0.3061  0.7589
25180SOL     OW77216   2.902   2.854   0.990 -0.0846 -0.4019 -0.7419
25180SOL    HW177217   2.898   2.949   0.982 -0.8320 -0.4866 -1.4480
25180SOL    HW277218   2.820   2.829   1.033  0.4369 -0.6655  0.1169
25181SOL     OW77219   2.097   1.025   6.831  0.0359  0.6262 -0.3402
25181SOL    HW177220   2.189   1.053   6.827  0.5914 -1.2648 -1.4061
25181SOL    HW277221   2.097   0.939   6.790 -1.5739 -1.1081  3.1623
25182SOL     OW77222   5.612   6.734   8.031 -0.0270  0.2518 -0.4056
25182SOL    HW177223   5.572   6.819   8.049  2.9827  1.3738  1.4227
25182SOL    HW277224   5.654   6.744   7.946 -0.1393  0.4475 -0.4375
25183SOL     OW77225   2.624   1.670   8.624 -0.0353  0.3327 -0.4056
25183SOL    HW177226   2.586   1.658   8.711 -0.2548 -0.4834 -0.6100
25183SOL    HW277227   2.637   1.764   8.617 -0.1336  0.4202  0.4640
25184SOL     OW77228   1.385   5.531   7.544  0.0658 -0.7002 -0.2781
25184SOL    HW177229   1.448   5.594   7.579 -0.1890 -1.8574  2.4340
25184SOL    HW277230   1.399   5.452   7.597 -1.5182 -1.9931 -1.7380
25185SOL     OW77231   7.464   5.094   6.541  0.9744 -0.4542  0.3043
25185SOL    HW177232   7.487   5.067   6.630  1.7264  0.8301  0.5249
25185SOL    HW277233   7.545   5.133   6.507  0.0865  1.0619 -0.1429
25186SOL     OW77234   1.250   5.633   0.309  0.4093  0.0094  0.8231
25186SOL    HW177235   1.158   5.654   0.324 -0.0584 -0.8887 -0.6661
25186SOL    HW277236   1.257   5.540   0.330  0.6652 -0.2453 -0.3272
25187SOL     OW77237   2.733   0.438   3.738 -0.1317 -0.3900 -0.1394
25187SOL    HW177238   2.664   0.433   3.672 -0.8338 -2.7813  0.7272
25187SOL    HW277239   2.698   0.390   3.814  0.8900  1.7882  1.7660
25188SOL     OW77240   0.917   1.198   7.015  0.2238 -0.6037  0.8166
25188SOL    HW177241   0.843   1.258   7.026  0.6900  0.1290 -0.0759
25188SOL    HW277242   0.902   1.130   7.081 -1.4523 -0.6618  0.3909
25189SOL     OW77243   3.919   0.214   9.289  0.3400  0.6452 -0.2781
25189SOL    HW177244   3.826   0.232   9.279 -0.0393 -0.5963  0.8677
25189SOL    HW277245   3.930   0.127   9.249  0.7902  0.2857  0.6277
25190SOL     OW77246   8.450   8.368   4.328 -0.3004 -0.0389 -0.4191
25190SOL    HW177247   8.436   8.321   4.246  2.1397  0.5745 -1.2402
25190SOL    HW277248   8.525   8.324   4.369  1.1233  2.1975 -0.5254
25191SOL     OW77249   6.696   3.419   5.363  0.5612 -0.3476  0.1987
25191SOL    HW177250   6.692   3.331   5.399  0.2389 -0.4284 -0.0330
25191SOL    HW277251   6.695   3.406   5.268 -0.4753 -0.0521  0.1677
25192SOL     OW77252   6.362   7.463   8.379 -0.2740  0.2950  0.7474
25192SOL    HW177253   6.310   7.390   8.413  0.3858 -0.2917  0.5009
25192SOL    HW277254   6.419   7.424   8.314  0.6402  0.9077  1.1761
25193SOL     OW77255   0.765   2.477   1.605 -0.0626 -0.0487 -0.0725
25193SOL    HW177256   0.790   2.557   1.559 -1.5081  1.1126  1.1078
25193SOL    HW277257   0.779   2.497   1.698  0.3420 -1.4542  0.1806
25194SOL     OW77258   2.112   7.388   0.174  0.4572  0.2745 -0.5253
25194SOL    HW177259   2.133   7.418   0.262 -1.0311  0.7715 -0.3203
25194SOL    HW277260   2.096   7.468   0.124 -0.6649 -0.0544 -0.7167
25195SOL     OW77261   2.094   3.779   0.457  0.5124  0.0742 -0.1813
25195SOL    HW177262   2.143   3.861   0.449  0.2396  0.1534 -1.2185
25195SOL    HW277263   2.086   3.764   0.551 -0.2331  1.7200  0.0363
25196SOL     OW77264   4.964   5.694   2.248  0.1287 -0.0694  0.1902
25196SOL    HW177265   5.043   5.698   2.194  0.9317  0.5658  1.4182
25196SOL    HW277266   4.992   5.722   2.335 -1.3524 -0.2662  0.7419
25197SOL     OW77267   7.510   5.629   3.740  0.3790  0.6579 -0.1489
25197SOL    HW177268   7.424   5.648   3.778  0.4435  1.0093 -0.1697
25197SOL    HW277269   7.567   5.697   3.776  1.2109 -1.0477  1.8244
25198SOL     OW77270   0.952   1.740   8.683 -0.3470 -0.0211 -0.7142
25198SOL    HW177271   0.958   1.811   8.746 -0.5152 -0.2634 -0.4269
25198SOL    HW277272   0.891   1.773   8.616  0.5820  0.6122 -1.2548
25199SOL     OW77273   6.002   1.820   8.090  0.0232 -0.1536  0.1026
25199SOL    HW177274   5.917   1.863   8.086 -0.3417 -0.9073 -0.2648
25199SOL    HW277275   5.992   1.753   8.158  0.4613  0.0553  0.3749
25200SOL     OW77276   1.283   6.842   6.875  0.1402 -0.1684  0.6859
25200SOL    HW177277   1.265   6.793   6.795  0.9081 -2.3101  1.7913
25200SOL    HW277278   1.268   6.780   6.946 -2.1480  2.1463  2.3428
25201SOL     OW77279   5.603   8.445   1.670 -0.2806 -0.6580 -0.6738
25201SOL    HW177280   5.561   8.432   1.584  1.5051 -0.4764 -1.5825
25201SOL    HW277281   5.611   8.540   1.679  1.2212 -0.7326 -1.1403
25202SOL     OW77282   5.196   3.046   7.627 -0.1076 -0.4696 -0.5207
25202SOL    HW177283   5.132   3.099   7.580 -0.3042 -0.8950 -0.7402
25202SOL    HW277284   5.277   3.055   7.577 -0.1484 -0.3928 -0.5718
25203SOL     OW77285   1.238   3.330   3.768 -0.4578 -0.5563 -0.5912
25203SOL    HW177286   1.221   3.419   3.798  0.4086 -0.1735 -1.2388
25203SOL    HW277287   1.187   3.275   3.828 -0.7511  0.3477 -0.0006
25204SOL     OW77288   8.829   4.545   3.691 -0.8755  0.6373 -0.3994
25204SOL    HW177289   8.748   4.566   3.737 -0.1322  1.3658  0.5947
25204SOL    HW277290   8.883   4.623   3.699  0.2500 -0.1238 -0.3605
25205SOL     OW77291   3.784   5.867   1.799  0.4748 -0.7476  0.4208
25205SOL    HW177292   3.836   5.817   1.736 -0.6116 -1.3197 -0.0299
25205SOL    HW277293   3.847   5.928   1.838  1.3973 -1.1473 -0.4062
25206SOL     OW77294   7.175   5.711   6.398 -0.0552  0.7432  0.3001
25206SOL    HW177295   7.183   5.682   6.489 -0.9041  0.2940  0.2276
25206SOL    HW277296   7.265   5.734   6.373  0.0029  2.1881  1.6900
25207SOL     OW77297   2.501   8.293   1.872 -0.7131  0.2833 -0.4039
25207SOL    HW177298   2.453   8.267   1.794  0.6075 -0.1200 -1.0909
25207SOL    HW277299   2.512   8.388   1.862 -1.8927  0.4849  0.0682
25208SOL     OW77300   6.117   7.328   5.739 -1.3480 -0.1028  0.0455
25208SOL    HW177301   6.053   7.394   5.766 -0.5167  0.6025  0.3285
25208SOL    HW277302   6.070   7.245   5.742 -2.2575  0.4223  0.1981
25209SOL     OW77303   4.824   3.167   5.462  0.1013  0.6004 -0.0022
25209SOL    HW177304   4.919   3.155   5.458  0.1757  0.9370  0.5874
25209SOL    HW277305   4.790   3.083   5.495  0.2896  0.8116  0.7414
25210SOL     OW77306   6.724   4.953   5.436 -0.2115 -0.0756 -0.2411
25210SOL    HW177307   6.701   5.012   5.365 -0.7938  0.4101  0.3389
25210SOL    HW277308   6.814   4.926   5.417 -0.1014  0.6345 -0.7611
25211SOL     OW77309   2.991   5.894   9.011  0.5902 -0.2775 -0.5406
25211SOL    HW177310   3.075   5.868   8.972  0.6404 -1.8448  0.5490
25211SOL    HW277311   2.926   5.845   8.960  0.6227 -1.9642  1.0043
25212SOL     OW77312   7.105   4.979   4.868  0.0224 -0.0548 -0.3557
25212SOL    HW177313   7.077   4.893   4.900  0.1735 -0.3766 -1.0894
25212SOL    HW277314   7.195   4.988   4.899  0.0187 -0.1742 -0.3097
25213SOL     OW77315   8.831   4.005   8.217  0.1718  0.1824  0.4099
25213SOL    HW177316   8.739   4.003   8.190  0.5180 -0.4615 -0.7487
25213SOL    HW277317   8.828   3.996   8.312 -0.9730  0.2028  0.3834
25214SOL     OW77318   8.706   8.449   8.554  0.7919  0.3576 -0.2375
25214SOL    HW177319   8.693   8.543   8.569 -0.8247  0.1570 -0.3166
25214SOL    HW277320   8.627   8.421   8.509  1.8129 -0.8083 -1.3457
25215SOL     OW77321   7.115   3.384   3.875 -1.2014 -0.0950  0.0615
25215SOL    HW177322   7.081   3.441   3.807 -1.8462  1.1096  1.3630
25215SOL    HW277323   7.055   3.397   3.949 -1.5082 -2.6569  0.2931
25216SOL     OW77324   3.152   1.275   6.534  0.1401  0.4893 -0.3769
25216SOL    HW177325   3.060   1.265   6.507 -0.5169  0.2120  1.8470
25216SOL    HW277326   3.181   1.356   6.493 -1.1695  0.6638 -0.9754
25217SOL     OW77327   5.490   3.827   6.797  0.2898 -0.3245  0.5255
25217SOL    HW177328   5.580   3.805   6.821  0.8335 -0.5282 -1.5964
25217SOL    HW277329   5.498   3.903   6.739 -0.9199 -0.2231  0.4749
25218SOL     OW77330   7.608   5.389   3.376 -0.6648 -0.1485 -0.2176
25218SOL    HW177331   7.635   5.305   3.339 -1.2864  0.1048 -1.2567
25218SOL    HW277332   7.689   5.437   3.389 -0.5538  0.5323 -3.1343
25219SOL     OW77333   6.686   3.312   0.559 -0.3482  0.3998 -0.3015
25219SOL    HW177334   6.645   3.226   0.549  3.3079 -1.6598  1.4138
25219SOL    HW277335   6.738   3.324   0.479  2.9249 -1.2274  1.5048
25220SOL     OW77336   4.532   3.510   6.439  0.3082  0.8513 -0.0513
25220SOL    HW177337   4.555   3.515   6.532  2.9104  0.2500 -0.6451
25220SOL    HW277338   4.500   3.420   6.428  1.4226  0.4466 -0.0385
25221SOL     OW77339   9.133   4.824   3.280  0.0177 -0.0437 -0.1401
25221SOL    HW177340   9.038   4.815   3.277 -0.1828  1.9429 -0.1099
25221SOL    HW277341   9.148   4.906   3.328  1.7571 -0.6983  0.4611
25222SOL     OW77342   3.185   1.804   5.712  0.0910  0.1332 -0.4896
25222SOL    HW177343   3.189   1.841   5.623  0.5217  1.8591  0.2295
25222SOL    HW277344   3.277   1.791   5.736  0.0268  0.8168  0.1531
25223SOL     OW77345   7.702   6.364   7.381  0.2312  0.2033 -0.1215
25223SOL    HW177346   7.654   6.367   7.464 -0.5153  0.1797 -0.5525
25223SOL    HW277347   7.766   6.294   7.393  0.9094  0.9635  0.8571
25224SOL     OW77348   2.440   5.397   3.585  0.3025 -0.1386 -0.1809
25224SOL    HW177349   2.380   5.445   3.528 -1.2741  0.0912  1.6232
25224SOL    HW277350   2.505   5.462   3.611  0.9538 -0.2094 -1.5814
25225SOL     OW77351   4.846   5.274   3.027 -0.3017  0.1433  0.3032
25225SOL    HW177352   4.862   5.233   2.942  0.3269  0.7912  0.1067
25225SOL    HW277353   4.846   5.368   3.009 -0.9025  0.2605  0.8974
25226SOL     OW77354   0.957   4.598   3.452  0.1105  0.2588  0.4111
25226SOL    HW177355   0.912   4.643   3.524 -0.9190  0.2814 -0.2269
25226SOL    HW277356   1.050   4.612   3.469 -0.1421  0.7599  1.4191
25227SOL     OW77357   5.250   7.813   8.234  0.0108  0.3393  0.0145
25227SOL    HW177358   5.277   7.857   8.314 -0.1559  1.3791 -0.4925
25227SOL    HW277359   5.327   7.763   8.207 -0.1823 -0.6291  1.2338
25228SOL     OW77360   9.220   9.160   2.726 -0.4496  0.5133 -0.3071
25228SOL    HW177361   9.263   9.075   2.722  0.5750  0.9864  0.4421
25228SOL    HW277362   9.256   9.208   2.651 -0.2135  0.6582 -0.1015
25229SOL     OW77363   7.487   3.814   5.532 -0.6366 -0.1820 -0.2509
25229SOL    HW177364   7.409   3.826   5.587 -0.9673  2.7465 -1.2702
25229SOL    HW277365   7.524   3.902   5.524  2.2082 -1.3888 -0.6475
25230SOL     OW77366   1.613   5.914   2.581 -0.3875 -0.1127  0.0806
25230SOL    HW177367   1.681   5.950   2.638 -0.8825 -1.9561  1.8982
25230SOL    HW277368   1.628   5.819   2.583 -0.4985 -0.2158 -2.7904
25231SOL     OW77369   2.721   9.135   9.173  0.2123  0.1443 -0.3003
25231SOL    HW177370   2.653   9.187   9.216 -0.9266 -1.1932 -0.4133
25231SOL    HW277371   2.724   9.168   9.084  0.0426  0.5306 -0.1648
25232SOL     OW77372   7.113   5.825   8.411  0.0923 -0.1542 -0.0392
25232SOL    HW177373   7.207   5.819   8.429  0.0884  1.6744  0.6474
25232SOL    HW277374   7.075   5.852   8.495 -0.9402  0.0193 -0.5600
25233SOL     OW77375   9.231   9.012   6.194  0.3534 -0.5754 -0.6999
25233SOL    HW177376   9.320   9.048   6.186  0.1097 -0.3013 -2.2591
25233SOL    HW277377   9.244   8.917   6.195  1.0516 -0.5865  4.0685
25234SOL     OW77378   3.613   4.817   1.487  0.2347 -0.2667  0.1985
25234SOL    HW177379   3.661   4.746   1.530  0.1157 -0.8622 -0.6573
25234SOL    HW277380   3.630   4.806   1.394 -0.6752  0.1789 -0.0276
25235SOL     OW77381   0.866   1.864   7.579  0.0117 -0.0808  0.6521
25235SOL    HW177382   0.905   1.951   7.568 -0.0929  0.0146  1.0227
25235SOL    HW277383   0.866   1.850   7.673  0.7755 -0.8315  0.5455
25236SOL     OW77384   8.103   7.385   7.034  0.7502 -0.2591  0.0421
25236SOL    HW177385   8.166   7.320   7.003  0.8991 -0.4914  0.8414
25236SOL    HW277386   8.026   7.373   6.978 -0.1022 -2.6640  1.6954
25237SOL     OW77387   1.039   5.721   6.943  0.4511  0.0287  0.3511
25237SOL    HW177388   1.037   5.803   6.992  1.7547  0.5544 -0.4545
25237SOL    HW277389   1.087   5.660   7.000 -2.0841 -0.7234  1.7425
25238SOL     OW77390   2.208   6.720   7.279  0.0227  0.2739 -0.1985
25238SOL    HW177391   2.237   6.711   7.370  1.3139  1.4492 -0.4755
25238SOL    HW277392   2.117   6.748   7.286 -0.8162 -2.4678  0.7001
25239SOL     OW77393   4.183   7.480   0.716  0.2834  0.2820  0.3163
25239SOL    HW177394   4.111   7.498   0.655 -1.2452  1.9376  2.5410
25239SOL    HW277395   4.253   7.539   0.688  0.7622 -1.1845 -1.7260
25240SOL     OW77396   7.318   6.736   2.589  0.3867 -0.0811 -0.1283
25240SOL    HW177397   7.408   6.758   2.613  0.1591 -0.1423  0.7710
25240SOL    HW277398   7.300   6.654   2.635 -0.7160  0.8315  1.0911
25241SOL     OW77399   1.778   7.475   1.884 -0.5800  0.4228  0.3303
25241SOL    HW177400   1.812   7.390   1.910 -0.2364  0.6303  0.5716
25241SOL    HW277401   1.853   7.519   1.842 -1.7040 -0.7365 -3.0017
25242SOL     OW77402   1.515   7.323   3.804 -0.1944 -0.1408 -0.3413
25242SOL    HW177403   1.542   7.348   3.716  0.7648  1.5661  0.4141
25242SOL    HW277404   1.504   7.406   3.850  0.1011 -1.0368  1.3811
25243SOL     OW77405   5.884   5.661   1.285  0.3958  0.9297 -0.9922
25243SOL    HW177406   5.818   5.647   1.218 -1.1697  2.1563  0.2377
25243SOL    HW277407   5.890   5.757   1.292  1.3748  0.8162 -0.1827
25244SOL     OW77408   2.698   4.405   1.448 -0.2684  0.6307  0.4321
25244SOL    HW177409   2.627   4.340   1.455 -0.9285  1.1076 -1.5672
25244SOL    HW277410   2.735   4.390   1.361  0.9323  1.5877  0.7698
25245SOL     OW77411   7.869   6.915   3.911 -0.2344 -0.3339 -0.0649
25245SOL    HW177412   7.927   6.921   3.835  0.0109 -0.9191  0.0752
25245SOL    HW277413   7.893   6.833   3.954 -1.7094 -0.9950 -0.4651
25246SOL     OW77414   0.559   3.765   0.235 -0.4055  0.2780  0.1776
25246SOL    HW177415   0.543   3.741   0.326 -0.5863 -1.3615 -0.2742
25246SOL    HW277416   0.647   3.803   0.235 -0.7374  1.0741  1.1658
25247SOL     OW77417   7.997   4.771   6.358 -0.2857  0.2551  0.3483
25247SOL    HW177418   8.034   4.711   6.294  1.3099  1.0991  0.4534
25247SOL    HW277419   7.956   4.840   6.305 -1.6412 -0.6255  0.2334
25248SOL     OW77420   4.096   5.813   5.889  0.1807 -0.0805 -0.0491
25248SOL    HW177421   4.095   5.894   5.941 -0.9963 -0.7203  0.9547
25248SOL    HW277422   4.144   5.836   5.810 -0.8345  1.8286 -0.1352
25249SOL     OW77423   7.237   8.655   5.758 -0.6397  0.1002 -0.4560
25249SOL    HW177424   7.204   8.653   5.668 -0.1214  0.9023 -0.6693
25249SOL    HW277425   7.239   8.748   5.782  1.4624  0.0982 -0.4777
25250SOL     OW77426   8.102   9.242   1.780 -0.5102  0.1483 -0.2218
25250SOL    HW177427   8.122   9.284   1.696 -0.6712  0.4676 -0.1041
25250SOL    HW277428   8.006   9.236   1.781 -0.5246  0.4466  0.0853
25251SOL     OW77429   3.609   4.929   0.831  0.1861 -0.6704 -0.6594
25251SOL    HW177430   3.634   4.842   0.861  0.1178 -0.7994 -0.9867
25251SOL    HW277431   3.539   4.956   0.891  1.7181  0.0637  0.8705
25252SOL     OW77432   1.027   2.404   6.135  0.2253 -0.0005 -0.4172
25252SOL    HW177433   0.980   2.465   6.191  1.5091  0.2187  0.4637
25252SOL    HW277434   1.026   2.445   6.048  1.5965  1.6014  0.2890
25253SOL     OW77435   4.537   2.542   6.147  0.5623  0.6613  0.0950
25253SOL    HW177436   4.566   2.453   6.165  0.2474  0.5562  0.0763
25253SOL    HW277437   4.455   2.552   6.196  0.6788  0.9934  0.2303
25254SOL     OW77438   1.740   5.635   2.867 -0.0741 -0.0716  0.0261
25254SOL    HW177439   1.762   5.646   2.775  0.5914 -2.7133 -0.1579
25254SOL    HW277440   1.658   5.586   2.868  0.8526 -1.6451  0.8288
25255SOL     OW77441   5.911   1.658   0.304 -0.0914 -0.1178 -0.1140
25255SOL    HW177442   5.851   1.696   0.369  0.4944  3.2850 -1.4369
25255SOL    HW277443   5.853   1.627   0.234 -0.4632  2.1513 -0.8754
25256SOL     OW77444   7.964   8.319   1.327  0.5575 -0.2612 -0.5475
25256SOL    HW177445   7.930   8.336   1.414  0.0619 -1.2693 -0.5353
25256SOL    HW277446   8.038   8.378   1.318  0.2274  0.2925  0.3141
25257SOL     OW77447   1.446   8.918   3.815  0.2919  0.1272 -0.7606
25257SOL    HW177448   1.541   8.930   3.803  0.5207  0.3538  1.1459
25257SOL    HW277449   1.407   8.995   3.774  0.9153  0.0613 -1.5180
25258SOL     OW77450   0.088   0.312   7.243 -0.3261  0.0228  0.0684
25258SOL    HW177451   0.063   0.220   7.237 -0.9101  0.3174 -2.4759
25258SOL    HW277452   0.165   0.320   7.186 -0.1730  1.0669  0.4220
25259SOL     OW77453   7.960   2.169   0.979 -0.0387  0.3113 -0.3494
25259SOL    HW177454   7.872   2.185   0.945  0.3690 -0.1183 -1.5987
25259SOL    HW277455   8.018   2.182   0.905  1.0107  1.0138  0.5685
25260SOL     OW77456   2.715   2.002   8.373 -0.3190  0.3876  0.1195
25260SOL    HW177457   2.669   2.080   8.341  0.2818 -0.1220 -2.0331
25260SOL    HW277458   2.726   1.947   8.296  0.9361 -0.9926  1.2607
25261SOL     OW77459   5.401   6.378   2.602  0.1612  0.2297  0.0640
25261SOL    HW177460   5.374   6.396   2.692 -1.6637 -0.0150 -0.4325
25261SOL    HW277461   5.452   6.455   2.577  2.5489 -0.6422  2.0176
25262SOL     OW77462   3.412   5.513   2.623 -0.0441  0.2785  0.2692
25262SOL    HW177463   3.327   5.547   2.594 -0.4831  0.1350  1.3682
25262SOL    HW277464   3.437   5.452   2.554 -1.1486 -0.1551  0.2337
25263SOL     OW77465   6.258   1.260   5.973 -0.2543 -0.9522  0.4656
25263SOL    HW177466   6.201   1.187   5.997 -3.1510  1.2691  0.5757
25263SOL    HW277467   6.261   1.316   6.050 -1.1598  0.9271 -0.7996
25264SOL     OW77468   0.176   0.264   4.373  0.3873  0.2869 -0.4415
25264SOL    HW177469   0.193   0.207   4.298 -1.1747 -1.4124  0.4220
25264SOL    HW277470   0.255   0.259   4.426  0.8659  0.1807 -1.1638
25265SOL     OW77471   3.003   1.601   5.489  0.9534  0.3088 -0.1500
25265SOL    HW177472   3.091   1.573   5.464 -0.5686 -2.3786 -2.8160
25265SOL    HW277473   2.963   1.523   5.528 -1.2665  0.5772 -1.7867
25266SOL     OW77474   8.740   4.516   3.037 -0.3518 -0.1617 -0.1438
25266SOL    HW177475   8.685   4.463   2.980 -0.7812 -2.0697  1.9657
25266SOL    HW277476   8.791   4.452   3.087  2.5522  1.5208 -0.8146
25267SOL     OW77477   9.170   9.140   4.084  0.1195 -0.4093  0.0176
25267SOL    HW177478   9.217   9.156   4.166  0.5151  0.3185 -0.3501
25267SOL    HW277479   9.176   9.222   4.036 -0.2454 -0.7851 -0.6776
25268SOL     OW77480   0.424   2.791   0.320  0.2717 -0.1788 -0.4478
25268SOL    HW177481   0.367   2.847   0.373  1.5360  0.6873  0.0480
25268SOL    HW277482   0.447   2.845   0.245  1.3546 -0.0871 -0.0596
25269SOL     OW77483   0.837   0.601   0.377 -0.7620  0.0392  0.8702
25269SOL    HW177484   0.927   0.580   0.399 -0.5777  1.4784  1.5090
25269SOL    HW277485   0.819   0.549   0.298  0.0414 -1.5998  1.7365
25270SOL     OW77486   3.383   2.387   3.026  0.1200  0.8280 -0.6830
25270SOL    HW177487   3.405   2.447   2.955  0.8540  4.2197  2.2719
25270SOL    HW277488   3.448   2.405   3.094 -0.8073 -2.0013  1.0712
25271SOL     OW77489   8.885   3.400   3.604  0.2056 -0.4209  0.1772
25271SOL    HW177490   8.947   3.371   3.671  1.6603  0.5257 -0.7416
25271SOL    HW277491   8.926   3.376   3.521 -1.1146 -0.6534 -0.4224
25272SOL     OW77492   4.733   2.285   2.577 -0.0606 -0.6591 -0.0159
25272SOL    HW177493   4.710   2.232   2.653  0.2182  0.0480  0.5663
25272SOL    HW277494   4.827   2.271   2.566  0.0474 -0.1544  0.2464
25273SOL     OW77495   6.702   1.871   5.874 -0.0935 -0.4687 -0.0417
25273SOL    HW177496   6.786   1.894   5.834  0.0204 -0.6266  0.1029
25273SOL    HW277497   6.642   1.939   5.844  0.5514  0.8258  1.5316
25274SOL     OW77498   3.124   6.721   6.554 -0.0946 -0.2350 -0.1839
25274SOL    HW177499   3.063   6.790   6.581  1.1475  1.7491 -2.2127
25274SOL    HW277500   3.073   6.669   6.491 -0.6499 -0.4329  0.4221
25275SOL     OW77501   6.374   3.692   5.521  0.1409 -0.1439 -0.1545
25275SOL    HW177502   6.327   3.736   5.450  1.0625  0.7842 -0.2205
25275SOL    HW277503   6.309   3.637   5.564 -0.6317 -0.0296 -1.1702
25276SOL     OW77504   6.469   5.685   8.302  0.0261 -0.3308 -0.7942
25276SOL    HW177505   6.386   5.729   8.282 -0.0869  0.4443  1.2121
25276SOL    HW277506   6.516   5.749   8.356  0.6884 -1.9226  0.5294
25277SOL     OW77507   5.532   5.812   7.998  0.0435  0.5231 -0.5497
25277SOL    HW177508   5.625   5.801   7.979 -0.0297 -1.6036  0.2589
25277SOL    HW277509   5.522   5.781   8.088 -1.2749  1.7410 -0.2573
25278SOL     OW77510   5.549   3.364   6.035  0.1405 -0.1598  0.3470
25278SOL    HW177511   5.474   3.406   6.078  0.9272  0.8331  0.7859
25278SOL    HW277512   5.617   3.433   6.033  0.2461 -0.2906 -2.1751
25279SOL     OW77513   1.908   3.859   5.683 -0.0429  0.2363 -0.6935
25279SOL    HW177514   1.856   3.869   5.762  2.4032  2.0133  0.7887
25279SOL    HW277515   1.990   3.819   5.713  0.7377  0.5136 -2.3734
25280SOL     OW77516   7.159   7.493   6.168 -0.3657  0.3522  0.0121
25280SOL    HW177517   7.181   7.400   6.178 -1.0394  0.1502 -0.3379
25280SOL    HW277518   7.237   7.532   6.128 -1.0367 -0.5914 -2.3225
25281SOL     OW77519   8.153   7.206   2.969 -0.5068  0.1815  0.0227
25281SOL    HW177520   8.165   7.189   3.063 -2.1883 -0.8127  0.0737
25281SOL    HW277521   8.212   7.279   2.950  0.7371 -0.3821  1.5982
25282SOL     OW77522   6.618   7.622   0.182 -0.2665  0.3829 -0.3148
25282SOL    HW177523   6.548   7.628   0.117  0.4670 -0.4894 -1.1832
25282SOL    HW277524   6.604   7.538   0.225  1.4362 -0.7215 -1.8712
25283SOL     OW77525   8.980   8.755   5.527 -0.4710  0.6544  0.5842
25283SOL    HW177526   8.956   8.683   5.586  1.4343 -1.5475 -1.1837
25283SOL    HW277527   9.069   8.778   5.552 -0.8046  1.9163  0.6477
25284SOL     OW77528   6.761   4.521   1.778  0.3251 -0.0209 -0.2186
25284SOL    HW177529   6.697   4.452   1.761  0.2772 -0.0587  0.1149
25284SOL    HW277530   6.728   4.597   1.729 -0.2089  0.0896  0.3117
25285SOL     OW77531   3.779   8.474   1.984 -0.1879 -0.8482 -0.1792
25285SOL    HW177532   3.756   8.389   1.946 -1.8322 -0.8247  0.7040
25285SOL    HW277533   3.806   8.527   1.909  1.2247 -2.2392 -0.6995
25286SOL     OW77534   6.661   0.911   8.023  0.4020  0.0658 -0.8028
25286SOL    HW177535   6.660   0.872   8.111  1.6000 -1.0184 -1.2687
25286SOL    HW277536   6.674   0.838   7.964  0.2147  0.8769 -1.8601
25287SOL     OW77537   3.670   5.886   3.899 -0.3272 -0.3172 -0.1494
25287SOL    HW177538   3.596   5.875   3.840 -2.7483  0.2606  2.6808
25287SOL    HW277539   3.671   5.979   3.920  1.0208 -0.3725  0.1205
25288SOL     OW77540   8.119   8.882   3.016 -0.2468  0.1734 -0.6716
25288SOL    HW177541   8.090   8.798   2.980  0.0360 -1.0213  1.8067
25288SOL    HW277542   8.203   8.898   2.973 -0.2894 -0.8324 -1.1530
25289SOL     OW77543   3.500   3.599   8.391 -0.0713  0.2531 -0.0477
25289SOL    HW177544   3.529   3.681   8.433 -1.5888  0.1197  1.2768
25289SOL    HW277545   3.469   3.626   8.304  2.6772  0.5871 -0.9907
25290SOL     OW77546   3.972   5.464   8.050 -0.3822  0.1834 -0.3573
25290SOL    HW177547   3.996   5.554   8.027  0.3008  0.0704 -0.0894
25290SOL    HW277548   4.020   5.446   8.130 -0.8997 -0.2561 -0.1425
25291SOL     OW77549   6.681   4.181   6.834  0.3745 -0.0115  0.4706
25291SOL    HW177550   6.689   4.116   6.764 -0.3479  0.1987  0.1868
25291SOL    HW277551   6.633   4.137   6.903 -0.3545  0.3057  0.1679
25292SOL     OW77552   3.726   6.744   8.389 -0.0176 -0.2825 -0.0448
25292SOL    HW177553   3.709   6.700   8.306 -2.3278  0.4796 -0.0185
25292SOL    HW277554   3.802   6.800   8.371 -0.1303 -0.5585 -1.4717
25293SOL     OW77555   4.425   3.396   2.143 -0.2078  0.2613  0.1180
25293SOL    HW177556   4.513   3.401   2.105 -0.4231  1.4988 -0.2189
25293SOL    HW277557   4.426   3.460   2.214 -0.3454 -0.8471  1.1423
25294SOL     OW77558   2.412   2.194   5.393 -0.0352 -0.1953 -0.7000
25294SOL    HW177559   2.422   2.103   5.421 -1.9043 -0.3958 -0.6470
25294SOL    HW277560   2.416   2.190   5.297  1.3978 -0.1205 -0.6621
25295SOL     OW77561   0.982   1.415   4.589 -0.1579  0.1451 -0.4130
25295SOL    HW177562   0.958   1.501   4.623 -0.7905 -0.2824  0.2458
25295SOL    HW277563   0.977   1.357   4.665 -1.2604 -0.7606 -1.1658
25296SOL     OW77564   4.956   8.934   2.659  0.2304 -0.2721 -0.3601
25296SOL    HW177565   5.014   8.973   2.593 -2.4912  2.4143 -1.2658
25296SOL    HW277566   4.960   8.994   2.733 -1.2240 -0.1717 -0.3598
25297SOL     OW77567   5.443   3.063   5.269 -0.4343 -0.2132 -0.3943
25297SOL    HW177568   5.490   2.982   5.249 -2.2155 -1.2146 -0.5627
25297SOL    HW277569   5.351   3.038   5.274 -1.1171  1.9518 -1.3346
25298SOL     OW77570   2.566   5.323   3.204 -0.0528 -0.2009 -0.5744
25298SOL    HW177571   2.627   5.253   3.227  1.0997  1.2299  0.8464
25298SOL    HW277572   2.609   5.403   3.234 -0.8563  1.2343 -3.1403
25299SOL     OW77573   9.071   6.431   7.293 -0.1832  0.3306  0.2268
25299SOL    HW177574   9.047   6.345   7.258  0.6023 -0.0558  0.6371
25299SOL    HW277575   9.010   6.491   7.251  0.5724 -0.1563 -1.5857
25300SOL     OW77576   8.593   1.891   6.820 -0.3858 -0.0886  0.1313
25300SOL    HW177577   8.664   1.907   6.883 -1.0551  0.6389  0.7123
25300SOL    HW277578   8.556   1.807   6.846 -1.4515  0.7662  1.4928
25301SOL     OW77579   1.909   4.590   7.842 -0.5661  0.0509  0.5128
25301SOL    HW177580   1.911   4.680   7.873 -3.5574  0.6964 -1.0100
25301SOL    HW277581   1.880   4.538   7.917 -1.1472  0.6799  0.7251
25302SOL     OW77582   3.242   5.177   3.189  0.5840 -0.0428  0.1060
25302SOL    HW177583   3.245   5.149   3.097  1.9285 -0.4305  0.2528
25302SOL    HW277584   3.173   5.123   3.228 -0.5657  0.7194 -0.8612
25303SOL     OW77585   0.653   9.271   3.952  0.9471  0.1293  0.0578
25303SOL    HW177586   0.584   9.223   3.999 -0.2118  0.6271 -1.0800
25303SOL    HW277587   0.706   9.311   4.021 -0.2231  0.1772  0.9584
25304SOL     OW77588   1.585   7.192   2.104  0.2634  0.1734 -0.2706
25304SOL    HW177589   1.663   7.136   2.103  0.0993 -0.0990  0.6373
25304SOL    HW277590   1.618   7.279   2.123  0.3626  0.0785 -0.0008
25305SOL     OW77591   4.238   3.711   3.441  0.5375 -0.8246  0.0838
25305SOL    HW177592   4.316   3.712   3.385  0.2038  0.7438 -0.3993
25305SOL    HW277593   4.173   3.763   3.392 -0.3333 -0.9177  1.1239
25306SOL     OW77594   2.645   6.456   6.939  0.4088  0.1011 -0.1282
25306SOL    HW177595   2.646   6.471   7.034  0.1473 -0.4856 -0.0318
25306SOL    HW277596   2.658   6.543   6.901  1.0811  0.2587  0.4477
25307SOL     OW77597   8.609   0.555   4.752  0.3994 -0.0112 -0.0169
25307SOL    HW177598   8.672   0.627   4.755  0.3722  0.0112  0.0215
25307SOL    HW277599   8.661   0.478   4.728  0.5257 -0.0917  0.5253
25308SOL     OW77600   8.232   8.980   3.293  0.8274  0.3621 -0.5049
25308SOL    HW177601   8.186   8.971   3.376  0.2135  1.2648 -0.7283
25308SOL    HW277602   8.201   8.907   3.240  1.5621 -0.4771  0.2014
25309SOL     OW77603   8.355   5.161   7.219  0.5799 -0.1248 -0.1829
25309SOL    HW177604   8.361   5.101   7.294 -1.0158 -3.7908 -2.8058
25309SOL    HW277605   8.414   5.124   7.153  0.7291  2.0965 -1.3593
25310SOL     OW77606   6.663   4.306   3.842 -0.3297  0.0286 -0.2207
25310SOL    HW177607   6.644   4.223   3.798 -0.3212  0.4606 -1.0483
25310SOL    HW277608   6.750   4.294   3.881 -0.5522 -0.5294  0.1147
25311SOL     OW77609   8.843   2.926   8.927  0.0978  0.1327  0.4133
25311SOL    HW177610   8.884   2.976   8.998  0.3965 -0.2694  0.5279
25311SOL    HW277611   8.811   2.846   8.969  2.1833 -1.0981 -0.2875
25312SOL     OW77612   7.378   4.804   0.547  0.6463  0.2954 -0.5007
25312SOL    HW177613   7.458   4.825   0.499  0.3805  2.1563 -0.1759
25312SOL    HW277614   7.400   4.820   0.639  0.7666 -2.0001 -0.1004
25313SOL     OW77615   5.637   8.345   0.355 -0.2129 -0.1727 -0.5308
25313SOL    HW177616   5.614   8.256   0.330 -0.4906 -0.4866  0.7742
25313SOL    HW277617   5.732   8.346   0.361 -0.1138  0.0057 -1.8915
25314SOL     OW77618   5.725   0.947   5.643  0.1470  0.1479  0.3145
25314SOL    HW177619   5.703   0.860   5.676 -1.2169  0.5812  0.5899
25314SOL    HW277620   5.719   0.939   5.548  1.0137 -0.3159  0.3013
25315SOL     OW77621   4.425   3.109   5.447  0.2239  0.1109  0.1657
25315SOL    HW177622   4.337   3.073   5.443  0.4922 -0.6380  0.8641
25315SOL    HW277623   4.478   3.050   5.392  0.2553  0.6795 -0.4255
25316SOL     OW77624   7.093   7.456   1.561  0.3772 -0.3915  0.0230
25316SOL    HW177625   7.040   7.378   1.547 -1.0255  0.4796  0.3354
25316SOL    HW277626   7.160   7.453   1.493 -1.4472 -0.3472 -1.8167
25317SOL     OW77627   9.222   1.038   2.509  0.1641 -0.2032 -0.8503
25317SOL    HW177628   9.152   1.091   2.548  1.7856  2.5472 -1.5371
25317SOL    HW277629   9.294   1.044   2.572  1.4557  1.0870 -2.4110
25318SOL     OW77630   7.177   5.740   7.438  0.6537  0.1808 -0.0757
25318SOL    HW177631   7.109   5.674   7.424 -0.3685  0.7914  1.8990
25318SOL    HW277632   7.230   5.706   7.510  0.5447  1.1881  0.4804
25319SOL     OW77633   7.479   0.615   2.858  0.6416  0.0859 -0.7602
25319SOL    HW177634   7.473   0.590   2.766 -0.6297  0.0203 -0.6713
25319SOL    HW277635   7.441   0.702   2.861 -0.5927 -0.4636 -0.0878
25320SOL     OW77636   7.455   0.737   1.770 -0.0200  0.0008 -0.5872
25320SOL    HW177637   7.410   0.698   1.845 -0.5177 -0.2945 -1.0417
25320SOL    HW277638   7.393   0.800   1.735  0.5842  0.8376 -0.1697
25321SOL     OW77639   6.548   2.049   8.432  0.3895  0.3774 -0.1219
25321SOL    HW177640   6.521   2.087   8.516  0.1690  1.8295 -0.8362
25321SOL    HW277641   6.599   1.971   8.456 -0.4111  0.2865  1.3361
25322SOL     OW77642   0.954   6.611   1.712  0.5990  0.6295  0.1301
25322SOL    HW177643   1.005   6.529   1.713 -1.1282 -0.4710  0.1861
25322SOL    HW277644   0.954   6.640   1.803  1.7172  1.0264  0.0137
25323SOL     OW77645   6.801   9.268   1.490  0.1183  0.2459 -0.0111
25323SOL    HW177646   6.735   9.329   1.457 -0.8936 -0.5133  0.5653
25323SOL    HW277647   6.871   9.324   1.523 -2.1649  1.2405  3.4136
25324SOL     OW77648   4.548   0.720   8.992  0.5856 -0.6207  0.2979
25324SOL    HW177649   4.529   0.708   9.085  0.7896  0.0167  0.4305
25324SOL    HW277650   4.548   0.815   8.980  3.6970 -0.5518  0.3424
25325SOL     OW77651   2.544   7.716   5.351 -0.2404 -0.1387 -0.2401
25325SOL    HW177652   2.484   7.691   5.422  0.0106 -2.4489 -0.7905
25325SOL    HW277653   2.631   7.698   5.386 -0.0376  0.1120 -0.6119
25326SOL     OW77654   8.165   7.268   3.759  0.1067  0.5096 -0.2483
25326SOL    HW177655   8.075   7.253   3.730  0.0790  1.6720 -0.7974
25326SOL    HW277656   8.188   7.189   3.808 -2.5974  1.7376  3.2809
25327SOL     OW77657   3.289   8.987   1.414  0.2313 -0.5175  0.6356
25327SOL    HW177658   3.314   8.904   1.373  0.9536 -0.4989  1.0213
25327SOL    HW277659   3.346   9.052   1.372  0.2159 -0.3371  0.8937
25328SOL     OW77660   0.255   4.755   4.622 -0.5977 -0.0112  0.2723
25328SOL    HW177661   0.281   4.694   4.553  2.4209  1.1320  0.3250
25328SOL    HW277662   0.242   4.838   4.578 -2.0003 -0.0461  0.6035
25329SOL     OW77663   7.149   5.837   2.794  0.1571 -0.2588 -0.2148
25329SOL    HW177664   7.177   5.920   2.831  1.5179 -0.2836 -1.1673
25329SOL    HW277665   7.198   5.829   2.712 -2.1622 -0.6060 -1.6066
25330SOL     OW77666   8.420   3.103   7.352  0.1113 -0.2454 -0.4479
25330SOL    HW177667   8.472   3.111   7.272 -0.4775 -0.5798 -0.8690
25330SOL    HW277668   8.349   3.167   7.340  1.1496  1.1668  0.7023
25331SOL     OW77669   3.899   8.396   3.241 -0.6347  0.0828  0.2043
25331SOL    HW177670   3.845   8.462   3.286 -1.9009  0.2547 -1.5466
25331SOL    HW277671   3.944   8.445   3.172 -2.2898 -1.0390 -1.7001
25332SOL     OW77672   6.094   7.217   2.579  0.3910 -0.1885  0.7893
25332SOL    HW177673   6.037   7.288   2.609 -0.3046 -0.1814 -0.5405
25332SOL    HW277674   6.081   7.147   2.643 -1.1794 -0.2232  0.4518
25333SOL     OW77675   0.848   1.656   7.391  0.5334 -0.0442 -0.0263
25333SOL    HW177676   0.790   1.588   7.425 -0.8316  0.9464 -0.3613
25333SOL    HW277677   0.859   1.717   7.465  1.7965 -0.6315  0.2905
25334SOL     OW77678   2.492   8.594   5.489 -0.1135  0.0673 -0.3735
25334SOL    HW177679   2.501   8.598   5.394  0.0921  0.3409 -0.3423
25334SOL    HW277680   2.422   8.529   5.503  0.9324 -1.1505 -0.6553
25335SOL     OW77681   3.369   3.731   2.532  0.3804 -0.2489  0.3137
25335SOL    HW177682   3.316   3.715   2.609 -0.1422 -0.0080  0.0043
25335SOL    HW277683   3.419   3.650   2.520  0.7722 -0.1345  1.1395
25336SOL     OW77684   9.127   5.550   7.832 -0.5506  0.8741 -0.5495
25336SOL    HW177685   9.134   5.578   7.924  0.0745  0.5943 -0.5081
25336SOL    HW277686   9.198   5.487   7.821 -1.1867  0.2323 -0.9862
25337SOL     OW77687   2.069   2.790   4.933 -0.0744 -0.3903 -0.3409
25337SOL    HW177688   2.116   2.830   5.005  1.5370 -0.5716 -1.2663
25337SOL    HW277689   2.012   2.859   4.899 -0.4851 -0.1702  0.7758
25338SOL     OW77690   6.341   4.936   4.286 -0.4139 -0.0722 -0.7149
25338SOL    HW177691   6.372   4.957   4.374 -0.6853 -0.7106 -0.4622
25338SOL    HW277692   6.247   4.954   4.289 -0.5751 -0.8922 -0.6190
25339SOL     OW77693   0.383   8.939   1.131 -0.5904 -0.2980  0.5359
25339SOL    HW177694   0.316   8.984   1.080 -1.0909 -0.7717  0.7828
25339SOL    HW277695   0.384   8.984   1.215 -1.2434 -0.8899  0.8602
25340SOL     OW77696   3.179   1.007   1.216 -0.3377  0.4493 -0.0899
25340SOL    HW177697   3.206   1.002   1.308  1.4827 -0.3906 -0.6572
25340SOL    HW277698   3.087   0.982   1.217  0.1039 -1.2082  1.3089
25341SOL     OW77699   2.499   0.631   2.152 -0.0187  0.1384  0.1771
25341SOL    HW177700   2.531   0.545   2.178 -1.3249 -0.1571  0.8900
25341SOL    HW277701   2.475   0.621   2.060  0.8567  0.0431 -0.0387
25342SOL     OW77702   0.794   1.620   3.867  0.5276  0.5611 -0.9674
25342SOL    HW177703   0.885   1.589   3.871  0.8706  1.7382  1.6781
25342SOL    HW277704   0.765   1.618   3.958 -2.1302  0.1608 -1.8034
25343SOL     OW77705   1.036   6.984   4.722  0.0864  0.2074 -0.3037
25343SOL    HW177706   1.105   7.001   4.657  0.6972  0.1381  0.3118
25343SOL    HW277707   1.054   7.046   4.793 -0.9881  0.7528 -0.4990
25344SOL     OW77708   1.817   1.116   7.719 -0.0640 -0.1181 -0.1443
25344SOL    HW177709   1.757   1.187   7.744 -1.2195 -0.4368 -1.9332
25344SOL    HW277710   1.816   1.116   7.623 -0.3261 -2.7419 -0.1837
25345SOL     OW77711   2.298   6.261   8.294 -0.6243 -0.2627  0.1048
25345SOL    HW177712   2.233   6.253   8.224 -0.8147  0.9809  0.1392
25345SOL    HW277713   2.343   6.343   8.277 -0.5090 -0.0611  1.3105
25346SOL     OW77714   4.617   3.438   2.492  0.5992  0.5954 -0.1209
25346SOL    HW177715   4.600   3.527   2.522 -1.0869 -0.1454  1.1423
25346SOL    HW277716   4.684   3.449   2.424  1.5628  2.6603  1.1108
25347SOL     OW77717   5.594   8.810   2.492  0.4012 -0.4149 -0.6783
25347SOL    HW177718   5.668   8.790   2.436 -0.3004 -0.3801 -1.6194
25347SOL    HW277719   5.587   8.905   2.491  0.7553 -0.3756 -0.0468
25348SOL     OW77720   0.772   5.492   5.736 -0.0389 -0.1494  0.0992
25348SOL    HW177721   0.829   5.473   5.810  0.4913  1.3814  0.1127
25348SOL    HW277722   0.767   5.410   5.687  1.5946 -0.5064  0.5050
25349SOL     OW77723   7.706   1.358   8.399 -0.4802  0.0183  0.4438
25349SOL    HW177724   7.743   1.412   8.469  2.3540 -0.4193 -0.6436
25349SOL    HW277725   7.781   1.311   8.362 -1.9266  0.0073 -2.6836
25350SOL     OW77726   7.674   1.018   2.740  0.5740  0.1183 -0.0369
25350SOL    HW177727   7.725   1.022   2.659  0.4542 -0.0533 -0.1221
25350SOL    HW277728   7.617   1.094   2.737 -0.6455 -0.8090 -0.9350
25351SOL     OW77729   4.888   8.116   7.190  0.1225 -0.2652 -0.3915
25351SOL    HW177730   4.910   8.189   7.132 -0.7816  0.3772  0.0459
25351SOL    HW277731   4.814   8.149   7.241  0.8746 -0.8369  1.0910
25352SOL     OW77732   5.674   5.236   8.538 -0.0202 -0.9758 -0.7957
25352SOL    HW177733   5.580   5.247   8.525  0.1465 -0.8173 -1.9146
25352SOL    HW277734   5.713   5.250   8.452  1.2420  1.3036  0.0943
25353SOL     OW77735   7.570   1.991   6.614  0.4357 -0.1011 -0.5727
25353SOL    HW177736   7.600   1.907   6.581 -0.5109 -0.7383  0.1722
25353SOL    HW277737   7.561   1.979   6.708 -0.2916  0.6430 -0.5343
25354SOL     OW77738   8.894   0.236   4.081 -0.1799 -0.0357 -0.4252
25354SOL    HW177739   8.907   0.186   4.162 -1.3930 -0.2746 -0.3572
25354SOL    HW277740   8.885   0.169   4.013 -0.5412  0.1219 -0.5353
25355SOL     OW77741   4.525   2.083   3.927  0.3670  0.6622  0.0617
25355SOL    HW177742   4.476   2.100   4.008 -1.0515  0.4418 -0.7281
25355SOL    HW277743   4.525   2.167   3.881  0.1925  0.5088 -0.2232
25356SOL     OW77744   5.163   7.895   5.509 -0.5270  0.2645 -0.2714
25356SOL    HW177745   5.181   7.963   5.444  0.4276  0.2545 -0.0260
25356SOL    HW277746   5.101   7.935   5.570 -0.1250  0.8425 -0.2425
25357SOL     OW77747   0.856   8.432   4.973 -0.3317  0.1843  0.3742
25357SOL    HW177748   0.844   8.509   4.918 -2.0074  0.3237  0.8835
25357SOL    HW277749   0.832   8.462   5.061  0.7469 -0.4562  0.8936
25358SOL     OW77750   5.560   2.357   6.645 -0.2036 -0.1456 -0.0200
25358SOL    HW177751   5.650   2.357   6.611 -0.2938  0.9092 -0.2765
25358SOL    HW277752   5.543   2.266   6.666  1.0562 -0.3072  0.3550
25359SOL     OW77753   4.515   7.607   7.847  0.5225 -0.1308  0.7015
25359SOL    HW177754   4.594   7.623   7.897  0.8632  1.8019 -0.4142
25359SOL    HW277755   4.443   7.626   7.907  0.8928 -1.0419  1.4418
25360SOL     OW77756   0.295   2.196   4.779 -0.7092  0.0181 -0.0871
25360SOL    HW177757   0.211   2.150   4.774 -0.6136 -0.0581 -0.9379
25360SOL    HW277758   0.350   2.153   4.714 -0.0653  0.1924  0.3415
25361SOL     OW77759   5.268   8.796   6.771 -0.0602  0.2669  0.1957
25361SOL    HW177760   5.185   8.844   6.777  0.6010  1.6456 -1.2853
25361SOL    HW277761   5.295   8.808   6.680  1.6976 -0.2973  0.6391
25362SOL     OW77762   1.826   2.387   0.445 -0.0871  0.1091  0.5101
25362SOL    HW177763   1.903   2.437   0.475  1.5150 -1.8567 -0.2203
25362SOL    HW277764   1.805   2.329   0.518  0.6537 -1.0730 -0.1978
25363SOL     OW77765   4.511   6.858   5.818  0.0942  0.0172 -0.4241
25363SOL    HW177766   4.438   6.829   5.763  1.2485 -1.0553 -1.4308
25363SOL    HW277767   4.543   6.777   5.860  0.8536  0.4342 -0.1780
25364SOL     OW77768   8.412   5.921   8.175 -0.1770  0.3465 -0.0154
25364SOL    HW177769   8.436   6.002   8.220  0.1560 -0.8800  2.0484
25364SOL    HW277770   8.390   5.859   8.245  0.9291 -1.7760 -1.4903
25365SOL     OW77771   0.514   0.404   6.731 -0.7163 -0.1958  0.6759
25365SOL    HW177772   0.511   0.497   6.755 -1.6049  0.2583 -1.1088
25365SOL    HW277773   0.464   0.399   6.650  0.0441 -2.1026  0.3053
25366SOL     OW77774   1.907   1.693   6.792  0.4352 -0.0021  0.2742
25366SOL    HW177775   1.973   1.640   6.747  0.2361 -3.4061  3.7659
25366SOL    HW277776   1.824   1.665   6.754  0.6147  0.7201 -0.6665
25367SOL     OW77777   0.836   1.203   1.912 -0.2541 -0.4859  0.4637
25367SOL    HW177778   0.805   1.112   1.913 -0.0769 -0.5418  0.8383
25367SOL    HW277779   0.758   1.255   1.931 -0.4959 -0.5196 -0.4237
25368SOL     OW77780   7.268   2.296   1.505  0.1702 -0.0346  0.2389
25368SOL    HW177781   7.302   2.367   1.450  0.2978 -0.4680 -0.2570
25368SOL    HW277782   7.178   2.283   1.474 -0.1340  0.4806  0.9085
25369SOL     OW77783   0.818   6.088   7.732  0.4643  0.7612 -0.4401
25369SOL    HW177784   0.850   6.038   7.807 -1.7688  0.0552  0.0909
25369SOL    HW277785   0.772   6.162   7.771  2.0141  2.1598 -1.1957
25370SOL     OW77786   4.698   3.117   1.191  0.0875 -0.2805 -0.4144
25370SOL    HW177787   4.703   3.140   1.099 -0.4163 -0.2136 -0.4261
25370SOL    HW277788   4.744   3.189   1.236  0.3565 -0.3291 -0.6124
25371SOL     OW77789   6.336   6.945   3.521 -0.1963  0.2679 -0.4220
25371SOL    HW177790   6.281   6.962   3.445  0.8913  0.6072 -1.1375
25371SOL    HW277791   6.392   6.872   3.495  0.1723  0.3740  0.0644
25372SOL     OW77792   7.746   3.035   3.074 -0.1277 -0.2258 -0.0879
25372SOL    HW177793   7.819   3.088   3.042 -1.8872  2.3600  0.1188
25372SOL    HW277794   7.757   3.034   3.169  0.3523 -0.9189 -0.1465
25373SOL     OW77795   0.285   4.423   0.716 -0.3229  0.0854  0.5707
25373SOL    HW177796   0.324   4.487   0.776 -0.6420 -1.1190  2.1189
25373SOL    HW277797   0.359   4.371   0.685 -0.0550  1.2485 -0.7477
25374SOL     OW77798   8.850   0.618   2.135  0.6881  0.2525 -0.0431
25374SOL    HW177799   8.862   0.679   2.062 -2.1157  1.8145  0.7274
25374SOL    HW277800   8.785   0.554   2.103 -1.5953  1.7290  1.4562
25375SOL     OW77801   8.099   8.693   0.101  0.5556  0.0710  0.9144
25375SOL    HW177802   8.121   8.605   0.131 -1.1681  0.0111  2.1124
25375SOL    HW277803   8.007   8.687   0.074  0.6521  1.3152  0.2527
25376SOL     OW77804   7.946   4.500   6.404  0.2945  0.0227  0.4714
25376SOL    HW177805   7.851   4.500   6.409  0.2202  0.6378 -0.8811
25376SOL    HW277806   7.972   4.591   6.418  0.5919  0.1058 -0.5284
25377SOL     OW77807   2.208   5.741   6.015 -0.1648 -0.1113 -0.5531
25377SOL    HW177808   2.239   5.658   5.980  1.5093  0.7423 -1.1458
25377SOL    HW277809   2.112   5.734   6.011 -0.0375 -1.6408 -1.4565
25378SOL     OW77810   3.443   6.508   5.655 -0.6199 -0.3025 -0.1147
25378SOL    HW177811   3.441   6.567   5.580  0.7535  0.5223  0.4825
25378SOL    HW277812   3.421   6.422   5.618  0.0860  0.0771 -1.4633
25379SOL     OW77813   7.737   3.302   3.262 -0.1362  0.3107 -0.5537
25379SOL    HW177814   7.715   3.395   3.254  2.0164  0.8402 -0.5378
25379SOL    HW277815   7.652   3.258   3.268 -1.1860  2.2443 -0.8316
25380SOL     OW77816   1.732   3.749   0.888 -0.0586 -0.1954 -0.1841
25380SOL    HW177817   1.797   3.714   0.948 -0.9432  0.4587  1.1895
25380SOL    HW277818   1.677   3.674   0.865 -1.3341  0.0342  1.9550
25381SOL     OW77819   3.167   8.776   6.699  0.4623 -0.4236  0.5078
25381SOL    HW177820   3.131   8.807   6.783  0.4584 -0.2260  0.4330
25381SOL    HW277821   3.250   8.735   6.722  0.5228 -0.2547  0.5944
25382SOL     OW77822   7.768   0.609   7.463 -0.1615 -0.3752  0.3911
25382SOL    HW177823   7.777   0.637   7.372 -1.2214  1.3887  0.8121
25382SOL    HW277824   7.795   0.685   7.515 -2.8138 -0.1638  1.5431
25383SOL     OW77825   9.105   0.484   4.127 -0.3907  0.2763 -0.5210
25383SOL    HW177826   9.061   0.569   4.137 -0.4892  0.2292 -0.5545
25383SOL    HW277827   9.039   0.420   4.154 -1.3154  0.0109 -3.2774
25384SOL     OW77828   8.609   4.765   1.283 -0.0270  0.0465 -0.1721
25384SOL    HW177829   8.576   4.702   1.219  0.5887  0.9415 -1.3941
25384SOL    HW277830   8.532   4.792   1.333 -0.6267 -0.1348 -1.0056
25385SOL     OW77831   5.880   6.434   2.530  0.2775 -0.1161  0.1457
25385SOL    HW177832   5.834   6.352   2.546 -0.9383  0.6369  0.5599
25385SOL    HW277833   5.883   6.443   2.435 -2.4656  0.9431  0.1241
25386SOL     OW77834   8.915   3.040   6.941 -0.0453 -0.6809 -0.1610
25386SOL    HW177835   9.002   3.079   6.950  0.1087 -1.5763  2.5365
25386SOL    HW277836   8.855   3.113   6.956  0.2537 -1.0295  2.9302
25387SOL     OW77837   8.850   8.377   5.649  0.3048 -0.3026  0.2292
25387SOL    HW177838   8.851   8.330   5.565  0.6749 -0.0466  0.0893
25387SOL    HW277839   8.773   8.344   5.694 -0.5189  0.3637 -0.6694
25388SOL     OW77840   0.958   4.927   3.348  0.1122 -0.3310 -0.2212
25388SOL    HW177841   0.867   4.954   3.336  0.7340  1.5057 -1.0135
25388SOL    HW277842   0.979   4.952   3.438  0.3500  0.8785 -0.6015
25389SOL     OW77843   4.199   6.571   5.877 -0.0652  0.0334 -0.2316
25389SOL    HW177844   4.163   6.602   5.961 -0.8264 -0.3295 -0.4252
25389SOL    HW277845   4.260   6.502   5.901 -0.1662  0.0368  0.0343
25390SOL     OW77846   0.580   5.117   0.658  0.0415  0.0117 -0.0519
25390SOL    HW177847   0.606   5.091   0.746  0.1871  0.4804  0.0438
25390SOL    HW277848   0.502   5.171   0.670  0.2263  0.3119 -0.1846
25391SOL     OW77849   3.992   5.911   8.268  0.2709  0.0901 -0.2198
25391SOL    HW177850   4.084   5.914   8.240  0.6485 -0.7237  0.8966
25391SOL    HW277851   3.942   5.924   8.187  1.3704  2.3394 -0.5575
25392SOL     OW77852   6.332   2.554   1.663 -0.2481  0.2379  0.2970
25392SOL    HW177853   6.344   2.498   1.586  0.5455  0.3502  0.3336
25392SOL    HW277854   6.395   2.521   1.727 -0.9515  0.1060  0.9234
25393SOL     OW77855   3.385   8.702   8.940  0.0218  0.4046  0.1374
25393SOL    HW177856   3.375   8.623   8.887  0.7825  0.6636 -0.4036
25393SOL    HW277857   3.439   8.673   9.014  1.9698  0.8397 -1.0604
25394SOL     OW77858   5.264   2.413   3.184 -0.6026 -0.0224 -0.6836
25394SOL    HW177859   5.226   2.340   3.134  0.3436 -0.4998 -0.7014
25394SOL    HW277860   5.332   2.448   3.127  1.0134 -1.0522  0.5757
25395SOL     OW77861   8.680   7.084   4.921  0.4318 -0.3483 -0.3342
25395SOL    HW177862   8.660   7.171   4.955  0.4389 -0.0842 -0.9912
25395SOL    HW277863   8.763   7.095   4.874  1.2724 -1.0682  0.9642
25396SOL     OW77864   0.299   4.166   7.014 -0.1865 -0.3337  0.4933
25396SOL    HW177865   0.279   4.259   7.022 -3.5731 -0.9352 -0.1479
25396SOL    HW277866   0.304   4.150   6.920 -0.0490 -0.8760  0.5872
25397SOL     OW77867   3.502   0.161   5.325 -0.1292  0.9506 -0.1379
25397SOL    HW177868   3.429   0.191   5.270 -0.1140  0.8887 -0.1923
25397SOL    HW277869   3.462   0.103   5.389  0.1563 -0.8003 -1.4898
25398SOL     OW77870   9.038   6.270   9.024  0.1894  0.4133 -0.1415
25398SOL    HW177871   9.103   6.259   8.954  0.4344  0.9000  0.0030
25398SOL    HW277872   8.975   6.332   8.987 -0.2972 -0.1970 -0.3469
25399SOL     OW77873   6.745   7.577   2.352 -0.7268 -0.4192  0.3893
25399SOL    HW177874   6.824   7.629   2.369 -1.0794  0.0221  0.6899
25399SOL    HW277875   6.712   7.555   2.439 -1.1323 -0.3061  0.2642
25400SOL     OW77876   0.927   1.650   0.331  0.0936  0.1302 -0.3617
25400SOL    HW177877   0.836   1.644   0.302 -0.1640  0.1411  0.4263
25400SOL    HW277878   0.931   1.731   0.382  0.2919 -0.3761  0.4481
25401SOL     OW77879   6.981   0.304   0.589  0.6462 -0.2312  0.0680
25401SOL    HW177880   7.030   0.386   0.589  0.8931 -0.3440 -1.6373
25401SOL    HW277881   6.957   0.289   0.680  0.1822  1.9804  0.3272
25402SOL     OW77882   5.291   1.422   1.598 -0.1405 -0.1779  0.0672
25402SOL    HW177883   5.311   1.448   1.688  1.8738  1.5515 -0.8513
25402SOL    HW277884   5.254   1.501   1.558 -1.3276 -1.0305 -0.5549
25403SOL     OW77885   6.015   2.926   2.767  0.3171 -0.4115  0.3734
25403SOL    HW177886   6.077   2.986   2.726 -0.4549  1.4321  1.8408
25403SOL    HW277887   5.930   2.967   2.753 -0.7119 -3.2114 -2.1736
25404SOL     OW77888   8.740   0.943   8.054 -0.5295 -0.2725  0.5007
25404SOL    HW177889   8.777   1.018   8.102  2.0156  0.0406 -1.7968
25404SOL    HW277890   8.686   0.898   8.118  0.0075  2.0608  2.6856
25405SOL     OW77891   3.796   5.068   4.308 -0.6278 -0.1027  0.0414
25405SOL    HW177892   3.733   5.046   4.240  0.5402  0.8403 -1.3784
25405SOL    HW277893   3.853   4.991   4.313 -0.9735 -0.3457  0.2644
25406SOL     OW77894   3.466   6.799   1.212 -0.0331  0.3284 -0.7879
25406SOL    HW177895   3.507   6.883   1.194 -0.4589  0.3384 -1.7449
25406SOL    HW277896   3.389   6.797   1.156 -2.6511  1.2786  2.6574
25407SOL     OW77897   7.677   4.919   4.082 -0.0286  0.2447 -0.0073
25407SOL    HW177898   7.681   4.964   3.998 -0.7123 -1.9008 -1.2293
25407SOL    HW277899   7.651   4.987   4.144  0.0910  1.7783 -1.5896
25408SOL     OW77900   8.583   3.775   4.913  0.2133 -0.4734 -0.4058
25408SOL    HW177901   8.659   3.742   4.864  0.9626 -2.6156  2.1159
25408SOL    HW277902   8.608   3.766   5.005 -2.9983 -0.9362  0.4696
25409SOL     OW77903   0.317   4.348   1.348 -0.1997  0.2396 -0.4894
25409SOL    HW177904   0.360   4.265   1.371 -0.1892  0.1396 -0.8600
25409SOL    HW277905   0.229   4.340   1.385  0.5186  1.0062  1.4490
25410SOL     OW77906   2.261   5.848   8.972  0.2644 -0.0344  0.3108
25410SOL    HW177907   2.295   5.894   8.896  1.7434  0.0771  1.0253
25410SOL    HW277908   2.173   5.885   8.984 -0.1109 -0.2908 -1.5104
25411SOL     OW77909   4.344   5.117   7.951 -0.2365  0.1539 -0.2039
25411SOL    HW177910   4.437   5.130   7.968  0.1536 -0.9318 -1.4818
25411SOL    HW277911   4.306   5.205   7.957  0.3394  0.2339  3.3128
25412SOL     OW77912   3.734   7.389   1.982 -0.0371 -0.0997  0.9811
25412SOL    HW177913   3.806   7.429   1.933 -0.4962  1.5019  1.5922
25412SOL    HW277914   3.777   7.338   2.051  0.5536 -0.6606  0.2037
25413SOL     OW77915   3.778   7.012   1.314 -0.3282  0.1925  0.4541
25413SOL    HW177916   3.854   6.959   1.289 -0.5144  0.4010 -0.5914
25413SOL    HW277917   3.813   7.079   1.372  0.0421 -0.5895  1.1577
25414SOL     OW77918   5.153   5.181   6.355  0.3783 -0.3510 -0.8322
25414SOL    HW177919   5.204   5.134   6.289 -0.1130 -2.4116  0.2032
25414SOL    HW277920   5.188   5.149   6.439 -1.2459 -0.2653 -0.1162
25415SOL     OW77921   7.553   0.716   4.775  0.1552  0.8888  0.3449
25415SOL    HW177922   7.533   0.805   4.747  0.4672  1.2488  1.2428
25415SOL    HW277923   7.610   0.681   4.707 -2.6820  0.1823 -1.7777
25416SOL     OW77924   6.411   1.585   7.546  0.5765  0.2138 -0.3190
25416SOL    HW177925   6.491   1.545   7.581  0.7791  0.7271 -0.2014
25416SOL    HW277926   6.390   1.655   7.608  0.4429  0.5550 -0.7480
25417SOL     OW77927   3.112   1.050   7.127 -0.5414 -0.1085  0.2618
25417SOL    HW177928   3.142   1.017   7.043  0.5766 -1.0185  1.0014
25417SOL    HW277929   3.155   0.994   7.192  0.0055  1.6693  1.4919
25418SOL     OW77930   0.117   0.856   5.696  0.3223  0.1845 -0.1140
25418SOL    HW177931   0.198   0.901   5.718  1.1494 -1.5518  0.4950
25418SOL    HW277932   0.051   0.896   5.753  1.4046 -0.6070  1.7645
25419SOL     OW77933   3.133   0.895   2.905  0.2417 -0.1246  0.6114
25419SOL    HW177934   3.162   0.871   2.817 -1.0047 -0.0891  0.1770
25419SOL    HW277935   3.168   0.983   2.918  1.9246 -0.8216  0.8522
25420SOL     OW77936   9.211   6.475   6.562 -0.7415  0.4861 -0.6161
25420SOL    HW177937   9.249   6.412   6.623  0.9777  0.9775 -1.1706
25420SOL    HW277938   9.159   6.421   6.502 -0.9743 -0.1882  0.1773
25421SOL     OW77939   8.496   6.374   1.903  0.0575  0.2961 -0.4888
25421SOL    HW177940   8.442   6.364   1.825  0.4808 -2.5231 -0.4926
25421SOL    HW277941   8.584   6.386   1.870 -0.0688  1.2667 -0.4634
25422SOL     OW77942   5.383   4.398   2.387  0.0343  0.5713  0.2730
25422SOL    HW177943   5.380   4.394   2.292  0.2781 -1.5528  0.3303
25422SOL    HW277944   5.468   4.438   2.407  0.2913  0.3528 -0.3905
25423SOL     OW77945   1.673   2.598   8.603 -0.3398 -0.5983 -1.0540
25423SOL    HW177946   1.753   2.606   8.550  0.3765 -0.4828  0.0426
25423SOL    HW277947   1.698   2.543   8.677 -1.2271 -0.4021 -0.5989
25424SOL     OW77948   1.763   5.046   0.504 -0.0368 -0.2556  0.5382
25424SOL    HW177949   1.732   5.074   0.418 -0.3436 -2.1225  0.0209
25424SOL    HW277950   1.858   5.052   0.499 -0.0811  0.2367  0.2770
25425SOL     OW77951   6.267   2.342   6.026 -0.0146 -0.5892  0.3357
25425SOL    HW177952   6.289   2.278   5.958  0.8527  1.4282 -1.3272
25425SOL    HW277953   6.342   2.402   6.028 -0.8585  0.4406  1.7910
25426SOL     OW77954   1.444   7.630   3.316  0.1491  0.0126 -0.7936
25426SOL    HW177955   1.424   7.722   3.300  0.0720 -0.4348 -3.5109
25426SOL    HW277956   1.374   7.582   3.271  0.9000 -1.3745 -0.5024
25427SOL     OW77957   0.412   6.381   4.673 -0.0628 -0.3146 -0.0262
25427SOL    HW177958   0.422   6.474   4.697  0.5449 -0.5819  0.7770
25427SOL    HW277959   0.453   6.333   4.745 -0.4479 -1.2174 -0.4007
25428SOL     OW77960   1.986   9.146   7.908  0.2641 -0.2158  0.4752
25428SOL    HW177961   1.949   9.102   7.832 -2.1106  0.8705  0.9793
25428SOL    HW277962   2.072   9.177   7.878  0.7799 -2.6929 -0.7193
25429SOL     OW77963   0.443   1.624   5.117  0.2239 -0.3505  0.2526
25429SOL    HW177964   0.524   1.655   5.157  0.7101  0.3385 -1.2393
25429SOL    HW277965   0.405   1.701   5.077 -1.3003 -0.6300  1.1224
25430SOL     OW77966   5.704   3.152   3.175 -0.7408 -0.1397  0.3523
25430SOL    HW177967   5.694   3.105   3.257  1.4503  0.0342  0.7471
25430SOL    HW277968   5.743   3.089   3.115 -1.1557  0.1136 -0.1934
25431SOL     OW77969   6.457   4.531   4.768  0.0196 -0.1938  0.2455
25431SOL    HW177970   6.391   4.530   4.837 -1.0378  1.9103 -0.6899
25431SOL    HW277971   6.441   4.452   4.718 -0.4966 -0.7000  1.1889
25432SOL     OW77972   7.426   9.090   1.084 -0.7210  0.8345  0.4595
25432SOL    HW177973   7.396   9.176   1.056  1.0208  1.1208 -0.6174
25432SOL    HW277974   7.507   9.076   1.036  0.2926 -0.3768  2.4460
25433SOL     OW77975   5.430   8.874   5.098  0.1393  0.2731  0.1434
25433SOL    HW177976   5.447   8.806   5.033  2.1795  2.1014 -1.3196
25433SOL    HW277977   5.354   8.922   5.065  1.4971  1.5374 -1.2562
25434SOL     OW77978   4.763   7.470   4.531  0.7499 -0.6997 -0.7655
25434SOL    HW177979   4.674   7.438   4.516  0.3938 -0.2132  0.2790
25434SOL    HW277980   4.771   7.546   4.474  0.3567 -0.5068 -0.5656
25435SOL     OW77981   8.529   4.343   2.933  0.1203 -0.6578  0.3437
25435SOL    HW177982   8.447   4.308   2.968 -0.4305 -1.5754 -1.8041
25435SOL    HW277983   8.593   4.273   2.947 -0.2760 -1.3260 -1.1729
25436SOL     OW77984   6.843   7.475   6.849  0.2202 -0.1290 -0.1262
25436SOL    HW177985   6.819   7.467   6.757  1.1818  0.9191 -0.4729
25436SOL    HW277986   6.884   7.391   6.871  0.3379 -0.2316 -0.7497
25437SOL     OW77987   3.346   2.326   1.529  0.0730 -0.1358 -0.0418
25437SOL    HW177988   3.409   2.354   1.463  1.1996 -2.0274  0.1922
25437SOL    HW277989   3.385   2.247   1.568 -1.5193 -0.2190  1.4643
25438SOL     OW77990   3.279   6.100   3.846 -0.4180  0.2351 -0.4758
25438SOL    HW177991   3.244   6.012   3.834  0.3064  0.0920 -1.6279
25438SOL    HW277992   3.347   6.091   3.912 -0.6191  0.0102 -0.2993
25439SOL     OW77993   8.115   2.953   7.865 -0.1091  0.2325  0.5325
25439SOL    HW177994   8.056   2.979   7.936 -1.1134 -1.3780  0.2993
25439SOL    HW277995   8.060   2.953   7.787  0.9170  1.6718 -0.2239
25440SOL     OW77996   5.224   8.266   5.915 -0.0020 -0.4982 -0.1782
25440SOL    HW177997   5.211   8.218   5.997  1.5177  0.4553  0.6393
25440SOL    HW277998   5.239   8.198   5.850  0.5468 -1.2044  0.6765
25441SOL     OW77999   9.202   7.892   7.991  0.4105 -0.3323  0.0968
25441SOL    HW178000   9.228   7.806   7.957  1.8681 -0.9671  2.6262
25441SOL    HW278001   9.250   7.955   7.937  1.3480 -1.2396 -0.1585
25442SOL     OW78002   4.115   5.082   8.469  0.6390 -0.3144 -0.0150
25442SOL    HW178003   4.133   5.080   8.563  2.2126 -1.2716 -0.3075
25442SOL    HW278004   4.048   5.149   8.459  2.1810  1.5604  1.5208
25443SOL     OW78005   2.005   5.921   0.136 -0.3657 -0.3050  0.2109
25443SOL    HW178006   2.028   5.835   0.172  0.4594  0.0824  0.6399
25443SOL    HW278007   2.086   5.972   0.144 -0.5879  0.2292 -0.8897
25444SOL     OW78008   3.526   7.237   6.981 -0.4032 -0.2732 -0.2269
25444SOL    HW178009   3.450   7.256   7.035  1.0843 -0.0577  1.8296
25444SOL    HW278010   3.490   7.191   6.905 -2.8393  1.9161 -0.4478
25445SOL     OW78011   1.948   4.093   5.501 -0.0853 -0.1742  0.1356
25445SOL    HW178012   1.897   4.051   5.432 -0.3930  0.7129 -0.1928
25445SOL    HW278013   1.953   4.028   5.571 -1.2195 -0.4587 -0.0455
25446SOL     OW78014   3.973   0.223   4.278  0.3938 -0.2168  0.5432
25446SOL    HW178015   3.926   0.186   4.203 -0.9342  0.3345  1.0811
25446SOL    HW278016   4.012   0.303   4.244 -0.5071  0.2204  0.5239
25447SOL     OW78017   1.923   2.239   0.222 -0.4173 -0.5343 -0.5031
25447SOL    HW178018   1.888   2.296   0.290  1.6534  2.1131 -1.6044
25447SOL    HW278019   1.870   2.258   0.145 -0.6353 -1.1676 -0.5172
25448SOL     OW78020   0.166   0.298   0.078 -0.3912  0.1694  0.0015
25448SOL    HW178021   0.235   0.280   0.141 -0.5897 -0.0385  0.1645
25448SOL    HW278022   0.161   0.219   0.025  0.8520  0.9628 -1.3031
25449SOL     OW78023   0.766   2.017   8.269 -0.2352  0.7438  0.2609
25449SOL    HW178024   0.705   1.955   8.230 -0.3215  1.4934 -0.8277
25449SOL    HW278025   0.776   2.085   8.203  0.8564  1.2340  0.9224
25450SOL     OW78026   5.528   4.035   9.265 -0.0345  0.0558 -0.4356
25450SOL    HW178027   5.587   4.099   9.223 -1.1496  1.1816 -0.3033
25450SOL    HW278028   5.587   3.981   9.319  1.1086  0.0494 -1.6469
25451SOL     OW78029   6.236   5.882   9.141  0.1520  0.2703 -0.5302
25451SOL    HW178030   6.301   5.892   9.072 -0.5314  2.6501 -0.8674
25451SOL    HW278031   6.275   5.926   9.217  0.8262 -2.1782  0.5755
25452SOL     OW78032   4.964   5.892   7.672  0.5548 -0.5255  0.3928
25452SOL    HW178033   5.028   5.831   7.710 -0.3355 -2.3931 -1.0094
25452SOL    HW278034   4.921   5.841   7.602 -0.1993  1.7294 -0.8359
25453SOL     OW78035   5.944   4.713   1.999  0.4994 -0.0951 -0.3429
25453SOL    HW178036   5.999   4.791   1.988 -0.3317  0.7631  1.2350
25453SOL    HW278037   5.955   4.689   2.091 -1.4687 -0.1166 -0.0911
25454SOL     OW78038   8.738   5.066   7.649  0.4222  0.4808 -0.2857
25454SOL    HW178039   8.708   4.976   7.638 -0.2884  0.6734  0.0613
25454SOL    HW278040   8.801   5.079   7.578  1.8048 -0.8286  0.6897
25455SOL     OW78041   8.930   2.318   5.205  0.0527  0.6766  0.0826
25455SOL    HW178042   8.980   2.277   5.135  0.4147  0.5041  0.4422
25455SOL    HW278043   8.916   2.248   5.269  0.4689  1.0522  0.5893
25456SOL     OW78044   8.871   6.000   6.155 -0.2079  0.5331  0.0767
25456SOL    HW178045   8.881   5.910   6.186 -0.6622  0.9652  1.4711
25456SOL    HW278046   8.961   6.028   6.135 -0.0373 -0.1176 -0.0865
25457SOL     OW78047   3.395   1.698   1.943  0.4940  0.0886  0.1971
25457SOL    HW178048   3.478   1.651   1.940 -0.5809 -2.0200  1.4154
25457SOL    HW278049   3.395   1.755   1.866  2.6594 -0.5533 -0.2902
25458SOL     OW78050   3.497   8.011   2.283  0.1199  0.2927 -0.0429
25458SOL    HW178051   3.522   8.101   2.307  0.8218 -0.1020  0.7101
25458SOL    HW278052   3.470   8.018   2.191 -3.1345  1.9134  0.9666
25459SOL     OW78053   3.138   3.787   8.970 -0.1824 -0.9589 -0.0561
25459SOL    HW178054   3.224   3.771   9.010  1.0275  2.1387 -1.2626
25459SOL    HW278055   3.131   3.719   8.903  1.1083 -1.5597  0.3845
25460SOL     OW78056   7.322   2.048   6.265 -0.1598 -0.4782  0.4356
25460SOL    HW178057   7.281   2.024   6.348  0.0832 -0.2288  0.6295
25460SOL    HW278058   7.346   1.965   6.225 -1.5331 -0.6665 -0.0272
25461SOL     OW78059   1.013   2.669   5.413 -0.1001  0.1790 -0.6125
25461SOL    HW178060   1.002   2.590   5.466 -0.9076 -0.2374 -1.3882
25461SOL    HW278061   0.940   2.726   5.439  0.6993  0.8240  0.2185
25462SOL     OW78062   3.021   1.484   7.572 -0.4480 -0.4623  0.6108
25462SOL    HW178063   3.112   1.514   7.573 -0.2149 -1.0086 -1.7753
25462SOL    HW278064   2.970   1.565   7.575  0.1329 -0.0936  0.6999
25463SOL     OW78065   7.331   7.981   8.647 -0.7545 -0.2464  0.4037
25463SOL    HW178066   7.325   8.073   8.622  1.1497  0.3409  2.0183
25463SOL    HW278067   7.240   7.954   8.658 -1.3006  1.8728  1.4014
25464SOL     OW78068   6.936   7.094   0.529 -0.3905  0.0538  0.3065
25464SOL    HW178069   6.887   7.011   0.523  0.1918 -0.3556  1.1702
25464SOL    HW278070   6.917   7.138   0.446 -0.3473 -1.1478 -0.3664
25465SOL     OW78071   4.347   2.995   0.898  0.0212  0.5281 -0.0682
25465SOL    HW178072   4.326   2.902   0.907 -0.4367  0.4553 -1.7696
25465SOL    HW278073   4.344   3.029   0.988 -0.5828 -0.9199  0.4782
25466SOL     OW78074   3.043   6.006   1.533  0.2725  0.2105  0.0250
25466SOL    HW178075   3.122   6.040   1.491 -0.3731  0.5651 -0.9431
25466SOL    HW278076   3.038   5.915   1.504  0.5113  0.0872  0.3698
25467SOL     OW78077   2.627   7.589   6.087  0.1814  0.1648  0.4700
25467SOL    HW178078   2.569   7.602   6.161  1.6850  1.0184  1.5308
25467SOL    HW278079   2.607   7.661   6.027  0.8277  1.0459  1.2952
25468SOL     OW78080   1.126   6.725   1.496 -0.3142 -0.4309 -0.1264
25468SOL    HW178081   1.121   6.778   1.576  2.4246 -0.3427  0.0394
25468SOL    HW278082   1.111   6.635   1.525  0.4608 -0.3733  0.4768
25469SOL     OW78083   6.298   5.451   6.035 -0.3218  0.1586 -0.1873
25469SOL    HW178084   6.342   5.368   6.018  0.2748  0.2586  0.8663
25469SOL    HW278085   6.367   5.509   6.068 -1.0529  0.6073  0.5660
25470SOL     OW78086   3.916   9.030   6.625 -0.4460 -0.2260 -0.0157
25470SOL    HW178087   3.998   9.021   6.576 -1.7063  0.6289 -2.3443
25470SOL    HW278088   3.871   8.946   6.610 -0.1532 -0.5596  0.9707
25471SOL     OW78089   0.999   4.830   2.912 -0.0638  0.0109  0.1908
25471SOL    HW178090   0.917   4.878   2.910 -0.0665  0.0227  0.6412
25471SOL    HW278091   0.974   4.739   2.895 -0.3276 -0.2055  1.7279
25472SOL     OW78092   3.882   5.625   4.330 -0.5326 -0.0136  0.0805
25472SOL    HW178093   3.795   5.630   4.291  0.0443  2.5156 -0.9731
25472SOL    HW278094   3.879   5.686   4.404  0.1629 -0.3324  0.3781
25473SOL     OW78095   1.387   7.328   4.459 -0.1472 -0.5305  0.2243
25473SOL    HW178096   1.436   7.361   4.383 -0.4651  1.2594  0.7715
25473SOL    HW278097   1.296   7.327   4.430 -0.2290 -0.1878  0.4750
25474SOL     OW78098   6.392   3.137   4.639 -0.1500 -0.0037  0.1110
25474SOL    HW178099   6.386   3.053   4.593 -1.0282 -0.5235  1.1340
25474SOL    HW278100   6.394   3.112   4.732 -3.0336  1.2085  0.5433
25475SOL     OW78101   1.324   9.100   3.666 -0.4031  0.1063 -1.1228
25475SOL    HW178102   1.263   9.128   3.735  1.7641  2.2159 -0.0057
25475SOL    HW278103   1.337   9.178   3.614  1.3502 -0.3389 -1.3555
25476SOL     OW78104   2.946   2.203   9.288  0.3062 -0.0873  0.3368
25476SOL    HW178105   3.026   2.241   9.325 -0.1565 -0.2481  1.5321
25476SOL    HW278106   2.883   2.275   9.288 -0.3306 -0.6108  1.8582
25477SOL     OW78107   7.188   6.826   9.130 -0.4922  0.2334  0.0873
25477SOL    HW178108   7.202   6.733   9.152  0.3930  0.5386  0.8776
25477SOL    HW278109   7.205   6.872   9.213 -0.3533  1.1483 -0.4478
25478SOL     OW78110   9.070   9.080   1.324 -1.2271 -0.6818 -0.1739
25478SOL    HW178111   9.121   9.089   1.404 -0.8623 -1.1077 -0.3519
25478SOL    HW278112   9.127   9.029   1.266 -0.9915  0.6567 -1.1397
25479SOL     OW78113   2.625   0.804   3.788 -0.4487 -0.6480 -0.5659
25479SOL    HW178114   2.647   0.827   3.697  0.5969 -0.0364 -0.1576
25479SOL    HW278115   2.561   0.733   3.779  0.5946 -1.4659 -1.7864
25480SOL     OW78116   1.972   7.584   5.887 -0.1353  0.0929 -0.4716
25480SOL    HW178117   1.936   7.627   5.964 -0.4700  0.0011 -0.5710
25480SOL    HW278118   2.037   7.523   5.921 -0.5085 -0.1789 -0.2326
25481SOL     OW78119   3.021   7.591   5.222  0.1771  0.1949  0.7039
25481SOL    HW178120   3.019   7.536   5.143  0.1100 -0.6159  1.2690
25481SOL    HW278121   3.113   7.616   5.230 -0.3191  2.9611 -1.4576
25482SOL     OW78122   8.238   4.694   3.510  0.0569  0.2473  0.2472
25482SOL    HW178123   8.179   4.623   3.534  1.3570 -0.8257  0.3545
25482SOL    HW278124   8.187   4.773   3.522 -0.4958 -0.4792  3.0149
25483SOL     OW78125   3.587   6.587   1.253 -0.4497 -0.1756  0.6528
25483SOL    HW178126   3.668   6.597   1.304  0.2184 -1.0832 -0.2095
25483SOL    HW278127   3.551   6.675   1.248  0.2353  0.1618  1.4569
25484SOL     OW78128   9.242   2.023   7.278  0.5338  0.4307 -0.0693
25484SOL    HW178129   9.323   1.984   7.310  0.2728 -2.1253 -2.4452
25484SOL    HW278130   9.232   1.991   7.189 -2.7309  1.2646 -0.0811
25485SOL     OW78131   2.626   4.808   2.106 -0.3033  0.0743  0.3392
25485SOL    HW178132   2.630   4.863   2.185  1.3206  1.4528 -0.6581
25485SOL    HW278133   2.713   4.817   2.067 -1.3317  0.0602 -2.0210
25486SOL     OW78134   6.606   6.938   3.153 -0.1909 -0.4096  0.2262
25486SOL    HW178135   6.664   6.997   3.105 -1.9263 -0.5706 -2.1857
25486SOL    HW278136   6.546   6.996   3.200  0.6836 -0.2426  1.1259
25487SOL     OW78137   4.741   8.862   3.094  0.1900  0.6927 -0.5745
25487SOL    HW178138   4.663   8.901   3.133  1.7830  4.2305 -0.7059
25487SOL    HW278139   4.757   8.914   3.015  3.5186  1.0660  0.2675
25488SOL     OW78140   4.294   7.337   0.310 -0.1300  0.3849  0.0705
25488SOL    HW178141   4.276   7.264   0.250 -0.5582  0.6987 -0.1812
25488SOL    HW278142   4.320   7.295   0.392  1.9694 -0.0680 -0.7832
25489SOL     OW78143   7.400   4.644   1.883  0.6370 -0.0181 -0.0366
25489SOL    HW178144   7.463   4.572   1.887  1.2668  0.4366 -1.4468
25489SOL    HW278145   7.425   4.702   1.954  0.6565 -0.7544  0.5704
25490SOL     OW78146   6.451   4.692   8.147  1.1864 -0.2189 -0.1585
25490SOL    HW178147   6.501   4.773   8.132  0.0904  0.3544 -0.7495
25490SOL    HW278148   6.367   4.708   8.105  1.7962 -2.5712 -2.4031
25491SOL     OW78149   4.142   7.959   6.774  0.2339 -0.4630  0.2735
25491SOL    HW178150   4.225   7.956   6.823 -0.4258  1.2313  1.5334
25491SOL    HW278151   4.158   7.904   6.698  2.6670  0.1371  0.2986
25492SOL     OW78152   4.151   8.106   2.532 -0.3173 -0.4121 -0.1854
25492SOL    HW178153   4.125   8.028   2.581  1.2342 -2.0753 -1.9263
25492SOL    HW278154   4.127   8.086   2.442 -1.6902  1.9567 -0.3678
25493SOL     OW78155   1.093   3.185   7.045 -0.0598 -0.3355  0.3839
25493SOL    HW178156   1.161   3.135   7.090  2.4230  1.6235 -1.0807
25493SOL    HW278157   1.055   3.122   6.983  1.2071 -1.1476  0.4041
25494SOL     OW78158   4.294   0.241   4.794  0.1120 -0.1141 -0.0844
25494SOL    HW178159   4.302   0.158   4.746  1.3572  0.3221 -0.6572
25494SOL    HW278160   4.249   0.299   4.733  0.6126  0.0849 -0.2628
25495SOL     OW78161   2.465   6.900   4.571 -0.5372  0.0506 -0.5328
25495SOL    HW178162   2.425   6.813   4.564 -1.5550  0.3751  1.0080
25495SOL    HW278163   2.538   6.888   4.633 -0.6730  0.2949 -0.3259
25496SOL     OW78164   6.842   6.848   2.595 -0.3003  0.5603  0.1953
25496SOL    HW178165   6.893   6.832   2.515 -1.2105 -0.7841 -0.1211
25496SOL    HW278166   6.813   6.762   2.623 -1.8431  1.2463  0.7628
25497SOL     OW78167   2.619   4.541   8.868 -0.6234  0.8102  0.2661
25497SOL    HW178168   2.623   4.635   8.856 -1.9705  0.6281 -1.7809
25497SOL    HW278169   2.531   4.524   8.902 -1.0750  0.1190 -1.2081
25498SOL     OW78170   7.545   0.713   3.147  0.5557  0.1129 -0.1325
25498SOL    HW178171   7.500   0.658   3.084  0.0387 -0.6846  0.9157
25498SOL    HW278172   7.475   0.762   3.190  0.6973 -0.9197  1.3046
25499SOL     OW78173   6.432   6.522   6.279  0.0767 -0.3906  0.2304
25499SOL    HW178174   6.445   6.555   6.190  1.6265 -0.9945  0.2056
25499SOL    HW278175   6.444   6.598   6.335  0.7265 -0.3203  0.0060
25500SOL     OW78176   6.703   8.541   2.223 -0.3365  0.2928 -0.8747
25500SOL    HW178177   6.676   8.619   2.175 -0.1813 -0.2265 -1.8420
25500SOL    HW278178   6.681   8.469   2.163  1.8274 -0.2259 -1.0660
25501SOL     OW78179   5.355   6.808   4.961  0.1635 -0.1695 -0.7747
25501SOL    HW178180   5.358   6.902   4.946 -1.1045  0.0014 -0.0314
25501SOL    HW278181   5.278   6.778   4.912  0.6740 -0.8402 -1.1653
25502SOL     OW78182   1.364   3.466   4.390  0.3566  0.8360  0.4146
25502SOL    HW178183   1.441   3.452   4.335  0.2195  0.2343  0.3693
25502SOL    HW278184   1.308   3.524   4.338 -0.2468 -0.5791 -0.5407
25503SOL     OW78185   1.644   2.468   2.681 -0.1998  0.6380 -0.1715
25503SOL    HW178186   1.552   2.479   2.705 -0.0651  0.3760  0.4795
25503SOL    HW278187   1.682   2.555   2.694 -0.5757  0.9989 -1.4376
25504SOL     OW78188   3.362   4.860   9.251 -0.1393 -0.3850 -0.1668
25504SOL    HW178189   3.340   4.801   9.323 -2.4322 -1.6552 -1.8586
25504SOL    HW278190   3.306   4.937   9.265  0.9799  0.3010  0.5960
25505SOL     OW78191   8.562   6.501   5.067 -0.0069  0.7195 -0.0480
25505SOL    HW178192   8.656   6.488   5.082 -0.0097  0.0793 -0.5930
25505SOL    HW278193   8.553   6.595   5.052  0.6496  0.6693 -0.7526
25506SOL     OW78194   0.461   2.475   5.749 -0.2329  0.4570  0.1379
25506SOL    HW178195   0.481   2.505   5.661 -1.2538 -0.1296 -0.3125
25506SOL    HW278196   0.488   2.546   5.806  1.3761  0.4271 -0.5664
25507SOL     OW78197   6.996   0.826   5.444  0.2573  0.1394  0.4642
25507SOL    HW178198   7.072   0.768   5.437  0.5275  0.7054 -1.8294
25507SOL    HW278199   6.921   0.769   5.426  0.5340  0.5014 -1.9462
25508SOL     OW78200   7.638   1.791   3.955  0.0752  0.1791  0.1765
25508SOL    HW178201   7.710   1.735   3.985 -0.0620  0.6245  1.3262
25508SOL    HW278202   7.660   1.878   3.986 -1.6946  0.0666  1.8318
25509SOL     OW78203   4.336   5.061   0.381  0.2530 -0.2627  0.2421
25509SOL    HW178204   4.266   5.081   0.319 -0.1849  0.3385  0.9257
25509SOL    HW278205   4.358   4.969   0.364  1.3195  0.3549 -1.9730
25510SOL     OW78206   3.239   6.349   6.924 -0.4761  0.3198  0.2868
25510SOL    HW178207   3.213   6.439   6.905  0.3141  0.2532 -1.1938
25510SOL    HW278208   3.184   6.295   6.867 -0.1396 -0.0603  0.3169
25511SOL     OW78209   7.116   5.525   2.129  0.1257 -0.0509 -0.5316
25511SOL    HW178210   7.150   5.442   2.163  1.2179 -0.3022 -2.1715
25511SOL    HW278211   7.051   5.500   2.064  0.2793  0.3688 -0.8548
25512SOL     OW78212   5.364   0.711   7.703  0.9514  0.3693 -0.0684
25512SOL    HW178213   5.286   0.730   7.755  1.7193 -1.1576  1.6686
25512SOL    HW278214   5.338   0.638   7.646  1.1868 -0.3144  0.6970
25513SOL     OW78215   3.988   4.641   1.199  0.1041 -0.1491  0.3931
25513SOL    HW178216   3.935   4.718   1.219  0.9560  0.2069  1.3462
25513SOL    HW278217   3.925   4.570   1.189 -0.4512 -0.1089  3.2797
25514SOL     OW78218   4.979   5.444   4.015  0.4147 -0.1047  0.5691
25514SOL    HW178219   5.073   5.458   4.007  0.4976 -0.4432  0.9021
25514SOL    HW278220   4.965   5.355   3.981  0.0147  0.4697 -0.7895
25515SOL     OW78221   8.093   5.379   0.119  0.3478 -0.2120  0.8637
25515SOL    HW178222   8.087   5.362   0.213  0.5390 -0.8947  0.7527
25515SOL    HW278223   8.021   5.440   0.102  0.4098  0.0431  1.4778
25516SOL     OW78224   2.137   6.214   2.599 -0.5537  0.6984  0.0029
25516SOL    HW178225   2.164   6.191   2.688 -0.6507  1.5937  0.2612
25516SOL    HW278226   2.109   6.305   2.605 -2.6256  0.1115 -0.4972
25517SOL     OW78227   0.773   9.195   0.039 -0.2370 -0.3983  0.7025
25517SOL    HW178228   0.766   9.266  -0.025  0.9019 -1.5521 -0.7479
25517SOL    HW278229   0.715   9.221   0.110 -2.2390  0.5208 -1.1912
25518SOL     OW78230   3.182   7.003   4.070 -0.2931  0.5002  0.0571
25518SOL    HW178231   3.087   6.999   4.073 -0.2656 -0.0497  0.1416
25518SOL    HW278232   3.202   7.043   3.985 -0.6018  0.8752  0.1584
25519SOL     OW78233   8.990   4.692   2.944 -0.1671 -0.5473 -0.0876
25519SOL    HW178234   8.981   4.669   2.851 -0.1874 -0.0169 -0.2231
25519SOL    HW278235   8.913   4.652   2.986 -0.6631 -0.0001 -0.4598
25520SOL     OW78236   5.661   4.331   8.171  0.3832 -0.3585  0.1401
25520SOL    HW178237   5.583   4.326   8.227 -0.7554 -2.4468 -1.5517
25520SOL    HW278238   5.732   4.302   8.228 -0.0220  1.6660  1.7408
25521SOL     OW78239   6.973   2.532   4.061  0.4348  0.6500 -0.1882
25521SOL    HW178240   7.036   2.542   4.133 -0.1023  0.3811  0.3252
25521SOL    HW278241   6.898   2.586   4.088  0.6110  1.3147 -1.0003
25522SOL     OW78242   0.544   7.013   5.354  0.2158 -0.0101 -0.6208
25522SOL    HW178243   0.475   6.947   5.366  0.4174  0.1335  1.6299
25522SOL    HW278244   0.553   7.022   5.259 -1.7804 -1.1655 -0.9482
25523SOL     OW78245   3.211   9.285   8.588 -0.1792 -0.3351 -0.1967
25523SOL    HW178246   3.196   9.251   8.676 -0.3785 -1.4516 -0.6630
25523SOL    HW278247   3.285   9.345   8.599  0.1663 -0.8961  0.6245
25524SOL     OW78248   6.774   8.291   8.147 -0.4521 -0.6468  0.1967
25524SOL    HW178249   6.775   8.241   8.066  1.4417 -1.1053  0.4811
25524SOL    HW278250   6.685   8.327   8.152 -0.8637 -1.3673 -1.5982
25525SOL     OW78251   1.072   3.336   8.312  0.3043  0.0707  0.1390
25525SOL    HW178252   1.027   3.419   8.299 -1.4938 -1.1165 -1.7339
25525SOL    HW278253   1.021   3.292   8.380  1.7599  0.8339  1.7399
25526SOL     OW78254   6.206   9.023   8.817  0.0600  0.2098  1.0398
25526SOL    HW178255   6.255   9.092   8.772  0.6520 -0.2574  0.9583
25526SOL    HW278256   6.269   8.982   8.876 -0.4727  0.2007  1.6121
25527SOL     OW78257   4.452   5.689   4.277 -0.1318  0.5334 -0.7074
25527SOL    HW178258   4.463   5.673   4.183 -1.0468  0.4851 -0.8098
25527SOL    HW278259   4.434   5.783   4.284  0.0229  0.5523 -0.5781
25528SOL     OW78260   6.087   1.956   4.144 -0.0913  0.5270  0.4521
25528SOL    HW178261   6.038   1.889   4.189  1.1854 -0.7331  0.0104
25528SOL    HW278262   6.058   2.039   4.183 -1.1990 -0.3215  1.4306
25529SOL     OW78263   3.075   0.747   2.123  0.0997  0.6251 -0.6212
25529SOL    HW178264   3.153   0.692   2.134 -0.9670 -1.4667 -2.8861
25529SOL    HW278265   3.032   0.747   2.208  1.4933  0.0700  0.0895
25530SOL     OW78266   2.850   5.193   0.160  0.5339 -0.2994  0.5269
25530SOL    HW178267   2.787   5.168   0.227  0.8854 -0.4425  0.8010
25530SOL    HW278268   2.915   5.123   0.159 -0.5734 -1.3556 -1.3968
25531SOL     OW78269   6.360   1.048   7.616  0.1031  0.3876 -0.4673
25531SOL    HW178270   6.314   1.126   7.648 -1.0152  0.5805 -2.4771
25531SOL    HW278271   6.366   1.060   7.521  1.5948 -1.0976 -0.5937
25532SOL     OW78272   0.123   1.979   0.039 -0.4766  0.2157  0.4655
25532SOL    HW178273   0.215   1.969   0.062 -0.7609  0.7756  1.8657
25532SOL    HW278274   0.124   2.005  -0.053  0.7326 -0.3457  0.3143
25533SOL     OW78275   9.118   6.918   3.956  0.1151 -0.2757  0.0096
25533SOL    HW178276   9.196   6.864   3.943 -0.1817 -0.6153 -0.3707
25533SOL    HW278277   9.133   6.996   3.902  1.5073  1.0456  2.2128
25534SOL     OW78278   4.410   0.942   5.889  0.1359  0.5584 -0.4236
25534SOL    HW178279   4.383   1.015   5.944 -0.0219 -0.1321  0.4227
25534SOL    HW278280   4.397   0.973   5.799 -0.7053  1.2650 -0.0597
25535SOL     OW78281   8.914   1.143   9.074  0.0169 -0.4770  1.0037
25535SOL    HW178282   8.820   1.131   9.069 -0.0053 -0.2053  0.7639
25535SOL    HW278283   8.935   1.130   9.167 -0.6481  2.3028  1.5712
25536SOL     OW78284   8.243   2.350   3.210  0.4661 -0.1630 -0.2678
25536SOL    HW178285   8.147   2.361   3.210  0.3481 -0.9953 -2.2224
25536SOL    HW278286   8.277   2.437   3.194  0.0871  0.3254  1.4352
25537SOL     OW78287   7.564   3.072   3.478  0.8424  0.0957 -0.0278
25537SOL    HW178288   7.539   3.153   3.433 -0.5854  0.1908  0.9060
25537SOL    HW278289   7.526   3.080   3.565  0.2279 -1.8190 -0.1020
25538SOL     OW78290   4.696   6.045   3.464  0.0178  0.0707  0.0833
25538SOL    HW178291   4.657   5.957   3.467 -1.5850  0.7262 -0.8397
25538SOL    HW278292   4.788   6.031   3.485 -0.6466 -1.5597  2.0189
25539SOL     OW78293   8.995   1.903   9.138 -0.2742 -0.3883 -0.1775
25539SOL    HW178294   8.968   1.813   9.159  0.3678 -0.5090  0.1277
25539SOL    HW278295   8.984   1.951   9.220 -1.5159  0.0319 -0.5756
25540SOL     OW78296   7.332   5.505   1.201  0.1926 -0.1550 -0.1065
25540SOL    HW178297   7.392   5.553   1.258  1.7883 -1.0441 -1.0138
25540SOL    HW278298   7.354   5.413   1.215 -0.2207 -0.4379 -1.2715
25541SOL     OW78299   8.139   6.170   2.607  0.3524 -0.5799  0.6368
25541SOL    HW178300   8.088   6.107   2.555 -1.7543  1.2469  0.3735
25541SOL    HW278301   8.174   6.231   2.542  0.0981  0.0565  1.0891
25542SOL     OW78302   2.881   0.737   1.226  0.6273 -0.6091 -0.2220
25542SOL    HW178303   2.934   0.676   1.277 -0.6053  1.3390  3.4933
25542SOL    HW278304   2.793   0.729   1.262 -0.1544  1.2800 -1.6392
25543SOL     OW78305   1.242   2.516   0.506 -0.2579  0.3686  0.3519
25543SOL    HW178306   1.311   2.472   0.555 -0.3417  0.7069  0.7728
25543SOL    HW278307   1.165   2.461   0.518  0.3560 -0.9727 -1.5815
25544SOL     OW78308   3.921   8.731   5.924 -0.2237  0.7744  0.4564
25544SOL    HW178309   3.899   8.822   5.907  1.3798  0.9171 -1.0274
25544SOL    HW278310   3.987   8.734   5.993  0.5371  0.8054 -0.2668
25545SOL     OW78311   2.720   4.516   5.246 -0.3116 -0.1371  0.4342
25545SOL    HW178312   2.683   4.561   5.322 -1.9294  2.6525 -1.8896
25545SOL    HW278313   2.723   4.583   5.178  2.7148 -2.1132 -1.4868
25546SOL     OW78314   5.702   1.507   8.049  0.8796  0.2489 -0.2037
25546SOL    HW178315   5.667   1.541   8.132  0.8735 -0.5182  0.1074
25546SOL    HW278316   5.627   1.466   8.006  1.0240  0.1002 -0.3119
25547SOL     OW78317   6.150   2.769   4.341  0.2433 -0.0877 -0.1091
25547SOL    HW178318   6.166   2.862   4.358  0.2822  0.0727 -1.0085
25547SOL    HW278319   6.057   2.765   4.317  0.0274 -0.4030  0.7659
25548SOL     OW78320   3.488   4.541   0.448  0.2457 -0.0604  0.2189
25548SOL    HW178321   3.497   4.446   0.442 -0.4523 -0.0767 -0.7442
25548SOL    HW278322   3.397   4.558   0.423  0.1827  0.8085  1.0265
25549SOL     OW78323   6.832   5.792   5.253 -0.5664 -0.3535 -0.1230
25549SOL    HW178324   6.890   5.738   5.306  0.8685 -0.7975 -2.0908
25549SOL    HW278325   6.756   5.736   5.235 -2.3234  0.7077  3.6308
25550SOL     OW78326   7.267   0.363   3.538  0.7949  0.5076 -0.3088
25550SOL    HW178327   7.216   0.316   3.473  1.1231 -2.4215  1.4499
25550SOL    HW278328   7.356   0.363   3.504  0.8390 -0.4061 -0.2099
25551SOL     OW78329   5.067   2.466   2.343  0.5663 -0.7535 -0.7036
25551SOL    HW178330   5.082   2.553   2.380  1.4435 -1.1836  0.0022
25551SOL    HW278331   5.044   2.482   2.252  1.7525  0.1791 -0.8610
25552SOL     OW78332   0.928   4.391   5.397  0.1539 -0.4970  0.0806
25552SOL    HW178333   0.912   4.297   5.397  0.6120 -0.5760  0.4531
25552SOL    HW278334   1.022   4.400   5.382 -0.2578 -0.0273 -2.2890
25553SOL     OW78335   0.153   4.680   1.725 -0.4441 -0.2915  0.1717
25553SOL    HW178336   0.115   4.743   1.664  0.1554 -0.5142 -0.4427
25553SOL    HW278337   0.243   4.709   1.738 -0.4599 -0.4524  0.6677
25554SOL     OW78338   0.150   2.082   6.423 -0.4188 -0.1208 -0.3258
25554SOL    HW178339   0.074   2.027   6.441  0.2831 -0.9791  0.0770
25554SOL    HW278340   0.118   2.148   6.362 -1.1049 -1.3932 -1.3775
25555SOL     OW78341   6.812   0.826   5.861  0.3028  0.4483  0.0950
25555SOL    HW178342   6.758   0.757   5.823  0.7728 -0.4110  0.9855
25555SOL    HW278343   6.810   0.896   5.796  0.3405 -0.6431 -1.1007
25556SOL     OW78344   5.090   4.741   4.859 -0.0673 -0.3159 -0.2052
25556SOL    HW178345   5.051   4.667   4.812 -0.0885  0.2976 -1.1943
25556SOL    HW278346   5.156   4.775   4.798  1.1669 -0.5973  0.9625
25557SOL     OW78347   9.015   3.747   3.666  0.4651  0.5183  0.3131
25557SOL    HW178348   8.939   3.716   3.714 -0.3111  0.9639 -0.6262
25557SOL    HW278349   9.081   3.764   3.734 -0.7178  1.4370  1.2449
25558SOL     OW78350   0.747   4.430   7.365  0.4021 -0.8096  0.7812
25558SOL    HW178351   0.675   4.487   7.392  0.1809 -0.4937 -0.4345
25558SOL    HW278352   0.820   4.453   7.423  0.2956  0.6771  0.3304
25559SOL     OW78353   1.085   0.084   7.262  0.8266 -0.2325 -0.0712
25559SOL    HW178354   1.044   0.169   7.270  0.5142 -0.4298  0.4162
25559SOL    HW278355   1.129   0.087   7.177 -0.2162 -0.0387 -0.6151
25560SOL     OW78356   7.022   7.218   4.385  0.1354 -0.1790 -0.0528
25560SOL    HW178357   7.019   7.128   4.351 -0.0963 -0.0571 -0.3563
25560SOL    HW278358   7.115   7.234   4.401  0.0413 -0.9642  1.3237
25561SOL     OW78359   3.996   1.534   4.055 -0.5330 -0.3352 -0.2578
25561SOL    HW178360   4.026   1.590   4.126 -3.2992  0.2954  0.4751
25561SOL    HW278361   4.069   1.532   3.993  1.9580 -0.9377  2.5727
25562SOL     OW78362   1.740   2.348   4.957  0.9319  0.4127 -0.2259
25562SOL    HW178363   1.814   2.409   4.965  1.1886  0.0532  0.1910
25562SOL    HW278364   1.706   2.363   4.869 -0.7362  3.0901  0.8312
25563SOL     OW78365   6.450   8.670   0.926  0.1186 -0.4179 -0.2889
25563SOL    HW178366   6.420   8.738   0.986 -2.6933 -0.6810 -1.3412
25563SOL    HW278367   6.526   8.709   0.882 -0.2644  1.2821  0.5176
25564SOL     OW78368   3.678   1.536   9.103 -0.0528 -0.4981 -0.6190
25564SOL    HW178369   3.647   1.463   9.156  0.5115 -0.9457 -0.8984
25564SOL    HW278370   3.632   1.527   9.020  1.4255 -1.6502 -1.3320
25565SOL     OW78371   6.814   6.063   0.455 -0.2930 -0.2066 -0.0896
25565SOL    HW178372   6.749   6.131   0.475 -2.1040 -2.0226  0.3393
25565SOL    HW278373   6.866   6.100   0.384 -1.2608  1.6166  0.1182
25566SOL     OW78374   0.316   2.913   1.978 -0.0487  0.2457  0.1255
25566SOL    HW178375   0.343   2.992   1.933 -1.4123  0.9634  0.5326
25566SOL    HW278376   0.383   2.899   2.045  0.9030  0.3032 -0.8156
25567SOL     OW78377   4.234   6.622   2.556  0.3369 -0.4795  0.2183
25567SOL    HW178378   4.315   6.636   2.508  0.3399 -0.7432  0.1493
25567SOL    HW278379   4.240   6.532   2.589 -0.5553 -1.0002 -0.9962
25568SOL     OW78380   3.844   5.671   0.054 -0.3978  0.0601  0.0900
25568SOL    HW178381   3.917   5.731   0.067 -0.8767  1.2195 -2.1857
25568SOL    HW278382   3.769   5.716   0.094 -0.1394 -0.5166  1.2379
25569SOL     OW78383   3.412   1.811   7.243 -0.0989  0.7182  0.4384
25569SOL    HW178384   3.415   1.872   7.317 -0.9381  1.1974  0.0781
25569SOL    HW278385   3.334   1.836   7.194  0.6609  0.6613 -0.8298
25570SOL     OW78386   2.122   7.739   2.363  0.2340 -0.5560  0.2246
25570SOL    HW178387   2.053   7.677   2.389 -0.3043  0.3712  1.0292
25570SOL    HW278388   2.104   7.758   2.271 -0.8052 -0.0433  0.5264
25571SOL     OW78389   7.361   0.700   6.908  0.1711 -0.0793  0.1804
25571SOL    HW178390   7.384   0.756   6.982  0.4164 -0.3950  0.3418
25571SOL    HW278391   7.297   0.751   6.859  1.9079  1.1992 -0.7975
25572SOL     OW78392   2.437   5.374   0.953  0.0961 -0.0004  0.0079
25572SOL    HW178393   2.489   5.297   0.975 -1.3176 -1.0804 -0.3489
25572SOL    HW278394   2.356   5.362   1.001 -1.1500 -0.0319 -2.0419
25573SOL     OW78395   5.890   1.545   4.595  0.0012  0.0367 -0.5336
25573SOL    HW178396   5.844   1.591   4.524 -0.4137  0.5574  0.0680
25573SOL    HW278397   5.823   1.529   4.661  0.4521 -0.1826 -0.1267
25574SOL     OW78398   3.212   2.315   5.744  0.0537  0.4985  0.4675
25574SOL    HW178399   3.256   2.398   5.723  0.7343 -0.0392 -0.2795
25574SOL    HW278400   3.240   2.295   5.833  3.2920 -1.0314 -0.7864
25575SOL     OW78401   5.917   0.752   7.095  0.4510  0.5653 -0.5520
25575SOL    HW178402   5.968   0.703   7.160 -0.0791 -0.0587 -0.6087
25575SOL    HW278403   5.903   0.691   7.023 -0.6026  0.6521 -0.4231
25576SOL     OW78404   3.422   1.595   4.207 -0.0682 -0.0494  0.2610
25576SOL    HW178405   3.459   1.593   4.296  0.3677 -0.3691  0.0748
25576SOL    HW278406   3.411   1.503   4.184 -1.6583  0.0510  0.5823
25577SOL     OW78407   0.088   8.296   6.563 -0.2940 -0.6573 -0.1716
25577SOL    HW178408   0.109   8.238   6.636  0.7448 -0.2264 -0.1331
25577SOL    HW278409   0.102   8.242   6.485  1.4807 -0.2221 -0.1729
25578SOL     OW78410   2.719   4.822   0.175  0.9317  0.0259 -0.2341
25578SOL    HW178411   2.733   4.865   0.091  1.5143  2.1289  0.8806
25578SOL    HW278412   2.807   4.814   0.213  0.8225 -2.1349 -0.3806
25579SOL     OW78413   1.416   1.407   4.548  0.9272  0.3079  0.1446
25579SOL    HW178414   1.371   1.340   4.496 -0.3555  2.0022 -0.9658
25579SOL    HW278415   1.370   1.406   4.632  0.0954  0.6662 -0.3035
25580SOL     OW78416   0.774   2.331   2.408 -1.1656 -0.3132 -0.1984
25580SOL    HW178417   0.848   2.343   2.468 -1.6231 -0.4502  0.3957
25580SOL    HW278418   0.810   2.279   2.336 -0.9834 -1.4494  0.6926
25581SOL     OW78419   4.705   2.792   8.045 -0.1053  0.2322  0.6408
25581SOL    HW178420   4.632   2.759   8.098  0.2351 -1.6538 -0.0386
25581SOL    HW278421   4.663   2.829   7.967 -0.3690 -0.2703  0.5443
25582SOL     OW78422   4.185   3.019   4.829  0.5530  0.3953 -0.1296
25582SOL    HW178423   4.256   2.954   4.821 -0.2022 -0.8767  2.8071
25582SOL    HW278424   4.219   3.083   4.892 -0.5967  0.2157  0.6731
25583SOL     OW78425   4.770   6.379   7.905  0.1679 -0.3546  0.4735
25583SOL    HW178426   4.720   6.434   7.845  0.2773 -0.7054  0.0573
25583SOL    HW278427   4.848   6.353   7.855  0.9827  0.5324  1.2529
25584SOL     OW78428   2.888   7.913   7.303  0.1122  0.5132  0.1284
25584SOL    HW178429   2.980   7.924   7.278  0.8434 -2.7670  1.1616
25584SOL    HW278430   2.839   7.939   7.225  1.9617  0.3298 -1.1420
25585SOL     OW78431   2.672   5.280   2.458 -0.1523 -0.1456 -0.0677
25585SOL    HW178432   2.719   5.245   2.534  0.6472  1.6292  0.2889
25585SOL    HW278433   2.710   5.366   2.444 -0.4819 -0.3368 -2.3461
25586SOL     OW78434   1.812   0.191   3.747 -0.6634 -0.2259  0.3101
25586SOL    HW178435   1.780   0.182   3.657  0.8682 -0.9727 -0.1859
25586SOL    HW278436   1.878   0.261   3.741 -1.7989  0.9517  1.2112
25587SOL     OW78437   1.702   5.058   2.536  0.5937  0.3142 -0.5994
25587SOL    HW178438   1.788   5.087   2.569  0.6600  0.3718 -0.8234
25587SOL    HW278439   1.693   4.969   2.569  0.8953  0.1834 -0.8734
25588SOL     OW78440   3.356   2.817   4.703 -0.1445  0.2241  0.6493
25588SOL    HW178441   3.444   2.825   4.740  1.3457 -2.3786 -2.0980
25588SOL    HW278442   3.350   2.891   4.641  1.0914 -0.9585 -0.9281
25589SOL     OW78443   5.202   3.518   5.383  0.1057  0.3547  0.1789
25589SOL    HW178444   5.266   3.478   5.442 -0.8472 -2.6604 -0.7264
25589SOL    HW278445   5.191   3.607   5.416  2.7715  0.0805  1.9402
25590SOL     OW78446   4.077   4.850   8.992  0.1956  0.2502 -0.2801
25590SOL    HW178447   3.997   4.895   8.964  0.2670 -0.8071 -2.2459
25590SOL    HW278448   4.148   4.910   8.970  0.1156  0.2244 -0.6060
25591SOL     OW78449   4.360   4.523   7.916  0.0015 -0.0440  0.4726
25591SOL    HW178450   4.407   4.593   7.962 -0.6421  0.9874 -0.4037
25591SOL    HW278451   4.418   4.499   7.844  0.5621 -0.9488  1.2288
25592SOL     OW78452   8.561   3.890   5.240 -0.1269  0.3623 -0.0533
25592SOL    HW178453   8.617   3.928   5.308 -1.4201 -1.9057  2.3484
25592SOL    HW278454   8.584   3.798   5.237 -1.8056 -0.0591 -0.9778
25593SOL     OW78455   5.425   6.811   7.222  0.5064 -0.5930 -0.2705
25593SOL    HW178456   5.374   6.731   7.229  0.7625 -0.7440 -0.1239
25593SOL    HW278457   5.516   6.782   7.218  0.6667 -0.2599  0.8388
25594SOL     OW78458   9.041   0.234   1.215 -0.4349 -0.0135 -0.1812
25594SOL    HW178459   9.016   0.319   1.177 -0.7819  0.0426  0.1739
25594SOL    HW278460   9.103   0.198   1.152  1.1411  1.3297  0.5712
25595SOL     OW78461   8.441   8.156   3.909 -0.2918  0.1288 -0.1969
25595SOL    HW178462   8.439   8.064   3.884  0.4038 -0.2928  1.2811
25595SOL    HW278463   8.518   8.191   3.865 -0.8438  0.1422 -1.1775
25596SOL     OW78464   4.405   6.477   4.620  0.1251  0.0407  0.6581
25596SOL    HW178465   4.458   6.424   4.560 -0.8146 -0.5318  0.3327
25596SOL    HW278466   4.387   6.420   4.694  1.9471  0.9947  1.8834
25597SOL     OW78467   6.251   0.322   1.439 -0.5009 -0.0218 -0.0033
25597SOL    HW178468   6.285   0.403   1.400 -0.8735  0.9935  1.7303
25597SOL    HW278469   6.178   0.297   1.383 -0.3656  0.8219 -0.5605
25598SOL     OW78470   5.037   0.501   2.855 -0.0268  0.4018 -0.2797
25598SOL    HW178471   5.087   0.583   2.854  1.7119 -0.6506 -0.7592
25598SOL    HW278472   5.035   0.473   2.764 -0.8029  0.0089 -0.1420
25599SOL     OW78473   4.335   5.506   3.797  0.0376 -0.0236 -0.5027
25599SOL    HW178474   4.337   5.414   3.773 -1.7412  0.3149 -2.0848
25599SOL    HW278475   4.303   5.506   3.887  1.1257 -0.9983 -0.1015
25600SOL     OW78476   4.563   1.814   3.857 -0.3028 -0.0543  0.3964
25600SOL    HW178477   4.621   1.774   3.921  1.8721 -0.1391 -1.5692
25600SOL    HW278478   4.548   1.903   3.890  0.9648 -0.0231  0.9201
25601SOL     OW78479   3.694   3.531   5.468  0.0528 -0.2775 -0.1206
25601SOL    HW178480   3.739   3.603   5.510  1.0751 -1.0798  0.1717
25601SOL    HW278481   3.687   3.557   5.376 -1.2572  1.0113  0.3336
25602SOL     OW78482   7.822   6.511   2.657 -0.1675  0.2595 -0.2769
25602SOL    HW178483   7.849   6.542   2.743  1.5357  0.9418 -1.0258
25602SOL    HW278484   7.809   6.591   2.606 -0.1277 -0.1597 -0.9484
25603SOL     OW78485   4.800   9.120   0.799 -0.1604 -0.8025 -0.1571
25603SOL    HW178486   4.785   9.075   0.716 -2.2111  0.6562 -0.6205
25603SOL    HW278487   4.762   9.063   0.865 -2.3077 -0.0200 -0.6882
25604SOL     OW78488   0.645   6.866   2.764  0.5119  0.4538 -0.1283
25604SOL    HW178489   0.738   6.878   2.782  0.2670 -0.6080  1.9309
25604SOL    HW278490   0.601   6.926   2.823 -0.1470  0.4403 -0.5987
25605SOL     OW78491   0.797   4.701   3.682 -0.2592  0.0564 -0.4224
25605SOL    HW178492   0.732   4.754   3.636  0.0131  1.3552  0.6587
25605SOL    HW278493   0.749   4.665   3.757  0.2804  1.0302  0.3850
25606SOL     OW78494   6.775   0.643   5.427  0.4342  0.7517 -0.2849
25606SOL    HW178495   6.703   0.683   5.477 -0.1188  0.0234 -0.4886
25606SOL    HW278496   6.754   0.660   5.336 -1.2252 -2.2678 -0.5371
25607SOL     OW78497   0.787   0.809   7.340  0.3019  0.1618 -0.1474
25607SOL    HW178498   0.698   0.784   7.313 -0.0613  0.2860  0.9047
25607SOL    HW278499   0.839   0.730   7.328  0.2285  0.3048 -1.5184
25608SOL     OW78500   8.352   1.113   4.180  0.2421  0.5471  0.0164
25608SOL    HW178501   8.327   1.201   4.153 -1.5032 -0.1042 -0.6241
25608SOL    HW278502   8.405   1.080   4.107  2.2821  1.6200  0.9760
25609SOL     OW78503   6.704   3.444   7.439  0.1037 -0.4115  0.0336
25609SOL    HW178504   6.634   3.389   7.404  0.9427 -0.8655 -0.9573
25609SOL    HW278505   6.769   3.449   7.369 -0.5056  2.8870 -0.3632
25610SOL     OW78506   0.845   2.775   1.500  0.1638 -0.9906  0.0382
25610SOL    HW178507   0.895   2.719   1.440  0.5124 -0.5766 -0.0686
25610SOL    HW278508   0.755   2.745   1.493  0.1856 -0.8870 -0.7716
25611SOL     OW78509   2.276   6.152   2.332 -0.2485  0.1800  0.2493
25611SOL    HW178510   2.195   6.145   2.282  0.0689  2.2542 -0.6194
25611SOL    HW278511   2.250   6.193   2.414 -0.1529  0.3732  0.1825
25612SOL     OW78512   6.438   2.149   8.666  0.2108 -0.8123  0.1073
25612SOL    HW178513   6.369   2.093   8.632  0.0454 -0.3410 -0.3514
25612SOL    HW278514   6.391   2.222   8.707  0.4518  0.6023 -2.0877
25613SOL     OW78515   4.531   1.183   5.652 -0.6818  0.0537 -0.6565
25613SOL    HW178516   4.590   1.113   5.680  0.1740 -0.1848 -2.9599
25613SOL    HW278517   4.560   1.260   5.702  1.3419 -0.1571 -1.4676
25614SOL     OW78518   3.205   6.612   1.786 -0.2199  0.2289 -0.4702
25614SOL    HW178519   3.135   6.564   1.742  0.3563  0.1119 -1.2702
25614SOL    HW278520   3.260   6.646   1.715  1.0588 -0.4657  0.1677
25615SOL     OW78521   1.250   3.941   7.684  0.0062  0.4583  0.0345
25615SOL    HW178522   1.302   4.018   7.710 -0.0392  0.0899  1.2471
25615SOL    HW278523   1.167   3.978   7.653 -0.8378  0.8064  2.6245
25616SOL     OW78524   5.169   3.764   5.486 -0.0191 -0.5365 -0.4285
25616SOL    HW178525   5.084   3.803   5.469  0.1136 -0.8911 -1.9871
25616SOL    HW278526   5.169   3.746   5.580 -1.2762  0.3525 -0.2514
25617SOL     OW78527   1.949   2.302   1.116 -0.0525  0.4223 -0.9290
25617SOL    HW178528   1.904   2.222   1.089  0.2229 -0.0639  0.0067
25617SOL    HW278529   1.890   2.343   1.179  1.2838 -0.8243  1.2027
25618SOL     OW78530   5.397   1.809   6.703  0.4095 -0.3490 -0.2856
25618SOL    HW178531   5.412   1.842   6.615  2.7455 -0.2526  0.1152
25618SOL    HW278532   5.334   1.870   6.742 -0.5286 -0.3268 -1.8314
25619SOL     OW78533   6.295   2.447   4.449  0.3551  0.1980  0.0074
25619SOL    HW178534   6.328   2.447   4.539  2.0929  0.8716 -0.5848
25619SOL    HW278535   6.363   2.495   4.400 -0.4483 -0.3805 -1.6915
25620SOL     OW78536   6.025   6.074   5.211 -0.8060  0.1009 -0.5383
25620SOL    HW178537   6.000   6.009   5.277 -0.3143 -1.3897 -1.7675
25620SOL    HW278538   6.103   6.116   5.246 -0.9847 -0.1538  0.1698
25621SOL     OW78539   5.281   5.835   0.263 -0.4306 -0.4519 -0.1722
25621SOL    HW178540   5.275   5.855   0.357 -0.9400 -1.4845  0.0208
25621SOL    HW278541   5.194   5.800   0.241 -0.7782  1.0911 -1.3408
25622SOL     OW78542   0.164   0.987   0.210  0.7088  0.8332  0.1621
25622SOL    HW178543   0.184   0.905   0.256  1.2450  0.7286 -0.2589
25622SOL    HW278544   0.115   0.960   0.133 -2.3024  1.1814  1.8723
25623SOL     OW78545   5.539   6.032   8.706  0.9760 -0.1088  0.0833
25623SOL    HW178546   5.559   6.121   8.677  0.1655  0.6329  1.7257
25623SOL    HW278547   5.480   5.997   8.639  0.9476  0.7488 -0.3396
25624SOL     OW78548   0.381   8.280   8.087 -0.2322 -0.0223  0.2669
25624SOL    HW178549   0.313   8.221   8.119  1.3044 -2.2757 -0.4492
25624SOL    HW278550   0.462   8.229   8.095  0.9397  1.4169 -1.8538
25625SOL     OW78551   7.731   4.626   4.762  0.0955  0.6061  0.3865
25625SOL    HW178552   7.759   4.713   4.791 -1.4801  1.0930  0.4840
25625SOL    HW278553   7.804   4.569   4.785  1.2082  1.9255  0.1915
25626SOL     OW78554   4.102   3.882   7.633  0.1330  0.3371  0.1601
25626SOL    HW178555   4.081   3.946   7.565  2.9134  1.1097 -0.0555
25626SOL    HW278556   4.148   3.933   7.700  2.3122 -1.3962  0.0216
25627SOL     OW78557   2.850   4.170   8.101 -0.6897  0.3102 -0.0291
25627SOL    HW178558   2.765   4.161   8.060 -0.7448  2.0536 -0.3122
25627SOL    HW278559   2.903   4.220   8.039  0.2920 -0.0188  0.5128
25628SOL     OW78560   9.065   4.220   7.505 -0.3740 -0.2297  0.1775
25628SOL    HW178561   9.086   4.180   7.589  2.5032 -0.6324 -0.6646
25628SOL    HW278562   9.021   4.151   7.455 -0.4027 -0.5930  0.7062
25629SOL     OW78563   5.529   7.126   2.500 -0.2270 -0.1242 -0.2365
25629SOL    HW178564   5.554   7.060   2.564  0.3774  0.4616  0.1311
25629SOL    HW278565   5.584   7.109   2.424  1.0174  0.8990  0.4160
25630SOL     OW78566   4.088   9.171   7.091  0.1977  0.6959  0.3036
25630SOL    HW178567   4.037   9.228   7.149 -0.8600 -0.7228  0.7724
25630SOL    HW278568   4.024   9.134   7.031  0.6507 -1.1807  0.9605
25631SOL     OW78569   2.298   2.530   7.738  0.0064  0.6019 -0.3521
25631SOL    HW178570   2.235   2.588   7.780  1.9841  2.1447  0.6152
25631SOL    HW278571   2.372   2.528   7.799  0.8761 -1.1582 -1.4405
25632SOL     OW78572   3.134   7.512   0.261  0.1835  0.2264 -0.0175
25632SOL    HW178573   3.124   7.601   0.296 -0.6935  0.8733 -1.8171
25632SOL    HW278574   3.198   7.470   0.319 -0.0032  1.7717  1.3332
25633SOL     OW78575   8.536   7.328   8.186  0.3150 -0.2057  0.0223
25633SOL    HW178576   8.549   7.363   8.274 -1.0879  0.0569  0.1446
25633SOL    HW278577   8.562   7.399   8.127  0.7345 -0.1866  0.2320
25634SOL     OW78578   4.191   8.460   2.097 -0.0206  0.3407 -0.1672
25634SOL    HW178579   4.149   8.442   2.013  2.0331 -1.5009 -0.8464
25634SOL    HW278580   4.119   8.464   2.159 -1.4475  0.1462 -1.7744
25635SOL     OW78581   3.970   8.351   7.820  0.1689 -0.1227  0.4472
25635SOL    HW178582   3.973   8.393   7.906  0.4755  0.3658  0.1975
25635SOL    HW278583   4.009   8.414   7.760 -2.0943  0.4705 -0.4462
25636SOL     OW78584   7.385   1.232   0.994  0.0280 -0.4772  0.0334
25636SOL    HW178585   7.379   1.327   1.006 -0.0320 -0.4681 -0.0681
25636SOL    HW278586   7.379   1.219   0.900  1.3956 -0.4833 -0.0709
25637SOL     OW78587   3.761   3.597   5.210  0.3701  0.3941 -0.1232
25637SOL    HW178588   3.736   3.505   5.222 -1.0680  0.8382  0.4274
25637SOL    HW278589   3.800   3.601   5.123 -2.0327 -0.2540 -1.2799
25638SOL     OW78590   4.875   2.942   8.247  0.2548  0.2537  0.1771
25638SOL    HW178591   4.828   2.885   8.187  2.1767 -1.8039  0.5305
25638SOL    HW278592   4.896   3.020   8.196 -0.6772 -0.2172 -0.9396
25639SOL     OW78593   7.356   8.598   3.012 -0.2649 -0.3663  0.0244
25639SOL    HW178594   7.386   8.533   2.950  0.2531  0.4805 -0.6219
25639SOL    HW278595   7.276   8.634   2.973 -0.2340 -0.2096  0.1023
25640SOL     OW78596   3.323   8.715   6.455 -0.6908 -0.2059  0.0716
25640SOL    HW178597   3.338   8.802   6.418 -2.1675 -0.1544 -0.4665
25640SOL    HW278598   3.267   8.730   6.531 -0.7665 -0.6608  0.1091
25641SOL     OW78599   7.946   5.165   8.288 -0.3185 -0.2669 -0.4874
25641SOL    HW178600   7.863   5.119   8.298 -0.8887  0.7587 -0.3717
25641SOL    HW278601   8.013   5.102   8.314 -1.1354 -0.7775  0.3868
25642SOL     OW78602   0.429   9.039   5.560  0.0089 -0.1724  0.0376
25642SOL    HW178603   0.448   8.948   5.540 -1.6546 -0.4580 -0.3309
25642SOL    HW278604   0.426   9.044   5.655 -0.7832 -0.6971  0.0397
25643SOL     OW78605   0.663   8.855   7.357  0.2743 -0.5475 -0.2270
25643SOL    HW178606   0.597   8.790   7.379  0.1656 -0.0776  0.9040
25643SOL    HW278607   0.620   8.939   7.373  1.2900 -0.2431  0.9719
25644SOL     OW78608   9.086   6.485   5.850  0.2366 -0.0252 -0.0587
25644SOL    HW178609   9.151   6.436   5.901 -0.4975 -1.1439 -0.1855
25644SOL    HW278610   9.021   6.513   5.915 -0.6768 -1.4159 -0.3527
25645SOL     OW78611   6.142   4.814   5.466  0.1835 -0.1350 -0.5704
25645SOL    HW178612   6.215   4.864   5.429  0.9627 -0.1403  0.8882
25645SOL    HW278613   6.069   4.876   5.467  0.5707  0.3266 -0.6971
25646SOL     OW78614   0.422   8.231   1.007  1.3277 -0.9889 -0.0083
25646SOL    HW178615   0.504   8.188   1.028  1.9018 -0.4749 -1.1623
25646SOL    HW278616   0.399   8.279   1.086  2.3247 -0.8421  0.1976
25647SOL     OW78617   8.121   3.247   6.087  0.2797 -0.0501 -0.5573
25647SOL    HW178618   8.027   3.251   6.105  0.6246 -1.1382  1.7679
25647SOL    HW278619   8.152   3.337   6.101 -0.2427  0.0792 -0.2186
25648SOL     OW78620   5.967   7.364   4.673 -0.4211 -0.0407  0.3406
25648SOL    HW178621   6.062   7.354   4.664 -0.4044 -0.9998  1.4684
25648SOL    HW278622   5.953   7.459   4.674  0.4963  0.1013 -0.0896
25649SOL     OW78623   1.415   0.950   4.764  0.4525  0.5101  0.0334
25649SOL    HW178624   1.335   0.973   4.811  1.0196 -0.1857  1.3410
25649SOL    HW278625   1.459   1.034   4.750  0.2477  0.7253  0.6746
25650SOL     OW78626   3.130   4.983   5.577 -0.5726  0.4832  0.2860
25650SOL    HW178627   3.148   4.906   5.524 -0.0541  1.1363 -0.5094
25650SOL    HW278628   3.052   5.022   5.537 -0.6931  0.4919  0.5319
25651SOL     OW78629   0.081   6.970   6.719  0.3815 -0.2620 -0.0342
25651SOL    HW178630   0.077   7.023   6.640 -1.4319 -0.5374 -0.1646
25651SOL    HW278631  -0.010   6.966   6.749  0.9816 -0.4681  1.8537
25652SOL     OW78632   6.062   4.887   6.989  0.5744 -0.3352  0.5047
25652SOL    HW178633   6.023   4.830   6.922 -0.2702 -0.1454  0.8387
25652SOL    HW278634   6.042   4.976   6.960 -1.0156 -0.2699  1.7268
25653SOL     OW78635   8.526   1.876   6.215  0.5261  0.1249 -0.2077
25653SOL    HW178636   8.492   1.940   6.153  0.2289 -0.8536 -1.0641
25653SOL    HW278637   8.467   1.801   6.207  0.9701 -0.3261  0.6636
25654SOL     OW78638   6.945   0.346   7.350 -0.2893 -0.3198 -0.1508
25654SOL    HW178639   6.975   0.350   7.259 -0.5484 -3.9472 -0.4347
25654SOL    HW278640   7.020   0.377   7.401  0.3984  0.2370 -1.4663
25655SOL     OW78641   6.990   6.866   3.047  0.1742 -0.0437 -0.2561
25655SOL    HW178642   7.057   6.817   3.000 -0.4367 -0.3572 -0.8104
25655SOL    HW278643   6.917   6.872   2.985 -0.8988 -1.0606  0.8687
25656SOL     OW78644   1.211   3.947   3.989 -0.5685 -0.3966 -0.2324
25656SOL    HW178645   1.163   4.014   3.941 -1.0682 -0.4356  0.2039
25656SOL    HW278646   1.241   3.991   4.069  1.1745 -0.0413 -1.0652
25657SOL     OW78647   7.160   5.439   4.091  0.3756  0.4657  0.4805
25657SOL    HW178648   7.200   5.524   4.105 -0.8582  0.8906  1.4759
25657SOL    HW278649   7.076   5.443   4.137  1.1600 -1.9798  2.2631
25658SOL     OW78650   0.125   6.482   8.769  0.5347  0.2462 -0.5498
25658SOL    HW178651   0.149   6.442   8.685 -2.8918 -0.7202 -1.1247
25658SOL    HW278652   0.031   6.499   8.762  0.6341  2.2746  2.2559
25659SOL     OW78653   2.488   7.004   5.446  0.2011 -0.3097 -0.1731
25659SOL    HW178654   2.421   7.047   5.392  0.1096  0.9835  0.9458
25659SOL    HW278655   2.460   7.020   5.536  1.1448 -1.1963  0.2899
25660SOL     OW78656   8.109   5.022   5.840  0.1663  0.2213  0.3929
25660SOL    HW178657   8.092   5.033   5.746  1.0580 -2.0481 -0.0623
25660SOL    HW278658   8.035   5.065   5.883 -0.8834  0.2236 -1.3688
25661SOL     OW78659   2.206   0.116   4.942 -0.5719  0.1270 -0.2164
25661SOL    HW178660   2.196   0.112   4.847  1.1779 -0.1039 -0.4048
25661SOL    HW278661   2.256   0.037   4.964  0.1140  0.8161  0.7209
25662SOL     OW78662   1.203   4.472   6.161 -0.1607 -0.3206  0.2999
25662SOL    HW178663   1.290   4.469   6.122 -0.5493 -2.8242 -0.4819
25662SOL    HW278664   1.149   4.520   6.098  0.2725 -0.2314 -0.0025
25663SOL     OW78665   0.884   5.361   8.088  0.1525  0.3540  0.3052
25663SOL    HW178666   0.853   5.347   7.998  0.5406  1.1998  0.0391
25663SOL    HW278667   0.805   5.351   8.142 -0.0588 -0.2858 -0.1186
25664SOL     OW78668   0.713   0.228   0.210  0.0715  0.5845  0.3284
25664SOL    HW178669   0.720   0.175   0.289 -0.0598 -0.7969 -0.5706
25664SOL    HW278670   0.762   0.307   0.230  3.7360 -1.5831  0.2859
25665SOL     OW78671   1.339   2.786   3.349  0.2528  0.0833 -0.2234
25665SOL    HW178672   1.257   2.742   3.372 -0.7982  1.9678 -0.3447
25665SOL    HW278673   1.361   2.838   3.426  0.9248  0.2034 -0.4961
25666SOL     OW78674   7.211   3.136   3.942 -0.8684  0.4180  0.3058
25666SOL    HW178675   7.192   3.224   3.910  0.0143  1.7980  3.3561
25666SOL    HW278676   7.146   3.121   4.011 -0.2306 -0.8189  0.6601
25667SOL     OW78677   3.955   6.708   2.409  0.6096  0.1448  0.1608
25667SOL    HW178678   3.893   6.641   2.436 -0.2839  1.0323  0.3584
25667SOL    HW278679   3.998   6.735   2.490 -0.5694  1.3226  0.4027
25668SOL     OW78680   0.507   0.665   2.042  0.2139  0.1993  0.1980
25668SOL    HW178681   0.494   0.665   2.137  0.3357  1.7218  0.2311
25668SOL    HW278682   0.589   0.618   2.028 -0.5445 -1.2902  0.7277
25669SOL     OW78683   1.097   2.219   6.318  0.2697 -0.0328 -0.9227
25669SOL    HW178684   1.174   2.274   6.328  0.8797 -1.0048 -0.1095
25669SOL    HW278685   1.053   2.252   6.240  1.4268  0.6317 -1.3011
25670SOL     OW78686   9.052   9.176   3.131  0.3088 -0.2886 -0.7590
25670SOL    HW178687   9.018   9.214   3.050 -1.1316 -0.9193 -0.4538
25670SOL    HW278688   9.028   9.239   3.199 -1.4408 -1.3594 -0.3557
25671SOL     OW78689   0.366   6.166   1.003  0.2668  0.0812  0.2181
25671SOL    HW178690   0.445   6.219   1.004 -0.9982  2.0642 -0.8607
25671SOL    HW278691   0.363   6.129   0.914 -0.6621  1.0536 -0.1680
25672SOL     OW78692   0.041   1.744   2.036 -0.4325  0.1784  0.3231
25672SOL    HW178693   0.045   1.671   1.975 -2.4668  0.5779 -0.2976
25672SOL    HW278694   0.010   1.706   2.118 -1.3817  0.3088  0.0311
25673SOL     OW78695   9.078   4.863   2.453  0.9053  0.0068  0.0129
25673SOL    HW178696   9.165   4.829   2.430  1.0283  1.3977 -1.6297
25673SOL    HW278697   9.091   4.957   2.465 -0.3768  0.2314 -0.2676
25674SOL     OW78698   4.446   9.268   7.330 -0.1106  0.0600 -0.5192
25674SOL    HW178699   4.467   9.356   7.300  2.1188  0.0188  0.8338
25674SOL    HW278700   4.474   9.211   7.258  1.4207  0.2471 -0.0871
25675SOL     OW78701   7.845   1.648   9.008 -0.8012  0.4154 -0.1152
25675SOL    HW178702   7.925   1.697   8.992  0.2202 -1.0032  0.5037
25675SOL    HW278703   7.805   1.639   8.921  0.0192  0.6366 -0.5222
25676SOL     OW78704   1.164   5.183   7.323  0.0648 -0.0176  0.9628
25676SOL    HW178705   1.121   5.267   7.312 -0.4388 -0.2757  0.9400
25676SOL    HW278706   1.210   5.169   7.240 -1.6759 -0.7916  0.1034
25677SOL     OW78707   3.576   0.660   8.602  1.0262  0.3435 -0.7186
25677SOL    HW178708   3.622   0.742   8.618 -0.3597  0.9058  0.4538
25677SOL    HW278709   3.568   0.619   8.688  0.0173 -0.0971 -1.0128
25678SOL     OW78710   4.664   7.143   8.403  0.4162 -0.2328 -0.2774
25678SOL    HW178711   4.755   7.162   8.423  0.4929 -0.3817 -0.4846
25678SOL    HW278712   4.614   7.200   8.461  0.6415  0.4031 -0.7084
25679SOL     OW78713   6.616   9.266   1.751 -0.1107 -0.1174  0.0487
25679SOL    HW178714   6.657   9.306   1.675  0.5755  0.3735  0.6755
25679SOL    HW278715   6.686   9.216   1.793 -0.7808 -1.3947 -0.3235
25680SOL     OW78716   0.184   3.622   0.654  0.2578 -0.4653 -0.3202
25680SOL    HW178717   0.209   3.699   0.603  1.7983 -0.1783  0.8194
25680SOL    HW278718   0.250   3.617   0.724  1.0585 -3.6648 -1.2003
25681SOL     OW78719   6.848   6.434   4.866  0.0069 -0.1487 -0.0688
25681SOL    HW178720   6.794   6.404   4.940 -2.6251  2.4592 -0.8148
25681SOL    HW278721   6.914   6.491   4.906 -0.3164 -0.1387  0.4584
25682SOL     OW78722   3.725   8.421   2.554  0.0619  0.1225 -0.0246
25682SOL    HW178723   3.739   8.370   2.633  0.5057  1.8431  1.0220
25682SOL    HW278724   3.775   8.502   2.567 -1.8643  1.5207 -0.9758
25683SOL     OW78725   1.374   1.946   6.471  0.3439  0.7347  0.1654
25683SOL    HW178726   1.426   2.016   6.430  0.3043  1.1303  0.7795
25683SOL    HW278727   1.433   1.907   6.535 -0.0854  1.1287  0.8043
25684SOL     OW78728   9.059   2.072   8.456  0.1936 -0.0035  0.3691
25684SOL    HW178729   9.072   2.024   8.374  0.6750 -0.1580  0.5339
25684SOL    HW278730   8.967   2.059   8.477 -0.2048  0.9650 -0.7333
25685SOL     OW78731   3.998   5.079   2.324  0.7181  0.6131  0.3287
25685SOL    HW178732   4.088   5.089   2.295  0.3074  2.8410 -0.2958
25685SOL    HW278733   3.949   5.062   2.244  0.2085  2.2419  0.2783
25686SOL     OW78734   8.159   2.005   5.951  0.3765  0.5884 -0.1831
25686SOL    HW178735   8.080   2.059   5.957  0.0558 -0.0094  1.4191
25686SOL    HW278736   8.208   2.026   6.031  0.4988 -1.0855  0.2055
25687SOL     OW78737   8.080   8.446   1.704  0.8212 -0.4511  0.4640
25687SOL    HW178738   8.139   8.394   1.758 -0.4085 -1.6393  0.7013
25687SOL    HW278739   8.038   8.382   1.646 -2.0231 -0.0146  1.9354
25688SOL     OW78740   8.567   1.520   2.201 -0.6767  0.0886 -0.0893
25688SOL    HW178741   8.649   1.514   2.249 -1.5770 -1.1669  1.3329
25688SOL    HW278742   8.593   1.520   2.109  0.9228 -0.0663  0.3496
25689SOL     OW78743   3.281   4.886   5.803  0.0453  0.0517 -0.4944
25689SOL    HW178744   3.231   4.914   5.727 -0.1382 -0.3482 -0.5235
25689SOL    HW278745   3.244   4.801   5.827  1.7380 -0.9866 -1.4753
25690SOL     OW78746   3.921   0.725   5.308  0.0754 -0.0979  0.1111
25690SOL    HW178747   3.912   0.722   5.213 -1.6829 -3.0793  0.2999
25690SOL    HW278748   3.831   0.731   5.341  0.7528  4.2426  1.6218
25691SOL     OW78749   5.200   6.327   3.317  0.0718 -1.1938 -0.0590
25691SOL    HW178750   5.110   6.327   3.284 -0.4200 -1.5075  1.2618
25691SOL    HW278751   5.217   6.235   3.340  0.5085 -1.0316  0.2783
25692SOL     OW78752   9.236   6.170   8.858  0.7479 -0.4711  0.0646
25692SOL    HW178753   9.273   6.230   8.794 -0.4131  0.6284  0.4137
25692SOL    HW278754   9.295   6.095   8.857  1.3334 -0.0083 -1.5166
25693SOL     OW78755   5.404   1.119   9.042  0.1734 -0.2147 -0.9226
25693SOL    HW178756   5.381   1.044   8.986  0.7876 -0.7347 -0.4885
25693SOL    HW278757   5.355   1.192   9.005 -0.4351 -0.8319 -1.3557
25694SOL     OW78758   3.853   6.509   3.932 -0.2535 -0.4607 -0.0001
25694SOL    HW178759   3.823   6.578   3.992  0.3700 -0.7323  0.6289
25694SOL    HW278760   3.792   6.514   3.858 -1.1267 -0.2301  0.7224
25695SOL     OW78761   6.137   2.761   7.943  0.0860  0.1485 -0.5429
25695SOL    HW178762   6.106   2.672   7.923 -0.3315 -0.5594  2.9283
25695SOL    HW278763   6.224   2.747   7.981  0.1756  1.2758 -0.3322
25696SOL     OW78764   1.751   6.968   5.076 -0.4005  0.8176 -0.2694
25696SOL    HW178765   1.794   7.053   5.062 -1.9613  1.4816 -1.1020
25696SOL    HW278766   1.661   6.990   5.098 -0.9311 -0.6556 -0.9455
25697SOL     OW78767   1.728   4.867   8.365 -0.0895 -0.4876 -0.3411
25697SOL    HW178768   1.747   4.878   8.458 -0.8456 -1.4436 -0.0656
25697SOL    HW278769   1.665   4.795   8.362  0.8143 -1.2315 -1.6786
25698SOL     OW78770   6.575   5.720   3.767  0.2076 -0.0389 -0.1905
25698SOL    HW178771   6.604   5.805   3.802 -0.1857  0.4921 -1.1468
25698SOL    HW278772   6.645   5.693   3.709 -0.0591  0.0406 -0.5493
25699SOL     OW78773   5.368   3.845   9.124 -0.6806 -0.2850 -0.0518
25699SOL    HW178774   5.409   3.797   9.196 -2.1284 -1.9510 -0.2813
25699SOL    HW278775   5.369   3.936   9.152  3.0580 -0.2633 -0.0225
25700SOL     OW78776   2.081   5.394   7.519 -0.0406 -0.1596  0.8093
25700SOL    HW178777   2.161   5.346   7.500  0.0134 -0.5068  1.8758
25700SOL    HW278778   2.022   5.329   7.557 -0.9720  0.0091 -0.3237
25701SOL     OW78779   6.134   4.275   9.036  0.8838 -0.1662 -0.2081
25701SOL    HW178780   6.151   4.322   8.954  1.1138  0.2355  0.0691
25701SOL    HW278781   6.218   4.236   9.060  1.4803  1.8717  1.1940
25702SOL     OW78782   4.218   5.817   0.701 -0.0241  0.0027  0.3388
25702SOL    HW178783   4.151   5.871   0.743  0.2480 -0.7426  1.7921
25702SOL    HW278784   4.232   5.857   0.615 -1.5350  0.8073  0.4556
25703SOL     OW78785   0.544   2.585   1.924 -0.3623  0.2334 -0.2917
25703SOL    HW178786   0.539   2.659   1.985  2.5079 -1.1794  1.7485
25703SOL    HW278787   0.483   2.521   1.960  0.6894 -0.2617  0.6047
25704SOL     OW78788   1.519   1.493   5.922 -0.3470  0.4170 -0.0616
25704SOL    HW178789   1.476   1.412   5.948  0.1745 -0.7241 -2.5843
25704SOL    HW278790   1.565   1.522   6.000 -0.1408 -1.9714  0.7397
25705SOL     OW78791   6.634   5.155   4.552  0.5395  0.0129 -0.2945
25705SOL    HW178792   6.639   5.235   4.604  0.8531 -0.5704  0.5778
25705SOL    HW278793   6.657   5.085   4.613  0.2795 -0.7434 -1.0533
25706SOL     OW78794   9.115   3.007   4.615  0.1520 -0.1175 -0.3103
25706SOL    HW178795   9.144   2.968   4.698  0.7931 -2.3961 -1.5602
25706SOL    HW278796   9.179   3.077   4.599 -0.0956  0.4809  1.2081
25707SOL     OW78797   1.686   0.571   3.483  0.3497 -0.5414  0.4782
25707SOL    HW178798   1.781   0.567   3.480  0.3803 -0.6409  1.6914
25707SOL    HW278799   1.665   0.598   3.572 -0.7187  0.7618 -0.1344
25708SOL     OW78800   4.809   8.876   6.064  0.1659 -0.1087 -0.3155
25708SOL    HW178801   4.879   8.902   6.005 -0.9317  1.9017 -0.7688
25708SOL    HW278802   4.834   8.911   6.149 -0.7134  1.4555 -0.6732
25709SOL     OW78803   0.738   3.371   7.909 -0.5220 -0.1391 -0.7391
25709SOL    HW178804   0.678   3.432   7.865 -1.6253 -1.4697 -1.1339
25709SOL    HW278805   0.736   3.398   8.001 -1.1317  0.3253 -0.8827
25710SOL     OW78806   2.901   2.478   5.891  0.1594 -0.8146  0.3218
25710SOL    HW178807   2.944   2.561   5.870 -3.6689  1.0077 -0.7828
25710SOL    HW278808   2.878   2.441   5.806 -0.9759 -1.4035  0.8754
25711SOL     OW78809   6.792   2.334   0.762 -0.3031 -0.0586  0.1991
25711SOL    HW178810   6.810   2.396   0.832  1.5248 -2.3576  1.8281
25711SOL    HW278811   6.869   2.278   0.759 -1.4709 -1.6200 -1.9197
25712SOL     OW78812   6.173   3.564   5.630  0.5849 -0.6956  0.1465
25712SOL    HW178813   6.171   3.470   5.615  1.7940 -0.7898  0.5803
25712SOL    HW278814   6.089   3.595   5.596 -0.4581 -2.1331  1.3306
25713SOL     OW78815   2.365   5.403   9.166  0.4779  0.5039  0.8688
25713SOL    HW178816   2.322   5.485   9.191 -1.4550 -0.6154  1.3360
25713SOL    HW278817   2.296   5.352   9.123  2.1934 -0.0437 -1.3403
25714SOL     OW78818   1.543   1.249   5.772  0.0501 -0.3348  0.2307
25714SOL    HW178819   1.546   1.160   5.736 -3.1260 -0.3633 -0.0850
25714SOL    HW278820   1.469   1.248   5.832 -0.3803  2.2682 -0.2292
25715SOL     OW78821   6.585   0.784   8.296  0.8794  0.3618  0.3370
25715SOL    HW178822   6.612   0.865   8.340  2.6211  0.5955 -1.0762
25715SOL    HW278823   6.631   0.715   8.343 -1.0784  0.0982  1.9278
25716SOL     OW78824   7.387   4.827   5.682 -0.3393  0.1366 -0.0974
25716SOL    HW178825   7.298   4.809   5.650  0.3710 -1.1776 -1.3646
25716SOL    HW278826   7.401   4.762   5.751 -0.1780  0.0333 -0.2288
25717SOL     OW78827   2.462   1.604   5.021  0.0084 -0.1518 -0.0079
25717SOL    HW178828   2.547   1.637   5.050 -0.1317 -0.4144  0.7160
25717SOL    HW278829   2.436   1.663   4.950 -0.1386  1.1651  1.1225
25718SOL     OW78830   5.976   6.249   3.509 -0.1138 -0.2913 -0.3347
25718SOL    HW178831   6.053   6.202   3.542 -0.8478  0.0686  2.0077
25718SOL    HW278832   6.004   6.340   3.502 -0.2185 -0.2068  0.2585
25719SOL     OW78833   6.387   8.361   5.684  0.1666  0.5681 -0.9295
25719SOL    HW178834   6.413   8.446   5.721 -0.9017  0.7033 -0.4797
25719SOL    HW278835   6.400   8.371   5.590  0.8872  0.9350 -0.7955
25720SOL     OW78836   4.913   2.309   9.254 -0.3384 -0.0752  0.1803
25720SOL    HW178837   5.002   2.276   9.244 -0.7908 -1.5216  0.8287
25720SOL    HW278838   4.915   2.359   9.336 -0.1077 -0.0346  0.1493
25721SOL     OW78839   6.479   8.259   1.267 -0.7232 -0.5832 -0.7898
25721SOL    HW178840   6.498   8.348   1.240 -0.8938 -0.6827 -1.2520
25721SOL    HW278841   6.533   8.244   1.344 -0.4605 -0.1893 -0.9004
25722SOL     OW78842   8.421   9.024   8.053 -0.2453 -0.4910  0.3325
25722SOL    HW178843   8.477   9.032   7.975  0.2031 -0.9794  0.6063
25722SOL    HW278844   8.466   8.962   8.109 -2.1280 -2.5793 -0.3727
25723SOL     OW78845   0.598   9.200   7.634 -0.2457  0.1913 -0.1969
25723SOL    HW178846   0.541   9.277   7.627 -1.4285 -0.7983 -1.9285
25723SOL    HW278847   0.546   9.136   7.682  0.2378  0.0278  0.1050
25724SOL     OW78848   2.162   1.875   2.956  0.0656 -0.4179  0.1327
25724SOL    HW178849   2.068   1.855   2.950 -0.2230 -0.4943  3.7479
25724SOL    HW278850   2.203   1.818   2.892 -2.2778 -1.0533 -0.8644
25725SOL     OW78851   3.236   7.521   6.687  0.1155  0.0433 -0.0912
25725SOL    HW178852   3.283   7.601   6.711  1.6984 -0.9264  0.1567
25725SOL    HW278853   3.259   7.507   6.595 -1.4095  0.7046 -0.5818
25726SOL     OW78854   3.937   1.710   1.185  0.1202  0.1740 -0.4350
25726SOL    HW178855   4.014   1.686   1.237  1.0736  0.8325 -1.5190
25726SOL    HW278856   3.960   1.794   1.145 -1.9892  1.4327  0.8966
25727SOL     OW78857   8.097   5.908   8.310  0.2227  0.0068 -0.5752
25727SOL    HW178858   8.017   5.856   8.315  0.0060  0.4290  0.7325
25727SOL    HW278859   8.144   5.874   8.235 -0.2389 -1.6213 -0.1367
25728SOL     OW78860   4.342   7.949   7.768  0.0603  0.6564 -0.1540
25728SOL    HW178861   4.302   8.026   7.727  0.1333  1.3838  1.1222
25728SOL    HW278862   4.270   7.886   7.775  0.6555 -0.5895 -3.9862
25729SOL     OW78863   4.837   1.959   1.410  0.2262 -0.5540 -0.0651
25729SOL    HW178864   4.842   2.053   1.427 -0.2753 -0.5368  0.0003
25729SOL    HW278865   4.772   1.927   1.472  1.7428 -1.2561  1.1871
25730SOL     OW78866   8.765   8.162   7.363 -0.0629 -0.4949  0.4948
25730SOL    HW178867   8.768   8.256   7.344  1.1036 -0.6790 -0.3082
25730SOL    HW278868   8.699   8.128   7.302 -1.3766 -0.0259  1.6281
25731SOL     OW78869   6.693   0.737   5.118  0.3294  0.0024  0.1463
25731SOL    HW178870   6.656   0.824   5.134 -1.2848 -1.1167  2.6630
25731SOL    HW278871   6.787   0.752   5.116  0.0731  1.8212  0.5087
25732SOL     OW78872   7.226   5.428   0.705 -0.6543  0.4219  0.0554
25732SOL    HW178873   7.277   5.419   0.785  1.1486  1.4423 -0.9586
25732SOL    HW278874   7.202   5.339   0.681 -0.4851  0.0503  1.2574
25733SOL     OW78875   8.566   7.376   1.643  0.0149  0.2875 -0.0062
25733SOL    HW178876   8.582   7.311   1.575 -0.2724 -0.7156  0.8710
25733SOL    HW278877   8.606   7.339   1.722 -1.7875  0.2898  0.9398
25734SOL     OW78878   5.564   7.840   1.587 -0.2523  0.4645 -0.2877
25734SOL    HW178879   5.576   7.747   1.570  0.1093  0.1736  1.4195
25734SOL    HW278880   5.651   7.871   1.613 -0.7827  0.8294  1.0924
25735SOL     OW78881   9.073   1.291   8.102  0.2913 -0.4188 -0.1969
25735SOL    HW178882   9.031   1.306   8.187 -0.1439 -0.7321 -0.3540
25735SOL    HW278883   9.167   1.296   8.120  0.1885  0.2193  0.1692
25736SOL     OW78884   5.161   3.803   1.814 -0.2225 -0.1203  0.1364
25736SOL    HW178885   5.147   3.890   1.776  0.5661 -0.1295 -0.1908
25736SOL    HW278886   5.109   3.803   1.895  0.0852  0.7954  0.3401
25737SOL     OW78887   1.755   3.255   3.778  0.4564 -0.4483  0.2328
25737SOL    HW178888   1.817   3.252   3.704 -0.2331 -1.9295 -0.2945
25737SOL    HW278889   1.691   3.321   3.752 -0.8742 -2.3357 -1.3848
25738SOL     OW78890   3.393   3.280   7.133 -0.0244 -0.3884 -0.0420
25738SOL    HW178891   3.347   3.253   7.213  0.6104 -2.2048 -0.2745
25738SOL    HW278892   3.390   3.203   7.076  1.7674  0.0526 -0.7650
25739SOL     OW78893   7.903   2.201   8.902 -0.4809 -0.4493  0.0276
25739SOL    HW178894   7.831   2.160   8.950 -0.9212  1.0511  0.6704
25739SOL    HW278895   7.869   2.286   8.875  1.4445  0.8269  1.4564
25740SOL     OW78896   8.013   7.563   2.381  0.2188  0.0262  0.3169
25740SOL    HW178897   8.012   7.650   2.420 -0.6094  1.0028 -1.8535
25740SOL    HW278898   8.099   7.527   2.406  0.8548  1.7173  0.6242
25741SOL     OW78899   4.292   4.299   8.607  0.7079 -0.1368 -0.0794
25741SOL    HW178900   4.224   4.356   8.645 -0.0758 -0.1950 -1.3718
25741SOL    HW278901   4.252   4.213   8.603  0.6752 -0.0813 -1.2659
25742SOL     OW78902   7.601   4.267   6.022  0.3779  0.0408 -0.2912
25742SOL    HW178903   7.541   4.198   5.995  1.5425 -0.4890 -1.6277
25742SOL    HW278904   7.573   4.345   5.974 -0.2204  0.2147  0.3294
25743SOL     OW78905   1.644   4.378   0.443  0.0100  0.1656  0.5122
25743SOL    HW178906   1.627   4.465   0.406  0.9298 -0.0767 -0.4899
25743SOL    HW278907   1.567   4.360   0.496 -0.0599  1.7289  0.9878
25744SOL     OW78908   0.844   1.187   4.488 -0.0781 -0.7651  0.5871
25744SOL    HW178909   0.883   1.274   4.482  0.1575 -0.9845 -1.3189
25744SOL    HW278910   0.813   1.181   4.578  1.4482  0.6295  1.2362
25745SOL     OW78911   5.068   5.241   5.534  0.4744  0.2460 -0.1329
25745SOL    HW178912   5.083   5.224   5.441  0.2620 -0.0564 -0.1129
25745SOL    HW278913   4.975   5.226   5.547  0.5304  0.1399  0.1586
25746SOL     OW78914   4.700   1.321   4.234  0.0110 -0.2879 -0.5236
25746SOL    HW178915   4.703   1.265   4.311 -2.4903  0.2982  0.0616
25746SOL    HW278916   4.694   1.261   4.160 -1.8574 -0.8337  0.0467
25747SOL     OW78917   5.304   9.152   6.486 -0.4934  0.1636 -0.5178
25747SOL    HW178918   5.351   9.069   6.485 -0.7103  0.0333 -0.2350
25747SOL    HW278919   5.372   9.219   6.492 -0.2807  0.0411 -1.5323
25748SOL     OW78920   9.208   4.690   0.303 -0.0423 -0.6422 -0.2079
25748SOL    HW178921   9.299   4.717   0.318  0.0650 -0.8199 -0.5319
25748SOL    HW278922   9.206   4.597   0.325 -0.2491 -0.5385  0.2205
25749SOL     OW78923   5.356   7.343   8.329  0.1586 -0.4226 -0.5800
25749SOL    HW178924   5.410   7.384   8.397 -1.0882 -1.3049  0.9777
25749SOL    HW278925   5.314   7.416   8.284  1.4442  0.2006 -0.7986
25750SOL     OW78926   6.039   1.040   4.654 -0.5205 -0.2417  0.3459
25750SOL    HW178927   6.060   1.133   4.660 -0.4989 -0.1627 -0.8877
25750SOL    HW278928   5.967   1.035   4.591 -0.4858 -1.0610  0.3608
25751SOL     OW78929   6.082   3.410   1.296  0.3198  0.2013  0.0422
25751SOL    HW178930   6.175   3.401   1.317  0.2057 -1.3718 -0.1119
25751SOL    HW278931   6.037   3.351   1.357 -0.3957 -0.7481 -1.3750
25752SOL     OW78932   0.726   5.762   0.820 -0.1896 -0.4597  0.3341
25752SOL    HW178933   0.775   5.721   0.891  0.4890 -1.2313 -0.5714
25752SOL    HW278934   0.672   5.691   0.784  1.6334 -0.8376 -1.8148
25753SOL     OW78935   3.494   5.923   8.629  0.1494  0.1003 -0.0770
25753SOL    HW178936   3.555   5.989   8.597  1.9560 -1.9155 -0.9167
25753SOL    HW278937   3.425   5.920   8.563 -0.2916  1.6019  0.3065
25754SOL     OW78938   0.476   6.127   6.447 -0.0669  0.2454 -0.0416
25754SOL    HW178939   0.426   6.072   6.507 -0.4368 -0.3501 -0.8787
25754SOL    HW278940   0.555   6.076   6.429  0.0365  0.4172 -0.0650
25755SOL     OW78941   2.163   4.518   3.078  0.2045  0.3902  0.1884
25755SOL    HW178942   2.226   4.452   3.046 -0.0748  0.0806  0.2744
25755SOL    HW278943   2.097   4.467   3.126 -0.7477  0.5898 -0.8973
25756SOL     OW78944   3.267   5.721   5.493  0.0050 -0.0467 -0.1187
25756SOL    HW178945   3.209   5.659   5.537  1.4231 -1.2220  0.1484
25756SOL    HW278946   3.318   5.667   5.433 -0.1908  1.1909 -1.4217
25757SOL     OW78947   9.207   7.177   0.102 -0.0485 -0.1363  0.3240
25757SOL    HW178948   9.220   7.249   0.041  1.3844  1.0671  1.9907
25757SOL    HW278949   9.239   7.099   0.056 -0.6037  0.4557 -1.0810
25758SOL     OW78950   4.127   2.701   0.391 -0.7045 -0.0532  0.3065
25758SOL    HW178951   4.054   2.755   0.362  0.1993  1.0630  0.0819
25758SOL    HW278952   4.089   2.614   0.403 -2.0826  0.5345  0.2783
25759SOL     OW78953   7.959   4.655   8.327  0.4312 -0.5419  0.0106
25759SOL    HW178954   7.902   4.670   8.403  0.1658  1.4015 -0.5375
25759SOL    HW278955   7.980   4.743   8.296 -0.5382 -1.3306 -2.9828
25760SOL     OW78956   7.487   5.742   0.621  0.0820 -0.0691  0.0010
25760SOL    HW178957   7.398   5.740   0.586 -1.0407 -2.1628  2.7625
25760SOL    HW278958   7.491   5.665   0.678  3.5270  0.2671  0.2922
25761SOL     OW78959   9.053   8.546   5.119 -0.1441  0.5213 -0.0517
25761SOL    HW178960   9.137   8.538   5.074 -0.1381 -1.0174  0.1844
25761SOL    HW278961   9.050   8.636   5.151  0.5004  1.2149 -1.8600
25762SOL     OW78962   5.237   1.426   7.029 -0.1157  0.1260 -0.6006
25762SOL    HW178963   5.298   1.369   6.983 -0.0526  0.0045 -0.3642
25762SOL    HW278964   5.288   1.504   7.050 -0.2735  0.3829 -1.1590
25763SOL     OW78965   3.834   3.827   6.348 -0.5700 -0.1296  0.5989
25763SOL    HW178966   3.929   3.810   6.347 -0.7982 -1.4393 -0.6841
25763SOL    HW278967   3.795   3.742   6.369 -1.5079  0.1955  0.1892
25764SOL     OW78968   7.823   4.194   1.660 -0.3254  0.0947 -0.1616
25764SOL    HW178969   7.736   4.154   1.657  0.2381 -1.1339 -0.3778
25764SOL    HW278970   7.884   4.122   1.642  0.7040  1.0864 -0.7430
25765SOL     OW78971   2.740   8.781   0.889 -0.3644  0.2922  0.1495
25765SOL    HW178972   2.684   8.849   0.852 -0.4644 -0.4419 -1.0607
25765SOL    HW278973   2.807   8.766   0.823  0.1375 -0.2161  0.7639
25766SOL     OW78974   7.935   1.152   9.287 -0.2405  0.6899 -0.1492
25766SOL    HW178975   7.910   1.059   9.294  2.2727  0.0231  0.3500
25766SOL    HW278976   7.904   1.178   9.201 -0.8367 -0.6636 -0.3658
25767SOL     OW78977   1.337   1.275   5.964 -0.2323 -0.5159 -0.0983
25767SOL    HW178978   1.251   1.316   5.952  0.3833  0.3561 -1.5883
25767SOL    HW278979   1.320   1.181   5.954 -0.7755 -0.2422 -2.0082
25768SOL     OW78980   4.124   6.568   1.513 -0.3133  0.3536 -0.0793
25768SOL    HW178981   4.049   6.509   1.513  0.5442 -0.7528  0.5178
25768SOL    HW278982   4.200   6.511   1.507  0.4871  1.4679 -0.7803
25769SOL     OW78983   8.667   0.803   7.503  0.1215  0.3473 -0.2314
25769SOL    HW178984   8.683   0.768   7.591  1.6949  0.0840 -0.6147
25769SOL    HW278985   8.650   0.726   7.449 -0.7520  0.5034 -0.1859
25770SOL     OW78986   2.949   1.682   7.965 -0.1566 -0.2003  0.2107
25770SOL    HW178987   2.956   1.707   7.873  2.5363 -0.1764  0.3783
25770SOL    HW278988   3.035   1.702   8.002 -0.6258 -1.8985  2.3174
25771SOL     OW78989   0.798   4.226   5.022 -0.1669 -0.0671  0.6178
25771SOL    HW178990   0.736   4.220   4.950 -1.4912 -1.0258  1.8149
25771SOL    HW278991   0.786   4.315   5.057  0.7439  0.5287 -0.5583
25772SOL     OW78992   1.125   1.789   5.076 -0.2311  0.4637  0.8823
25772SOL    HW178993   1.202   1.739   5.102 -0.2681  0.2260  0.5286
25772SOL    HW278994   1.151   1.881   5.087  0.2685  0.3901  0.2757
25773SOL     OW78995   1.787   6.700   5.181  0.5980 -0.1097  0.3600
25773SOL    HW178996   1.879   6.681   5.201  1.0610 -0.4157 -1.9025
25773SOL    HW278997   1.787   6.791   5.152 -0.1351  0.4889  2.2049
25774SOL     OW78998   1.269   5.446   8.316 -0.0899  0.1204 -0.2548
25774SOL    HW178999   1.273   5.370   8.374  0.3479 -1.3308 -2.1214
25774SOL    HW279000   1.353   5.490   8.328 -0.7376  0.9075  1.5842
25775SOL     OW79001   8.554   5.909   5.024 -0.0541 -0.1220 -0.3397
25775SOL    HW179002   8.578   5.995   5.058  1.9391 -0.0476 -1.8219
25775SOL    HW279003   8.527   5.859   5.101  0.7278  1.2093  0.8138
25776SOL     OW79004   4.459   1.449   0.897 -0.2862 -0.8036  0.2910
25776SOL    HW179005   4.380   1.395   0.899 -0.8864 -0.0137 -1.3717
25776SOL    HW279006   4.435   1.528   0.945 -0.6800 -0.3513 -0.6384
25777SOL     OW79007   5.058   2.072   3.572  0.3402  0.0216  0.3752
25777SOL    HW179008   5.070   2.157   3.529 -0.9302 -0.4801 -1.0018
25777SOL    HW279009   5.141   2.027   3.560  1.2962  1.3565  1.7925
25778SOL     OW79010   0.441   7.641   7.721 -0.4466 -0.2877  0.7313
25778SOL    HW179011   0.364   7.697   7.713 -0.5982 -0.6412 -0.3788
25778SOL    HW279012   0.470   7.653   7.812 -1.0381  0.8360  0.7796
25779SOL     OW79013   7.358   7.760   6.627  0.3617  0.0469 -0.2125
25779SOL    HW179014   7.391   7.679   6.587  1.0450  1.2722 -2.2699
25779SOL    HW279015   7.263   7.754   6.621  0.3226 -1.5626  1.6823
25780SOL     OW79016   3.269   7.941   2.665  0.3307  0.7159 -0.4898
25780SOL    HW179017   3.254   7.994   2.587 -2.5621 -0.4200 -0.7793
25780SOL    HW279018   3.181   7.923   2.699  1.3003 -2.5482  0.4943
25781SOL     OW79019   1.958   3.199   8.436  0.1358  0.5468 -0.1706
25781SOL    HW179020   1.919   3.113   8.446  0.9365  0.1739 -0.2043
25781SOL    HW279021   2.051   3.182   8.421  0.2759  1.4059 -0.3354
25782SOL     OW79022   8.217   2.729   6.927  0.0967 -0.2784  0.4132
25782SOL    HW179023   8.188   2.662   6.864  0.2037 -1.2202  1.3549
25782SOL    HW279024   8.273   2.682   6.988  0.8574  0.8543  0.6044
25783SOL     OW79025   3.358   7.376   9.190 -0.0700 -0.1343  0.1326
25783SOL    HW179026   3.353   7.411   9.279  0.6388  1.9015 -0.6056
25783SOL    HW279027   3.441   7.409   9.155  0.1124 -1.7042 -0.9550
25784SOL     OW79028   6.051   7.433   8.529 -0.0941 -0.2219 -0.4668
25784SOL    HW179029   6.066   7.383   8.448 -0.0445  1.6993 -1.6864
25784SOL    HW279030   5.957   7.429   8.543 -0.0513 -0.9545 -0.3405
25785SOL     OW79031   2.248   5.890   2.443  0.1754 -0.2402  0.1661
25785SOL    HW179032   2.263   5.843   2.361 -2.2920 -0.1372 -0.3738
25785SOL    HW279033   2.280   5.979   2.426  1.4470 -0.7296 -0.0288
25786SOL     OW79034   0.628   5.693   5.858 -0.4411  0.1348  0.4437
25786SOL    HW179035   0.682   5.715   5.933 -0.0982 -0.2551  0.3112
25786SOL    HW279036   0.682   5.636   5.805 -0.1596  1.5747 -0.8358
25787SOL     OW79037   6.212   0.180   3.295  0.3804 -0.1972  0.2877
25787SOL    HW179038   6.229   0.206   3.386  1.1626  0.0131  0.0899
25787SOL    HW279039   6.121   0.151   3.294 -0.7318  3.1495  0.3781
25788SOL     OW79040   7.959   7.753   1.321  0.5030 -0.1145  0.0520
25788SOL    HW179041   7.924   7.842   1.318  1.0890  0.0519 -3.0968
25788SOL    HW279042   8.046   7.763   1.361  0.0792  0.5524  0.8071
25789SOL     OW79043   4.527   2.592   2.055  0.2005 -0.2031 -0.9818
25789SOL    HW179044   4.530   2.614   2.149 -0.8441  0.6094 -1.1391
25789SOL    HW279045   4.617   2.566   2.035  0.6591  0.5472  0.0228
25790SOL     OW79046   9.276   3.304   6.074  0.1548  0.0813 -0.0926
25790SOL    HW179047   9.300   3.295   6.166 -1.1079  0.4883  0.2907
25790SOL    HW279048   9.314   3.227   6.032 -0.9042 -1.1455  1.1332
25791SOL     OW79049   5.611   6.665   4.360  0.0656  0.3202  0.3090
25791SOL    HW179050   5.551   6.737   4.343  3.1683  2.8611 -0.1580
25791SOL    HW279051   5.630   6.629   4.274 -0.5434 -0.3254  0.4369
25792SOL     OW79052   3.685   8.176   1.524 -0.9520 -0.0429 -0.0505
25792SOL    HW179053   3.716   8.101   1.473  1.8339  1.0825 -0.1018
25792SOL    HW279054   3.692   8.250   1.464 -0.9810  0.7210  0.8774
25793SOL     OW79055   6.110   2.286   6.233  0.0853  0.3314 -0.0159
25793SOL    HW179056   6.098   2.370   6.277 -1.4371  1.2258 -2.0200
25793SOL    HW279057   6.169   2.305   6.160 -1.0326 -0.1053 -1.0570
25794SOL     OW79058   7.749   8.361   5.317  0.0011  0.2688 -0.5826
25794SOL    HW179059   7.718   8.348   5.227 -1.6295 -0.7737  0.0929
25794SOL    HW279060   7.669   8.369   5.368  0.9218  1.0081  0.7634
25795SOL     OW79061   5.049   4.953   5.357  0.1972 -0.1572 -0.3827
25795SOL    HW179062   5.112   4.901   5.307  0.4894  0.1184 -0.3075
25795SOL    HW279063   5.039   5.033   5.306  0.1123 -0.0860 -0.2539
25796SOL     OW79064   3.444   8.872   0.657 -0.3473  0.4437  0.1196
25796SOL    HW179065   3.518   8.917   0.617 -2.3001  2.2851 -1.5579
25796SOL    HW279066   3.441   8.787   0.614  0.9781  0.2289  0.4466
25797SOL     OW79067   3.287   8.942   8.278  0.1751  0.2646  0.2093
25797SOL    HW179068   3.383   8.943   8.285  0.2720 -0.0365 -1.0275
25797SOL    HW279069   3.261   9.031   8.298  0.7466  0.4447  0.1743
25798SOL     OW79070   4.053   1.971   7.318 -0.0658  0.8242  0.4599
25798SOL    HW179071   3.964   2.006   7.319 -0.0437  0.9162 -0.1628
25798SOL    HW279072   4.103   2.031   7.374 -0.3431  0.9254  0.5980
25799SOL     OW79073   5.096   3.034   4.590 -0.9648  0.0714 -0.2491
25799SOL    HW179074   5.131   3.038   4.501 -0.4485 -0.8859 -0.0975
25799SOL    HW279075   5.054   2.948   4.595 -2.7305  0.9273 -0.1971
25800SOL     OW79076   0.255   0.534   3.104 -0.1693 -0.4142 -0.1785
25800SOL    HW179077   0.177   0.549   3.050  0.5511 -0.0490 -1.1327
25800SOL    HW279078   0.295   0.455   3.066 -0.3755 -0.9261  0.6610
25801SOL     OW79079   0.677   8.347   3.651 -0.3184  0.5555 -0.1916
25801SOL    HW179080   0.706   8.423   3.601  3.5569 -1.3882 -1.0741
25801SOL    HW279081   0.717   8.358   3.737 -1.6590  0.6404  0.4385
25802SOL     OW79082   1.493   5.218   6.777 -0.2120 -0.4570 -0.1952
25802SOL    HW179083   1.534   5.218   6.691  0.1989 -0.8350  0.0007
25802SOL    HW279084   1.562   5.246   6.837 -0.1461 -1.3894  0.1736
25803SOL     OW79085   3.668   8.772   0.004  0.1574 -0.5788  0.0995
25803SOL    HW179086   3.727   8.836  -0.037  0.9579 -1.0307  0.5339
25803SOL    HW279087   3.584   8.818   0.011  0.8192  0.5695  0.7667
25804SOL     OW79088   7.253   6.750   1.841  0.1415  0.2013 -0.3797
25804SOL    HW179089   7.337   6.747   1.795  0.1181  0.2386 -0.4238
25804SOL    HW279090   7.272   6.794   1.924  0.7287 -2.1364  0.7723
25805SOL     OW79091   4.799   4.861   3.555  0.8196  0.1056 -0.4178
25805SOL    HW179092   4.834   4.833   3.640 -0.4790  0.7238  0.3326
25805SOL    HW279093   4.843   4.804   3.492  1.7819 -0.3827  0.6644
25806SOL     OW79094   3.285   4.220   7.869 -0.1647  0.0941  0.4990
25806SOL    HW179095   3.240   4.242   7.787  0.1142 -2.1942 -0.2944
25806SOL    HW279096   3.222   4.241   7.938 -1.3842 -0.3965 -0.4506
25807SOL     OW79097   4.374   8.943   0.826 -0.3622 -0.3196 -0.1411
25807SOL    HW179098   4.359   8.883   0.899  0.3493 -1.2968 -0.7840
25807SOL    HW279099   4.467   8.932   0.805 -0.4959  0.1460 -1.0098
25808SOL     OW79100   2.455   8.184   3.420 -0.1548 -0.2443 -0.6143
25808SOL    HW179101   2.449   8.113   3.483  0.1439 -0.2008 -0.5344
25808SOL    HW279102   2.536   8.230   3.443 -1.0980  1.0088  0.2589
25809SOL     OW79103   2.655   5.251   4.550  0.1730  0.6480  0.6024
25809SOL    HW179104   2.737   5.296   4.571  1.0726 -0.9266  0.5613
25809SOL    HW279105   2.622   5.220   4.635 -0.3409  1.1945  0.6075
25810SOL     OW79106   1.070   2.745   1.060 -0.1849  0.0094 -0.1434
25810SOL    HW179107   1.093   2.700   0.978 -0.8871 -0.3505 -0.1493
25810SOL    HW279108   1.142   2.727   1.119  1.0047  1.4326 -1.1329
25811SOL     OW79109   5.008   6.080   2.900 -0.8035 -0.2000 -0.3975
25811SOL    HW179110   4.987   6.003   2.953 -0.2005 -0.2162 -0.1744
25811SOL    HW279111   5.082   6.120   2.945 -0.9522  0.3700 -0.6552
25812SOL     OW79112   6.941   2.447   4.677  0.4706  0.7060 -0.2973
25812SOL    HW179113   6.854   2.452   4.716  0.7382 -1.5543  0.6271
25812SOL    HW279114   6.924   2.421   4.586  0.2386 -1.6019  0.3659
25813SOL     OW79115   6.679   2.136   7.158 -0.2278  0.1160  0.2918
25813SOL    HW179116   6.657   2.142   7.065 -0.0151 -1.5825  0.1092
25813SOL    HW279117   6.632   2.209   7.198 -1.4399  0.0655 -0.9600
25814SOL     OW79118   4.786   1.691   4.706  0.0390  0.5740  0.0459
25814SOL    HW179119   4.713   1.630   4.698 -0.4151  1.1069  0.0776
25814SOL    HW279120   4.772   1.734   4.791 -0.4557  1.7605 -0.6226
25815SOL     OW79121   6.705   2.293   8.125 -0.2369  0.1142 -0.2255
25815SOL    HW179122   6.712   2.247   8.209  2.1127  0.0225 -0.4351
25815SOL    HW279123   6.743   2.379   8.141 -2.4463  1.1795 -0.4673
25816SOL     OW79124   8.423   7.478   0.351  0.2895  0.2390  0.9152
25816SOL    HW179125   8.488   7.450   0.416 -0.7051 -1.0768  1.3604
25816SOL    HW279126   8.406   7.400   0.299  0.4289  1.0599 -0.3946
25817SOL     OW79127   3.595   2.767   2.108  0.1591  0.2253  0.0901
25817SOL    HW179128   3.621   2.738   2.196  0.2711 -0.0636 -0.0385
25817SOL    HW279129   3.677   2.766   2.058  0.2674  1.3122  0.2347
25818SOL     OW79130   0.480   9.227   9.220  0.0995 -0.4692  0.6436
25818SOL    HW179131   0.536   9.174   9.163  0.0388  0.4472 -0.2837
25818SOL    HW279132   0.448   9.165   9.287  1.1889 -1.2698  0.4342
25819SOL     OW79133   6.519   4.514   8.566 -0.1417  0.2388 -0.4786
25819SOL    HW179134   6.605   4.475   8.556 -1.1501 -1.9140 -0.9716
25819SOL    HW279135   6.510   4.529   8.660  1.2677  1.6792 -0.5595
25820SOL     OW79136   0.471   6.247   1.533  0.5451  0.4039  0.6261
25820SOL    HW179137   0.405   6.306   1.497  0.7967 -0.0867 -0.6558
25820SOL    HW279138   0.511   6.206   1.457  3.7899  2.2272  1.2601
25821SOL     OW79139   7.050   5.933   6.657 -0.0237  0.2276 -0.2113
25821SOL    HW179140   7.113   5.990   6.702  0.1641 -0.7338  0.7575
25821SOL    HW279141   7.097   5.851   6.646 -0.4561  0.1170 -1.2076
25822SOL     OW79142   0.549   1.230   1.247 -0.0314 -0.1092 -0.2526
25822SOL    HW179143   0.594   1.312   1.267 -0.5893  0.0096  0.5259
25822SOL    HW279144   0.554   1.223   1.152  2.2182 -0.4405 -0.1382
25823SOL     OW79145   6.497   5.350   4.957 -0.4988 -0.3766  0.1077
25823SOL    HW179146   6.550   5.345   5.036  0.4762  0.0233 -0.5026
25823SOL    HW279147   6.413   5.385   4.986 -0.0251  0.1162  0.9013
25824SOL     OW79148   0.805   3.566   1.118  0.0304  0.3745  0.0247
25824SOL    HW179149   0.812   3.620   1.039 -0.9835 -0.6878 -0.8189
25824SOL    HW279150   0.815   3.476   1.087 -3.3853 -0.2762  0.6295
25825SOL     OW79151   5.204   1.755   7.756  0.1884 -0.0822  0.4681
25825SOL    HW179152   5.182   1.680   7.702  0.1244  1.0837 -1.1706
25825SOL    HW279153   5.122   1.803   7.766  0.5567  0.6228  0.1356
25826SOL     OW79154   7.212   1.209   3.559 -0.1226  0.3111  0.1041
25826SOL    HW179155   7.162   1.129   3.577  0.2980  0.0299  0.0447
25826SOL    HW279156   7.257   1.228   3.641 -1.0250  1.0692  0.4212
25827SOL     OW79157   9.027   4.465   4.910  0.5818  0.4392 -0.7039
25827SOL    HW179158   9.101   4.469   4.970 -0.4847  0.0422  0.6761
25827SOL    HW279159   9.049   4.396   4.848  1.6721  0.8029 -0.7177
25828SOL     OW79160   3.175   7.065   1.725  0.2350 -0.2411 -0.5821
25828SOL    HW179161   3.229   7.029   1.655 -0.0554 -0.2460 -0.8083
25828SOL    HW279162   3.085   7.046   1.697  0.1475 -0.9323  0.1677
25829SOL     OW79163   3.636   5.740   8.226  0.0881  0.0480 -0.1591
25829SOL    HW179164   3.607   5.831   8.236 -1.8372 -0.6729  1.1161
25829SOL    HW279165   3.722   5.746   8.185  0.0076  2.4472 -0.0101
25830SOL     OW79166   4.818   3.337   7.566 -0.3990 -0.0615 -0.2172
25830SOL    HW179167   4.768   3.293   7.635  0.5100 -0.2803  0.3234
25830SOL    HW279168   4.890   3.380   7.612 -0.3209  0.5850 -0.9318
25831SOL     OW79169   0.401   6.913   6.231  0.3045 -0.0167 -0.1697
25831SOL    HW179170   0.456   6.981   6.271  1.8970  0.0541 -2.3920
25831SOL    HW279171   0.420   6.834   6.282  2.4190  0.0372 -0.8298
25832SOL     OW79172   8.849   4.946   2.664  0.1831 -0.2551  0.4914
25832SOL    HW179173   8.933   4.971   2.703 -0.3366  0.1460  1.3945
25832SOL    HW279174   8.791   4.934   2.740 -1.0625  1.3186 -0.1892
25833SOL     OW79175   2.778   6.297   5.328 -0.6690  0.0295  0.4917
25833SOL    HW179176   2.838   6.223   5.334 -2.0364 -1.1057  0.1910
25833SOL    HW279177   2.756   6.316   5.419  0.5043  0.7682  0.6389
25834SOL     OW79178   2.743   5.534   8.368 -0.1914 -0.0661  0.1639
25834SOL    HW179179   2.836   5.545   8.348 -0.4109 -2.2000 -2.3816
25834SOL    HW279180   2.737   5.541   8.463  2.5412  0.3726  0.3248
25835SOL     OW79181   2.758   7.192   5.454  0.1686 -0.2805  0.0795
25835SOL    HW179182   2.816   7.258   5.492  0.2222  0.0537 -0.5638
25835SOL    HW279183   2.772   7.114   5.507  1.1527 -0.1749 -0.0161
25836SOL     OW79184   0.336   3.712   2.038  0.9897 -0.4074 -0.5752
25836SOL    HW179185   0.285   3.792   2.043  2.5853  0.5703  0.3672
25836SOL    HW279186   0.302   3.667   1.960 -0.4393  0.7963 -0.6646
25837SOL     OW79187   2.171   4.711   3.965  0.6780 -0.6042  0.0063
25837SOL    HW179188   2.221   4.631   3.980  1.1091 -0.1085  1.2439
25837SOL    HW279189   2.185   4.731   3.872  0.8051 -1.7913 -0.2337
25838SOL     OW79190   5.349   4.201   2.646 -0.1356 -0.6714 -0.2614
25838SOL    HW179191   5.416   4.224   2.711 -0.6759 -0.5893  0.2793
25838SOL    HW279192   5.306   4.284   2.626 -0.6289 -0.8483  0.0344
25839SOL     OW79193   1.487   6.842   4.307  0.0344 -0.7557 -0.2850
25839SOL    HW179194   1.411   6.876   4.259  0.6099  0.2594 -0.4750
25839SOL    HW279195   1.555   6.908   4.295  1.6958 -2.7160 -2.0510
25840SOL     OW79196   9.232   0.029   3.898 -0.0241 -0.4687 -0.2098
25840SOL    HW179197   9.210   0.121   3.888 -0.6280 -0.6107 -0.2299
25840SOL    HW279198   9.327   0.026   3.897 -0.0110  0.0652 -1.0084
25841SOL     OW79199   1.902   1.064   8.005 -0.1783  0.3411  0.1254
25841SOL    HW179200   1.820   1.106   8.030  0.5162  0.9191  1.4561
25841SOL    HW279201   1.903   1.069   7.910 -1.1063  1.4185  0.1610
25842SOL     OW79202   8.311   9.188   0.095 -0.3232  0.7051 -0.0218
25842SOL    HW179203   8.261   9.169   0.175 -1.2065  0.4123 -0.6325
25842SOL    HW279204   8.385   9.240   0.125 -0.2105 -0.0813  1.1027
25843SOL     OW79205   0.662   5.877   5.639  0.0604  0.3782  0.1258
25843SOL    HW179206   0.681   5.862   5.731 -3.0438  0.4659  0.8534
25843SOL    HW279207   0.591   5.941   5.639  1.6905  2.3207 -2.4280
25844SOL     OW79208   9.119   3.069   9.033 -0.2275 -0.8449  0.0854
25844SOL    HW179209   9.186   3.013   9.071  0.8222 -0.1310 -0.6647
25844SOL    HW279210   9.146   3.158   9.055 -0.2365 -0.4838 -1.2613
25845SOL     OW79211   7.048   1.155   6.368 -0.1781 -0.8996  0.0226
25845SOL    HW179212   7.012   1.237   6.404 -0.3822 -1.1455  0.3778
25845SOL    HW279213   7.111   1.184   6.303  0.7452 -0.4457  1.1024
25846SOL     OW79214   9.057   8.182   0.543  0.0494 -0.4942 -0.3551
25846SOL    HW179215   8.999   8.206   0.471 -1.5777 -0.0975  1.0626
25846SOL    HW279216   9.058   8.086   0.541  0.2336 -0.4846 -1.0646
25847SOL     OW79217   5.735   4.870   3.914 -0.3914  0.0857 -0.1516
25847SOL    HW179218   5.826   4.874   3.885 -0.5874  1.2093 -0.6399
25847SOL    HW279219   5.739   4.884   4.008 -0.3079  3.6304 -0.6143
25848SOL     OW79220   9.132   5.338   4.791 -0.3903  0.2066  0.1681
25848SOL    HW179221   9.126   5.308   4.882 -0.9914  0.6962  0.2973
25848SOL    HW279222   9.042   5.365   4.770 -0.0040  1.2620 -0.1620
25849SOL     OW79223   7.926   5.431   3.281  0.1023  0.3974  0.0709
25849SOL    HW179224   7.971   5.400   3.203  2.1678  1.2377  0.9144
25849SOL    HW279225   7.926   5.356   3.341  1.5660  0.8113  0.5862
25850SOL     OW79226   3.107   4.885   1.662 -0.5247  0.6254 -0.3009
25850SOL    HW179227   3.083   4.972   1.693 -0.2065  1.0337 -1.1988
25850SOL    HW279228   3.199   4.893   1.638 -0.1464 -0.2820  0.7772
25851SOL     OW79229   0.514   7.604   9.115 -0.4926 -0.2125 -0.0100
25851SOL    HW179230   0.479   7.693   9.118  2.2433  0.9398 -0.8489
25851SOL    HW279231   0.522   7.584   9.022 -0.1334 -0.9380  0.1690
25852SOL     OW79232   5.854   9.174   0.860  0.4783 -0.7173  0.0815
25852SOL    HW179233   5.802   9.094   0.860  1.0700 -1.1266  1.7983
25852SOL    HW279234   5.862   9.197   0.768 -1.7552 -1.2695 -0.2844
25853SOL     OW79235   9.020   4.145   2.180 -0.0443  0.2628 -0.2564
25853SOL    HW179236   9.003   4.091   2.104 -0.5016 -0.2668  0.2181
25853SOL    HW279237   8.959   4.218   2.172  0.7854  0.8801 -1.0556
25854SOL     OW79238   4.466   5.041   2.732  0.0547 -0.3449  0.1389
25854SOL    HW179239   4.409   5.116   2.714 -1.1600 -1.2767 -0.0190
25854SOL    HW279240   4.488   5.048   2.825 -0.1238  0.1565  0.1424
25855SOL     OW79241   1.058   6.704   4.936  0.0659  0.2081  0.5630
25855SOL    HW179242   1.043   6.784   4.986  0.9961 -0.4193  1.8853
25855SOL    HW279243   1.149   6.681   4.955 -0.0141 -0.8365 -0.2793
25856SOL     OW79244   4.878   6.255   8.451 -0.3287 -0.3441 -0.1518
25856SOL    HW179245   4.856   6.269   8.359  0.0982 -0.7350 -0.3139
25856SOL    HW279246   4.974   6.252   8.452 -0.3559 -1.0027  0.2168
25857SOL     OW79247   6.875   2.267   2.256  0.2372  0.9942 -0.4582
25857SOL    HW179248   6.795   2.282   2.205 -0.3066  1.2192  0.4519
25857SOL    HW279249   6.911   2.354   2.271  0.1373  0.9614 -0.0379
25858SOL     OW79250   0.052   6.967   9.280 -0.6406 -0.5737 -0.0979
25858SOL    HW179251   0.068   6.905   9.352 -1.9344  2.0925  2.5893
25858SOL    HW279252   0.139   7.002   9.259 -0.1487 -1.9247 -0.4018
25859SOL     OW79253   2.219   4.268   9.194  0.0150 -0.1209 -0.2431
25859SOL    HW179254   2.212   4.358   9.162  0.6879 -0.4088 -1.2429
25859SOL    HW279255   2.307   4.239   9.166 -0.1961 -1.0830  0.0610
25860SOL     OW79256   8.025   0.291   1.436 -0.1507  0.3314 -0.2523
25860SOL    HW179257   7.979   0.375   1.440 -0.1454  0.4535 -2.1926
25860SOL    HW279258   8.098   0.307   1.375  0.0431 -0.9754 -0.3660
25861SOL     OW79259   2.624   1.864   7.044 -0.4716  0.3851  0.5786
25861SOL    HW179260   2.712   1.829   7.029  0.1980  0.9000  3.1029
25861SOL    HW279261   2.585   1.804   7.108 -1.5504  0.8241  0.3482
25862SOL     OW79262   3.169   7.087   4.955  0.2036 -0.2276  0.0768
25862SOL    HW179263   3.172   7.172   4.910  0.2128 -0.5972 -0.6173
25862SOL    HW279264   3.258   7.052   4.945  0.4166  0.0072  1.0137
25863SOL     OW79265   7.304   7.327   5.332  0.7873 -0.1590 -0.6604
25863SOL    HW179266   7.364   7.253   5.329  1.2802  0.0905  1.8840
25863SOL    HW279267   7.359   7.402   5.355 -0.2032  0.3937 -0.0281
25864SOL     OW79268   8.324   1.458   5.063  0.0516  0.1081  0.1041
25864SOL    HW179269   8.403   1.508   5.045 -0.3754  0.2019 -1.6293
25864SOL    HW279270   8.299   1.482   5.152 -0.0552  2.8673 -0.6194
25865SOL     OW79271   4.575   9.043   8.029 -0.3868  0.0847  0.0220
25865SOL    HW179272   4.607   9.059   8.118  0.6389  0.2919 -0.3693
25865SOL    HW279273   4.595   8.951   8.013  0.7029  0.3984 -0.4868
25866SOL     OW79274   2.042   8.402   2.728 -0.1493  0.1134  0.0941
25866SOL    HW179275   1.969   8.340   2.724  0.6589 -0.8384 -0.1889
25866SOL    HW279276   2.032   8.445   2.813 -1.5098  0.5820 -0.2988
25867SOL     OW79277   8.799   2.874   0.708 -0.2681 -0.5634 -0.2401
25867SOL    HW179278   8.847   2.855   0.789  0.2214  3.2394  0.4337
25867SOL    HW279279   8.707   2.859   0.730 -0.4059  3.0842  1.8931
25868SOL     OW79280   8.629   5.514   0.078  0.0851  0.0191  0.5987
25868SOL    HW179281   8.715   5.472   0.091  0.7364  1.2099  0.2214
25868SOL    HW279282   8.596   5.528   0.167  0.0219 -0.9538  0.7360
25869SOL     OW79283   2.095   2.723   1.031 -0.1951 -0.4617  0.5287
25869SOL    HW179284   2.191   2.715   1.037  0.1836  2.0954 -1.1697
25869SOL    HW279285   2.070   2.663   0.961  0.2254 -0.8491  0.7111
25870SOL     OW79286   2.939   3.180   5.123  0.1669 -0.4923 -0.2727
25870SOL    HW179287   2.954   3.234   5.201 -2.2640 -0.8987  0.5318
25870SOL    HW279288   2.891   3.237   5.063  0.1595 -0.8384 -0.5984
25871SOL     OW79289   7.404   5.388   7.828 -0.2396 -0.2016 -0.1896
25871SOL    HW179290   7.460   5.465   7.831 -0.4704 -0.0423  0.1354
25871SOL    HW279291   7.456   5.322   7.783  0.5266 -0.3010  0.8158
25872SOL     OW79292   7.816   4.529   6.734 -0.5203  0.4984 -0.0662
25872SOL    HW179293   7.769   4.535   6.651 -0.4125  0.6578 -0.1156
25872SOL    HW279294   7.747   4.528   6.801 -0.6283 -0.2639 -0.1881
25873SOL     OW79295   0.640   2.946   5.190  0.2358 -0.0186  0.6164
25873SOL    HW179296   0.558   2.980   5.226  0.5933  0.5750  0.8824
25873SOL    HW279297   0.628   2.950   5.096 -0.8887 -2.0148  0.6415
25874NA      NA79298   0.950   6.749   4.757  0.1835 -0.3356 -0.1160
25875NA      NA79299   6.173   3.778   6.271  0.4050 -0.1361  0.0889
25876NA      NA79300   7.387   4.021   5.062  0.1298 -0.2312  0.0637
25877NA      NA79301   2.311   1.012   5.432 -0.2813  0.4247  0.2476
25878NA      NA79302   0.193   8.857   7.772 -0.1761  0.2307 -0.2003
25879NA      NA79303   3.248   5.586   2.980 -0.3113 -0.5665  0.6162
25880NA      NA79304   3.798   7.353   7.973 -0.2269  0.2524 -0.5897
25881NA      NA79305   1.421   4.470   0.733 -0.6621 -0.0157 -0.0567
25882NA      NA79306   0.535   0.042   0.875  0.3723  0.0392  0.6295
25883NA      NA79307   2.979   2.338   8.591  0.1501  0.2439  0.2062
25884NA      NA79308   8.138   6.209   6.406 -0.1135  0.0715 -0.2580
25885NA      NA79309   0.597   4.275   6.310  0.9250 -0.2508 -0.0444
25886NA      NA79310   5.787   6.132   3.585 -0.1835 -0.2245  0.5667
25887NA      NA79311   3.002   1.715   3.008  0.2483  0.5335 -0.2119
25888NA      NA79312   6.579   3.719   1.976 -0.1997 -0.5035  0.0355
25889NA      NA79313   8.542   2.822   0.013 -0.1580 -0.0051 -0.6574
25890NA      NA79314   5.655   5.556   9.136  0.1856  0.0853 -0.3346
25891NA      NA79315   5.257   6.851   2.408 -0.6374 -0.4410 -0.2668
25892NA      NA79316   7.317   7.253   0.805  0.4679 -0.6449 -0.6767
25893NA      NA79317   0.544   2.306   2.414  0.1403  0.0022  0.5147
25894NA      NA79318   4.126   2.794   5.836  0.1831 -0.2169  0.2251
25895NA      NA79319   9.244   7.985   1.413 -0.2722 -0.5115  0.2151
25896NA      NA79320   4.391   0.603   5.642  0.3522 -0.0524  0.3792
25897NA      NA79321   1.330   5.308   2.588  0.3238 -0.3978 -0.3602
25898NA      NA79322   3.756   8.020   5.614 -0.0932  0.1424 -0.3849
25899NA      NA79323   8.547   5.899   4.816  0.0553  0.3647 -0.0768
25900NA      NA79324   3.427   5.514   2.294 -0.6179 -0.7197  0.3177
25901NA      NA79325   4.050   6.503   7.884 -0.0977 -0.0470  0.1007
25902NA      NA79326   3.554   1.642   7.274  0.2745 -0.0241  0.2090
25903NA      NA79327   6.067   4.898   7.491  0.3275  0.4243 -0.1027
25904NA      NA79328   3.544   7.471   1.960  0.3692 -0.2889 -0.1709
25905NA      NA79329   2.706   6.243   6.932 -0.0419 -0.1162 -0.2836
25906NA      NA79330   2.386   4.703   0.852 -0.1989  0.0285  0.0325
25907NA      NA79331   3.181   8.802   2.794 -0.4931  0.5455  0.0005
25908NA      NA79332   0.287   2.510   6.832 -0.2237 -0.4803  0.3355
25909NA      NA79333   2.666   1.970   1.214 -0.2499  0.2693 -0.8569
25910NA      NA79334   3.724   1.658   8.373 -0.0107 -0.2203 -0.2412
25911NA      NA79335   0.192   3.280   3.578  0.0038  0.5756 -0.6619
25912NA      NA79336   6.890   4.463   1.209 -0.3282 -0.5101  0.2351
25913NA      NA79337   7.097   1.931   0.109 -0.7607 -0.6928 -0.2226
25914NA      NA79338   2.867   4.522   2.217 -0.4164  0.1871  0.1723
25915NA      NA79339   8.606   5.708   0.728 -0.2957 -0.6428  0.1408
25916NA      NA79340   3.095   1.043   7.796 -0.0428  0.3460 -0.1843
25917NA      NA79341   4.285   3.166   4.358 -0.2360  0.2702 -0.3703
25918NA      NA79342   5.051   7.567   6.156 -0.2503  0.2051 -0.1269
25919NA      NA79343   6.585   0.350   3.074  0.2285 -0.9698  0.1139
25920NA      NA79344   6.244   6.526   7.503 -0.0038  0.0720 -0.4335
25921NA      NA79345   4.060   2.423   7.147 -0.6310 -0.1827 -0.1956
25922NA      NA79346   2.137   0.683   7.931 -0.3967 -0.1231  0.1946
25923NA      NA79347   7.167   0.382   4.321 -0.3111 -0.0196  0.3025
25924NA      NA79348   7.079   3.636   5.495  0.5696 -0.4378 -0.3101
25925NA      NA79349   2.263   8.209   9.133 -0.0103 -0.4906  0.4203
25926NA      NA79350   7.879   8.159   2.888 -0.4026 -0.3394 -0.4888
25927NA      NA79351   5.702   2.601   6.925 -0.3636 -0.1422 -0.3493
25928NA      NA79352   5.309   8.772   0.104 -0.1818 -0.0573  0.0765
25929NA      NA79353   7.063   8.953   0.849 -0.2186  0.1433  0.1779
25930NA      NA79354   1.058   1.726   8.315  0.0081 -0.7880 -0.2023
25931NA      NA79355   1.243   9.092   9.278  0.4569 -0.1987 -0.0819
25932NA      NA79356   1.481   6.469   2.854  0.5478 -0.0014  0.0955
25933NA      NA79357   0.268   3.100   9.026  0.0035  0.4267  0.2425
25934NA      NA79358   7.687   2.749   6.953 -0.1059 -0.1133 -0.5275
25935NA      NA79359   1.403   4.863   5.085  0.1847  0.4541  0.4698
25936NA      NA79360   7.380   3.957   0.301 -0.0868  0.2251 -0.2436
25937NA      NA79361   9.047   8.356   5.690 -0.4656 -0.4723  0.3315
25938NA      NA79362   3.622   8.032   3.459 -0.1604 -0.5304  0.4819
25939NA      NA79363   8.540   7.030   5.852  0.2325 -0.0572  0.1016
25940NA      NA79364   2.708   7.072   8.951  0.0578 -0.0845  0.0280
25941NA      NA79365   0.354   5.534   7.567 -0.5917  0.2095  0.2706
25942NA      NA79366   5.223   9.092   7.902 -0.2428 -0.0737  0.2945
25943NA      NA79367   1.856   2.249   3.549  0.2014  0.6710  0.1108
25944NA      NA79368   5.353   8.567   4.558  0.5698  0.2352  0.0869
25945NA      NA79369   6.428   4.989   8.518 -0.0851 -0.1225  0.4119
25946NA      NA79370   6.784   1.984   7.266 -0.4859  0.1715  0.6914
25947NA      NA79371   5.632   6.736   5.532  0.1701  0.8655  0.3745
25948NA      NA79372   7.057   6.399   8.325 -0.0280  0.2953 -0.1318
25949NA      NA79373   3.046   1.741   4.385  0.8693  0.3037 -0.8252
25950NA      NA79374   2.450   5.242   3.733 -0.1659 -0.3118  0.1005
25951CL      CL79375   5.996   7.142   5.980  0.1062  0.0409  0.3714
25952CL      CL79376   2.800   9.136   3.634  0.4231 -0.1557 -0.0694
25953CL      CL79377   1.917   0.426   8.664 -0.3172 -0.0965  0.1340
25954CL      CL79378   6.775   1.633   8.265  0.0740  0.0340  0.3120
25955CL      CL79379   5.707   4.296   3.974  0.1318 -0.3250 -0.0617
25956CL      CL79380   0.417   6.956   4.800 -0.1365 -0.2534 -0.1533
25957CL      CL79381   3.580   3.024   8.536 -0.6191 -0.2242 -0.2846
25958CL      CL79382   6.348   2.722   8.569  0.3100  0.0422  0.6116
25959CL      CL79383   7.011   2.712   1.969 -0.3210 -0.0579  0.3008
25960CL      CL79384   5.235   1.929   5.727  0.0757  0.3358 -0.3612
25961CL      CL79385   8.940   6.061   6.919 -0.3385  0.3535  0.0429
25962CL      CL79386   0.308   8.534   2.553 -0.4848 -0.2646  0.0784
25963CL      CL79387   6.251   3.189   7.740  0.5892  0.0066  0.2112
25964CL      CL79388   6.650   3.821   4.978 -0.4687  0.3389 -0.1549
25965CL      CL79389   1.432   6.254   3.239 -0.4976 -0.1519  0.1883
25966CL      CL79390   3.061   5.199   0.527  0.2283 -0.0502  0.2911
25967CL      CL79391   1.303   5.099   1.659  0.3805  0.1193  0.3069
25968CL      CL79392   3.132   5.603   2.767  0.2276  0.1781  0.3015
25969CL      CL79393   1.303   1.551   7.748  0.1340 -0.0813 -0.1087
25970CL      CL79394   3.855   6.488   7.748 -0.1434  0.3092  0.0361
25971CL      CL79395   1.726   6.458   7.837 -0.2529 -0.5153 -0.1167
25972CL      CL79396   0.183   1.863   0.886 -0.0873  0.5303 -0.2140
25973CL      CL79397   5.456   4.014   3.647 -0.2688  0.2453 -0.0985
25974CL      CL79398   0.065   3.318   3.777  0.1806  0.0686 -0.3282
25975CL      CL79399   1.940   0.110   5.960 -0.0770 -0.1192  0.0152
25976CL      CL79400   3.600   8.064   8.867 -0.1740 -0.6096  0.0746
25977CL      CL79401   6.307   8.408   4.825  0.0129 -0.2998 -0.1700
25978CL      CL79402   5.236   9.016   1.329  0.3237 -0.3776 -0.2230
25979CL      CL79403   5.692   4.722   5.487 -0.3095  0.0334  0.2631
25980CL      CL79404   0.368   1.278   6.994 -0.0698  0.1407  0.1239
25981CL      CL79405   2.928   1.798   7.661 -0.3407 -0.4942  0.0297
25982CL      CL79406   6.794   6.530   5.947  0.1238  0.2173 -0.4145
25983CL      CL79407   2.080   7.676   9.287 -0.2888  0.1884 -0.0047
25984CL      CL79408   1.092   0.356   6.600  0.0122 -0.1195  0.2005
25985CL      CL79409   8.114   2.587   3.842  0.1983 -0.3229 -0.1230
25986CL      CL79410   8.508   6.092   1.170 -0.0623 -0.1641 -0.2418
25987CL      CL79411   5.876   7.598   9.241 -0.0927 -0.0967 -0.0123
25988CL      CL79412   4.037   0.754   5.022  0.1550  0.2834  0.0933
25989CL      CL79413   4.605   6.820   3.168  0.0856  0.0688  0.0493
25990CL      CL79414   2.389   7.923   3.616  0.0361  0.0793  0.1685
25991CL      CL79415   2.845   9.087   6.913  0.2349  0.1454  0.0565
25992CL      CL79416   2.234   1.480   4.596  0.0543 -0.4024 -0.1197
25993CL      CL79417   5.328   4.065   1.227 -0.3207 -0.0611  0.3309
25994CL      CL79418   6.463   3.812   6.912  0.2003  0.3165 -0.0412
25995CL      CL79419   7.069   1.900   0.341  0.7278 -0.0872  0.3685
25996CL      CL79420   3.887   8.521   5.189  0.0234 -0.2588 -0.2066
25997CL      CL79421   0.574   3.529   8.924  0.2150 -0.0135 -0.1063
25998CL      CL79422   2.605   0.438   1.790  0.1253  0.2113  0.6316
25999CL      CL79423   2.364   1.314   3.816  0.1143  0.1103 -0.0063
26000CL      CL79424   0.539   5.469   6.716  0.0356  0.1280  0.0055
26001CL      CL79425   7.622   0.844   3.860  0.3230  0.4683  0.0939
26002CL      CL79426   3.802   7.756   0.713  0.0086 -0.2692 -0.1586
26003CL      CL79427   1.078   4.544   0.435  0.3572 -0.4592  0.1426
26004CL      CL79428   7.763   7.427   5.029  0.1939 -0.1186 -0.2082
26005CL      CL79429   7.250   4.075   0.483 -0.0035 -0.1247  0.1278
26006CL      CL79430   3.235   1.763   8.034 -0.3686 -0.3030  0.1097
26007CL      CL79431   6.653   0.808   2.385 -0.0650  0.3668  0.0628
26008CL      CL79432   5.759   1.360   3.379 -0.2885  0.5491 -0.3729
26009CL      CL79433   3.536   2.752   5.538  0.0901 -0.5107  0.0654
26010CL      CL79434   5.351   6.613   7.546  0.3574  0.1675 -0.5048
26011CL      CL79435   5.199   2.371   6.276 -0.3912 -0.0334 -0.2579
26012CL      CL79436   5.656   5.863   0.724 -0.3168  0.0384  0.0086
26013CL      CL79437   8.421   8.099   5.663 -0.6036  0.0942  0.0772
26014CL      CL79438   4.615   8.436   6.968 -0.2556  0.3215  0.1458
26015CL      CL79439   3.732   8.990   0.552  0.6400  0.0089  0.0619
26016CL      CL79440   6.192   5.458   5.023  0.4213  0.0353 -0.0868
26017CL      CL79441   3.066   5.817   5.105  0.1682 -0.0939 -0.6107
26018CL      CL79442   6.337   4.153   1.629 -0.1292 -0.0600  0.0482
26019CL      CL79443   7.715   5.199   6.126  0.0644 -0.0695  0.4759
26020CL      CL79444   4.777   6.361   4.571 -0.1019  0.3372 -0.3089
26021CL      CL79445   0.365   9.119   0.186 -0.1147  0.0879  0.0569
26022CL      CL79446   4.221   1.780   0.055 -0.2431 -0.2770 -0.2971
26023CL      CL79447   2.999   7.344   6.245  0.2724 -0.1703 -0.0192
26024CL      CL79448   0.020   3.910   5.619 -0.2720 -0.0278 -0.1955
26025CL      CL79449   0.288   7.149   3.586 -0.2413  0.2947 -0.1971
26026CL      CL79450   6.910   5.740   2.502 -0.0570 -0.1512  0.3052
26027CL      CL79451   2.781   2.453   9.258  0.3759 -0.3388  0.3010
   9.29368   9.29368   9.29368
